
    -----------------------------------------------------------------------
          Psi4: An Open-Source Ab Initio Electronic Structure Package
                               Psi4 1.9 release

                         Git: Rev {} zzzzzzz 


    D. G. A. Smith, L. A. Burns, A. C. Simmonett, R. M. Parrish,
    M. C. Schieber, R. Galvelis, P. Kraus, H. Kruse, R. Di Remigio,
    A. Alenaizan, A. M. James, S. Lehtola, J. P. Misiewicz, M. Scheurer,
    R. A. Shaw, J. B. Schriber, Y. Xie, Z. L. Glick, D. A. Sirianni,
    J. S. O'Brien, J. M. Waldrop, A. Kumar, E. G. Hohenstein,
    B. P. Pritchard, B. R. Brooks, H. F. Schaefer III, A. Yu. Sokolov,
    K. Patkowski, A. E. DePrince III, U. Bozkaya, R. A. King,
    F. A. Evangelista, J. M. Turney, T. D. Crawford, C. D. Sherrill,
    J. Chem. Phys. 152(18) 184108 (2020). https://doi.org/10.1063/5.0006002

                            Additional Code Authors
    E. T. Seidl, C. L. Janssen, E. F. Valeev, M. L. Leininger,
    J. F. Gonthier, R. M. Richard, H. R. McAlexander, M. Saitow, X. Wang,
    P. Verma, M. H. Lechner, A. Jiang, S. Behnle, A. G. Heide,
    M. F. Herbst, and D. L. Poole

             Previous Authors, Complete List of Code Contributors,
                       and Citations for Specific Modules
    https://github.com/psi4/psi4/blob/master/codemeta.json
    https://github.com/psi4/psi4/graphs/contributors
    http://psicode.org/psi4manual/master/introduction.html#citing-psifour

    -----------------------------------------------------------------------


    Psi4 started on: Wednesday, 07 February 2024 04:10PM

    Process ID: 2935324
    Host:       n2cn0629
    PSIDATADIR: /opt/software/pc2/EB-SW/software/PSI4/1.9-foss-2022a/share/psi4
    Memory:     500.0 MiB
    Threads:    16
    
  ==> Input File <==

--------------------------------------------------------------------------
memory 48 GB # how much memory is available ! Depends on the nodes/cores !

molecule dimer {
# monomer A
-1 1    # Charge and multiplicity
B -0.000046  0.000337 3.299994
F -1.153597  0.000048 4.115641
F  1.153661 -0.000581 4.115641
F -0.000019 -1.153637 2.484360
F -0.000019  1.153978 2.484360
--
# monomer B
0 1     # Charge and multiplicity
C   1.22531237526482      0.70753866091955      0.00613762728373
C   1.22532433589282     -0.70753852257020     -0.00619318228664
C   -0.00000567409046      1.41496628609039     -0.00672680580738
C   2.45644923379077      1.41832825917820      0.00902448468363
C   0.00001130712078     -1.41497612663474      0.00347275151708
C   -1.22530046906674      0.70754574598412      0.00838914760619
C   2.45643823516184     -1.41832293188077     -0.00843833914343
C   -0.00000085313587      2.83680140328112     -0.00913035594137
C   3.68182717731192      0.70931832800114     -0.00808954934571
C   2.45512052870677      2.83422403348893     -0.00819210630633
C   3.68182158506039     -0.70933346742900      0.00798293467272
C   -1.22531311884624     -0.70752714354401     -0.00512042085974
C   1.22670006104402      3.54346985599427      0.00816696660346
C   0.00000526469929     -2.83678176723568      0.00832091913869
C   -2.45643555300670      1.41831729028492      0.00842454345199
C   2.45512389762097     -2.83422965658853      0.00783102630520
C   -1.22671388474763      3.54346943575023      0.00827029982280
C   4.91451777504333      1.42717324448953     -0.00160886631602
C   3.69315067131765      3.54279566454522     -0.00155906667985
C   -2.45643712022637     -1.41831290883911     -0.00846337726810
C   1.22670532178455     -3.54347386990643     -0.00780316414624
C   -2.45512491866593      2.83421703463423     -0.00818572995999
C   4.91452486062398     -1.42718653794377      0.00136387641845
C   1.22142509354026      4.97013443726031      0.00150231067809
C   4.89300870916237      2.82518837202648     -0.00039219795739
C   -1.22669652864725     -3.54347062507680     -0.00753595973677
C   -3.68181849668397      0.70932533873199     -0.00807686886569
C   3.69314758099218     -3.54280096939050      0.00148176697923
C   -1.22143177215231      4.97012866986289      0.00168580605083
C   6.13477145276790      0.68054831910577     -0.00083909176631
C   3.65678936045204      4.97295361556775     -0.00065042889723
C   -2.45512642789169     -2.83421472106065      0.00758666850712
C   -3.68181869921921     -0.70932533146830      0.00810055625144
C   4.89301309775526     -2.82519973363176      0.00021895393805
C   -0.00000059327114      5.65044773803267      0.00045449734393
C   6.13477559217374     -0.68055448207492      0.00042622874941
C   2.47813196269732      5.65357712333155      0.00063835075260
C   1.22142288457925     -4.97012668293268     -0.00129718634452
C   -3.69316190412301      3.54279732619245     -0.00139355922051
C   -1.22142804110313     -4.97011793159564     -0.00140994817719
C   -4.91452132810043      1.42717581899491     -0.00153192130862
C   3.65678749952045     -4.97295485423912      0.00080007163680
C   -2.47813805026426      5.65357479452875      0.00092287576113
C   -3.69314125872231     -3.54278984697859      0.00136564082345
C   -4.91451200321153     -1.42718062802730      0.00139857359209
C   -0.00000552908399     -5.65043791501335      0.00005899322272
C   -4.89302000425900      2.82518897091939     -0.00040227981744
C   2.47812647313991     -5.65357317188818     -0.00029052915548
C   -3.65679823041642      4.97295655404175     -0.00047374852278
C   -4.89299899901461     -2.82519139505969      0.00006491824035
C   -2.47812801824129     -5.65356579800621     -0.00056571680280
C   -6.13477002348955      0.68054913825639     -0.00086464346868
C   -3.65678835334731     -4.97294365097028      0.00058578382008
C   -6.13476456307132     -0.68055354348201      0.00040575295444
H   5.83528897565761      3.36927626695423      0.00396712770529
H   7.07385965258860      1.22821762089947     -0.00037744837300
H   4.60066374401555      5.51238117445323     -0.00014522814529
H   5.83528386714679     -3.36930568472863     -0.00423551337640
H   -0.00001167146422      6.73853104613662     -0.00389474766392
H   7.07386165167227     -1.22822657074368     -0.00008250934481
H   2.47331421164041      6.74068466339473      0.00017162982210
H   4.60066897122302     -5.51237575717576      0.00039007446835
H   -2.47331820069565      6.74068209160650      0.00047297644710
H   -0.00000978838621     -6.73852780445195      0.00458867820736
H   -5.83530143450167      3.36927132229595      0.00410314985360
H   2.47330840367253     -6.74068500242887      0.00027980126949
H   -4.60067436136587      5.51237839860371      0.00002010017831
H   -5.83527902699321     -3.36928859177951     -0.00451481925734
H   -2.47329986759855     -6.74067870613986     -0.00016951527498
H   -7.07385728692578      1.22822084484047     -0.00046143985387
H   -4.60067330624313     -5.51236229778631      0.00021776644566
H   -7.07385645456741     -1.22822025997701     -0.00017736581114

    units angstrom      # Angstroms are the default
    no_reorient         # Geometry fixed, default
    symmetry c1         # C1 symmetry, default
}

set {
    scf_type DF         # Density fitting, faster than exact integrals
    freeze_core True    # Freeze core electrons
    basis jun-cc-pVDZ   # Jun-cc-pVDZ basis set, recommended for sSAPT0 in https://doi.org/10.1063/1.4867135
}

energy('ssapt0')        # Compute sSAPT0 energy, includes also SAPT0
--------------------------------------------------------------------------

  Memory set to  44.703 GiB by Python driver.

Scratch directory: /tmp/
   => Loading Basis Set <=

    Name: JUN-CC-PVDZ
    Role: ORBITAL
    Keyword: BASIS
    atoms 1     entry B          line   130 file /opt/software/pc2/EB-SW/software/PSI4/1.9-foss-2022a/share/psi4/basis/jun-cc-pvdz.gbs 
    atoms 2-5   entry F          line   266 file /opt/software/pc2/EB-SW/software/PSI4/1.9-foss-2022a/share/psi4/basis/jun-cc-pvdz.gbs 
    atoms 6-59  entry C          line   164 file /opt/software/pc2/EB-SW/software/PSI4/1.9-foss-2022a/share/psi4/basis/jun-cc-pvdz.gbs 
    atoms 60-77 entry H          line    36 file /opt/software/pc2/EB-SW/software/PSI4/1.9-foss-2022a/share/psi4/basis/jun-cc-pvdz.gbs 

   => Loading Basis Set <=

    Name: JUN-CC-PVDZ
    Role: ORBITAL
    Keyword: BASIS
    atoms 1     entry B          line   130 file /opt/software/pc2/EB-SW/software/PSI4/1.9-foss-2022a/share/psi4/basis/jun-cc-pvdz.gbs 
    atoms 2-5   entry F          line   266 file /opt/software/pc2/EB-SW/software/PSI4/1.9-foss-2022a/share/psi4/basis/jun-cc-pvdz.gbs 
    atoms 6-59  entry C          line   164 file /opt/software/pc2/EB-SW/software/PSI4/1.9-foss-2022a/share/psi4/basis/jun-cc-pvdz.gbs 
    atoms 60-77 entry H          line    36 file /opt/software/pc2/EB-SW/software/PSI4/1.9-foss-2022a/share/psi4/basis/jun-cc-pvdz.gbs 


  //>>>>>>>>>>>>>>>>>>>>>>>>>>>>>>>>>>>//
  //              Dimer HF             //
  //<<<<<<<<<<<<<<<<<<<<<<<<<<<<<<<<<<<//

   => Libint2 <=

    Primary   basis highest AM E, G, H:  5, 4, 3
    Auxiliary basis highest AM E, G, H:  6, 5, 4
    Onebody   basis highest AM E, G, H:  6, 5, 4
    Solid Harmonics ordering:            gaussian

*** tstart() called on n2cn0629
*** at Wed Feb  7 16:10:05 2024

   => Loading Basis Set <=

    Name: JUN-CC-PVDZ
    Role: ORBITAL
    Keyword: BASIS
    atoms 1     entry B          line   130 file /opt/software/pc2/EB-SW/software/PSI4/1.9-foss-2022a/share/psi4/basis/jun-cc-pvdz.gbs 
    atoms 2-5   entry F          line   266 file /opt/software/pc2/EB-SW/software/PSI4/1.9-foss-2022a/share/psi4/basis/jun-cc-pvdz.gbs 
    atoms 6-59  entry C          line   164 file /opt/software/pc2/EB-SW/software/PSI4/1.9-foss-2022a/share/psi4/basis/jun-cc-pvdz.gbs 
    atoms 60-77 entry H          line    36 file /opt/software/pc2/EB-SW/software/PSI4/1.9-foss-2022a/share/psi4/basis/jun-cc-pvdz.gbs 


         ---------------------------------------------------------
                                   SCF
               by Justin Turney, Rob Parrish, Andy Simmonett
                          and Daniel G. A. Smith
                              RHF Reference
                       16 Threads,  45776 MiB Core
         ---------------------------------------------------------

  ==> Geometry <==

    Molecular point group: c1
    Full point group: C1

    Geometry (in Angstrom), charge = -1, multiplicity = 1:

       Center              X                  Y                   Z               Mass       
    ------------   -----------------  -----------------  -----------------  -----------------
         B           -0.000046449334     0.000336519434     2.918781362181    11.009305360000
         F           -1.153597449334     0.000047519434     3.734428362181    18.998403162730
         F            1.153660550666    -0.000581480566     3.734428362181    18.998403162730
         F           -0.000019449334    -1.153637480566     2.103147362181    18.998403162730
         F           -0.000019449334     1.153977519434     2.103147362181    18.998403162730
         C            1.225311925931     0.707538180353    -0.375075010536    12.000000000000
         C            1.225323886559    -0.707539003137    -0.387405820106    12.000000000000
         C           -0.000006123424     1.414965805524    -0.387939443627    12.000000000000
         C            2.456448784457     1.418327778612    -0.372188153136    12.000000000000
         C            0.000010857787    -1.414976607201    -0.377739886302    12.000000000000
         C           -1.225300918401     0.707545265418    -0.372823490213    12.000000000000
         C            2.456437785828    -1.418323412447    -0.389650976963    12.000000000000
         C           -0.000001302470     2.836800922715    -0.390342993761    12.000000000000
         C            3.681826727978     0.709317847435    -0.389302187165    12.000000000000
         C            2.455120079373     2.834223552923    -0.389404744126    12.000000000000
         C            3.681821135726    -0.709333947995    -0.373229703147    12.000000000000
         C           -1.225313568180    -0.707527624110    -0.386333058679    12.000000000000
         C            1.226699611710     3.543469375428    -0.373045671216    12.000000000000
         C            0.000004815365    -2.836782247802    -0.372891718681    12.000000000000
         C           -2.456436002341     1.418316809719    -0.372788094367    12.000000000000
         C            2.455123448287    -2.834230137155    -0.373381611514    12.000000000000
         C           -1.226714334082     3.543468955184    -0.372942337996    12.000000000000
         C            4.914517325709     1.427172763923    -0.382821504135    12.000000000000
         C            3.693150221984     3.542795183979    -0.382771704499    12.000000000000
         C           -2.456437569560    -1.418313389406    -0.389676015087    12.000000000000
         C            1.226704872451    -3.543474350473    -0.389015801966    12.000000000000
         C           -2.455125368000     2.834216554068    -0.389398367779    12.000000000000
         C            4.914524411290    -1.427187018510    -0.379848761401    12.000000000000
         C            1.221424644206     4.970133956694    -0.379710327141    12.000000000000
         C            4.893008259828     2.825187891460    -0.381604835777    12.000000000000
         C           -1.226696977981    -3.543471105643    -0.388748597556    12.000000000000
         C           -3.681818946018     0.709324858166    -0.389289506685    12.000000000000
         C            3.693147131658    -3.542801449957    -0.379730870840    12.000000000000
         C           -1.221432221486     4.970128189296    -0.379526831768    12.000000000000
         C            6.134771003434     0.680547838539    -0.382051729586    12.000000000000
         C            3.656788911118     4.972953135001    -0.381863066717    12.000000000000
         C           -2.455126877226    -2.834215201627    -0.373625969312    12.000000000000
         C           -3.681819148553    -0.709325812035    -0.373112081568    12.000000000000
         C            4.893012648421    -2.825200214198    -0.380993683881    12.000000000000
         C           -0.000001042605     5.650447257466    -0.380758140475    12.000000000000
         C            6.134775142840    -0.680554962641    -0.380786409070    12.000000000000
         C            2.478131513363     5.653576642765    -0.380574287067    12.000000000000
         C            1.221422435245    -4.970127163499    -0.382509824164    12.000000000000
         C           -3.693162353457     3.542796845626    -0.382606197040    12.000000000000
         C           -1.221428490437    -4.970118412162    -0.382622585996    12.000000000000
         C           -4.914521777434     1.427175338429    -0.382744559128    12.000000000000
         C            3.656787050187    -4.972955334806    -0.380412566182    12.000000000000
         C           -2.478138499598     5.653574313962    -0.380289762058    12.000000000000
         C           -3.693141708056    -3.542790327545    -0.379846996996    12.000000000000
         C           -4.914512452545    -1.427181108594    -0.379814064227    12.000000000000
         C           -0.000005978418    -5.650438395580    -0.381153644597    12.000000000000
         C           -4.893020453593     2.825188490353    -0.381614917637    12.000000000000
         C            2.478126023806    -5.653573652455    -0.381503166975    12.000000000000
         C           -3.656798679750     4.972956073475    -0.381686386342    12.000000000000
         C           -4.892999448349    -2.825191875626    -0.381147719579    12.000000000000
         C           -2.478128467575    -5.653566278573    -0.381778354622    12.000000000000
         C           -6.134770472823     0.680548657690    -0.382077281288    12.000000000000
         C           -3.656788802681    -4.972944131537    -0.380626853999    12.000000000000
         C           -6.134765012405    -0.680554024048    -0.380806884865    12.000000000000
         H            5.835288526324     3.369275786388    -0.377245510114     1.007825032230
         H            7.073859203255     1.228217140333    -0.381590086192     1.007825032230
         H            4.600663294682     5.512380693887    -0.381357865965     1.007825032230
         H            5.835283417813    -3.369306165295    -0.385448151196     1.007825032230
         H           -0.000012120798     6.738530565570    -0.385107385483     1.007825032230
         H            7.073861202338    -1.228227051310    -0.381295147164     1.007825032230
         H            2.473313762307     6.740684182828    -0.381041007997     1.007825032230
         H            4.600668521889    -5.512376237742    -0.380822563351     1.007825032230
         H           -2.473318650030     6.740681611040    -0.380739661372     1.007825032230
         H           -0.000010237720    -6.738528285018    -0.376623959612     1.007825032230
         H           -5.835301883836     3.369270841730    -0.377109487966     1.007825032230
         H            2.473307954339    -6.740685482995    -0.380932836550     1.007825032230
         H           -4.600674810700     5.512377918037    -0.381192537641     1.007825032230
         H           -5.835279476327    -3.369289072346    -0.385727457077     1.007825032230
         H           -2.473300316932    -6.740679186706    -0.381382153094     1.007825032230
         H           -7.073857736260     1.228220364274    -0.381674077673     1.007825032230
         H           -4.600673755577    -5.512362778353    -0.380994871374     1.007825032230
         H           -7.073856903901    -1.228220740543    -0.381390003630     1.007825032230

  Running in c1 symmetry.

  Rotational constants: A =      0.00197  B =      0.00197  C =      0.00110 [cm^-1]
  Rotational constants: A =     59.17771  B =     59.16935  C =     33.02250 [MHz]
  Nuclear repulsion = 7990.626368801170429

  Charge       = -1
  Multiplicity = 1
  Electrons    = 384
  Nalpha       = 192
  Nbeta        = 192

  ==> Algorithm <==

  SCF Algorithm Type is DF.
  DIIS enabled.
  MOM disabled.
  Fractional occupation disabled.
  Guess Type is SAD.
  Energy threshold   = 1.00e-08
  Density threshold  = 1.00e-08
  Integral threshold = 1.00e-12

  ==> Primary Basis <==

  Basis Set: JUN-CC-PVDZ
    Blend: JUN-CC-PVDZ
    Number of shells: 526
    Number of basis functions: 1152
    Number of Cartesian functions: 1211
    Spherical Harmonics?: true
    Max angular momentum: 2

   => Loading Basis Set <=

    Name: (JUN-CC-PVDZ AUX)
    Role: JKFIT
    Keyword: DF_BASIS_SCF
    atoms 1     entry B          line    90 file /opt/software/pc2/EB-SW/software/PSI4/1.9-foss-2022a/share/psi4/basis/jun-cc-pvdz-jkfit.gbs 
    atoms 2-5   entry F          line   314 file /opt/software/pc2/EB-SW/software/PSI4/1.9-foss-2022a/share/psi4/basis/jun-cc-pvdz-jkfit.gbs 
    atoms 6-59  entry C          line   146 file /opt/software/pc2/EB-SW/software/PSI4/1.9-foss-2022a/share/psi4/basis/jun-cc-pvdz-jkfit.gbs 
    atoms 60-77 entry H          line    70 file /opt/software/pc2/EB-SW/software/PSI4/1.9-foss-2022a/share/psi4/basis/jun-cc-pvdz-jkfit.gbs 

  ==> Integral Setup <==

  ==> DiskDFJK: Density-Fitted J/K Matrices <==

    J tasked:                  Yes
    K tasked:                  Yes
    wK tasked:                  No
    OpenMP threads:             16
    Integrals threads:          16
    Memory [MiB]:            34332
    Algorithm:                Core
    Integral Cache:           SAVE
    Schwarz Cutoff:          1E-12
    Fitting Condition:       1E-10

   => Auxiliary Basis Set <=

  Basis Set: (JUN-CC-PVDZ AUX)
    Blend: JUN-CC-PVDZ-JKFIT
    Number of shells: 1755
    Number of basis functions: 5075
    Number of Cartesian functions: 5819
    Spherical Harmonics?: true
    Max angular momentum: 3

  Minimum eigenvalue in the overlap matrix is 3.9753657846E-10.
  Reciprocal condition number of the overlap matrix is 1.6640192567E-11.
    Using canonical orthogonalization.
  Overall, 14 of 1152 possible MOs eliminated.


  ==> Pre-Iterations <==

  SCF Guess: Superposition of Atomic Densities via on-the-fly atomic UHF (no occupation information).

   -------------------------
    Irrep   Nso     Nmo    
   -------------------------
     A       1152    1138 
   -------------------------
    Total    1152    1138
   -------------------------

  ==> Iterations <==

                           Total Energy        Delta E     RMS |[F,P]|

   @DF-RHF iter SAD: -2483.57840591638524   -2.48358e+03   0.00000e+00 
   @DF-RHF iter   1: -2477.57578317851312    6.00262e+00   1.10906e-03 DIIS/ADIIS
   @DF-RHF iter   2: -2478.47505423928669   -8.99271e-01   5.00005e-04 DIIS/ADIIS
   @DF-RHF iter   3: -2478.62559724050880   -1.50543e-01   1.56769e-04 DIIS/ADIIS
   @DF-RHF iter   4: -2478.64262938854063   -1.70321e-02   7.61220e-05 DIIS
   @DF-RHF iter   5: -2478.64736894052385   -4.73955e-03   1.80717e-05 DIIS
   @DF-RHF iter   6: -2478.64770616235273   -3.37222e-04   5.42503e-06 DIIS
   @DF-RHF iter   7: -2478.64779030710861   -8.41448e-05   2.72756e-06 DIIS
   @DF-RHF iter   8: -2478.64781422820852   -2.39211e-05   1.22808e-06 DIIS
   @DF-RHF iter   9: -2478.64782141166415   -7.18346e-06   2.96646e-07 DIIS
   @DF-RHF iter  10: -2478.64782170024318   -2.88579e-07   1.07748e-07 DIIS
   @DF-RHF iter  11: -2478.64782172257128   -2.23281e-08   4.25731e-08 DIIS
   @DF-RHF iter  12: -2478.64782172705463   -4.48335e-09   2.02152e-08 DIIS
   @DF-RHF iter  13: -2478.64782172755577   -5.01132e-10   7.14230e-09 DIIS
  Energy and wave function converged.


  ==> Post-Iterations <==

    Orbital Energies [Eh]
    ---------------------

    Doubly Occupied:                                                      

       1A    -26.096263     2A    -26.096226     3A    -26.085260  
       4A    -26.085222     5A    -11.176624     6A    -11.176622  
       7A    -11.176556     8A    -11.176555     9A    -11.176459  
      10A    -11.176457    11A    -11.176415    12A    -11.176414  
      13A    -11.176246    14A    -11.176193    15A    -11.176168  
      16A    -11.176115    17A    -11.174932    18A    -11.174931  
      19A    -11.174753    20A    -11.174747    21A    -11.174745  
      22A    -11.174738    23A    -11.173559    24A    -11.173558  
      25A    -11.173385    26A    -11.173382    27A    -11.173376  
      28A    -11.173373    29A    -11.171759    30A    -11.171758  
      31A    -11.171141    32A    -11.171116    33A    -11.170999  
      34A    -11.170940    35A    -11.170747    36A    -11.170694  
      37A    -11.170171    38A    -11.170088    39A    -11.170006  
      40A    -11.169924    41A    -11.169739    42A    -11.169739  
      43A    -11.169695    44A    -11.169695    45A    -11.169439  
      46A    -11.169394    47A    -11.169359    48A    -11.169322  
      49A    -11.169304    50A    -11.169266    51A    -11.167983  
      52A    -11.167909    53A    -11.163774    54A    -11.163454  
      55A    -11.162729    56A    -11.162123    57A    -11.161605  
      58A    -11.161303    59A     -7.563220    60A     -1.437769  
      61A     -1.384958    62A     -1.376502    63A     -1.369269  
      64A     -1.153624    65A     -1.133862    66A     -1.133200  
      67A     -1.105469    68A     -1.105454    69A     -1.091935  
      70A     -1.075567    71A     -1.065396    72A     -1.048594  
      73A     -1.047929    74A     -1.031421    75A     -1.031295  
      76A     -0.996924    77A     -0.996902    78A     -0.992230  
      79A     -0.984606    80A     -0.984596    81A     -0.956299  
      82A     -0.937187    83A     -0.936260    84A     -0.933938  
      85A     -0.933537    86A     -0.931663    87A     -0.902165  
      88A     -0.902003    89A     -0.879311    90A     -0.879254  
      91A     -0.812550    92A     -0.812505    93A     -0.800717  
      94A     -0.798271    95A     -0.798056    96A     -0.796507  
      97A     -0.796494    98A     -0.779732    99A     -0.758129  
     100A     -0.735720   101A     -0.730577   102A     -0.727468  
     103A     -0.727331   104A     -0.713536   105A     -0.713441  
     106A     -0.661166   107A     -0.660089   108A     -0.650738  
     109A     -0.650698   110A     -0.648226   111A     -0.648033  
     112A     -0.632633   113A     -0.629857   114A     -0.616909  
     115A     -0.616746   116A     -0.610494   117A     -0.610366  
     118A     -0.580122   119A     -0.569758   120A     -0.569676  
     121A     -0.568504   122A     -0.566488   123A     -0.561484  
     124A     -0.557848   125A     -0.557722   126A     -0.554195  
     127A     -0.551991   128A     -0.545229   129A     -0.543598  
     130A     -0.543464   131A     -0.528747   132A     -0.519143  
     133A     -0.517926   134A     -0.517689   135A     -0.516952  
     136A     -0.510025   137A     -0.506346   138A     -0.504729  
     139A     -0.504635   140A     -0.490425   141A     -0.488466  
     142A     -0.486738   143A     -0.486703   144A     -0.482185  
     145A     -0.482126   146A     -0.479313   147A     -0.474838  
     148A     -0.473513   149A     -0.472959   150A     -0.471945  
     151A     -0.457567   152A     -0.457534   153A     -0.454426  
     154A     -0.454187   155A     -0.447027   156A     -0.445551  
     157A     -0.440084   158A     -0.439973   159A     -0.435425  
     160A     -0.434475   161A     -0.419861   162A     -0.419594  
     163A     -0.414457   164A     -0.414441   165A     -0.411476  
     166A     -0.409587   167A     -0.405911   168A     -0.404888  
     169A     -0.400856   170A     -0.398382   171A     -0.398368  
     172A     -0.380811   173A     -0.374773   174A     -0.364166  
     175A     -0.363940   176A     -0.358313   177A     -0.358108  
     178A     -0.318593   179A     -0.318399   180A     -0.311990  
     181A     -0.295277   182A     -0.295141   183A     -0.266153  
     184A     -0.247645   185A     -0.245198   186A     -0.239035  
     187A     -0.229861   188A     -0.218642   189A     -0.197806  
     190A     -0.196993   191A     -0.141391   192A     -0.139282  

    Virtual:                                                              

     193A      0.096363   194A      0.096946   195A      0.108709  
     196A      0.108774   197A      0.110001   198A      0.111123  
     199A      0.111187   200A      0.117883   201A      0.122050  
     202A      0.133012   203A      0.133097   204A      0.147729  
     205A      0.147730   206A      0.149402   207A      0.150022  
     208A      0.151573   209A      0.156419   210A      0.156842  
     211A      0.156864   212A      0.158023   213A      0.158211  
     214A      0.161631   215A      0.161963   216A      0.165628  
     217A      0.167160   218A      0.167588   219A      0.168130  
     220A      0.170598   221A      0.178558   222A      0.178609  
     223A      0.179848   224A      0.183765   225A      0.189513  
     226A      0.190287   227A      0.191842   228A      0.191857  
     229A      0.192682   230A      0.193072   231A      0.197652  
     232A      0.200090   233A      0.200157   234A      0.200986  
     235A      0.204503   236A      0.204614   237A      0.207568  
     238A      0.214967   239A      0.215045   240A      0.217539  
     241A      0.219327   242A      0.220772   243A      0.220986  
     244A      0.224359   245A      0.224432   246A      0.229620  
     247A      0.236370   248A      0.241384   249A      0.241456  
     250A      0.245330   251A      0.252394   252A      0.252829  
     253A      0.252907   254A      0.255628   255A      0.255638  
     256A      0.258339   257A      0.263089   258A      0.263543  
     259A      0.265975   260A      0.266377   261A      0.267123  
     262A      0.269037   263A      0.269069   264A      0.273016  
     265A      0.273633   266A      0.273875   267A      0.274322  
     268A      0.276352   269A      0.276399   270A      0.278396  
     271A      0.279330   272A      0.279493   273A      0.280264  
     274A      0.281599   275A      0.283387   276A      0.291582  
     277A      0.292798   278A      0.293085   279A      0.293547  
     280A      0.294447   281A      0.296101   282A      0.298107  
     283A      0.298988   284A      0.303340   285A      0.305869  
     286A      0.306652   287A      0.307739   288A      0.310492  
     289A      0.310918   290A      0.313547   291A      0.314365  
     292A      0.321325   293A      0.321459   294A      0.324736  
     295A      0.324762   296A      0.327228   297A      0.327629  
     298A      0.331434   299A      0.334661   300A      0.334892  
     301A      0.339249   302A      0.342986   303A      0.343650  
     304A      0.345099   305A      0.345791   306A      0.346555  
     307A      0.352413   308A      0.356705   309A      0.357478  
     310A      0.360307   311A      0.362832   312A      0.363541  
     313A      0.364824   314A      0.365428   315A      0.366298  
     316A      0.367292   317A      0.367342   318A      0.370756  
     319A      0.373174   320A      0.373842   321A      0.375311  
     322A      0.379662   323A      0.380244   324A      0.380394  
     325A      0.382909   326A      0.383020   327A      0.384931  
     328A      0.386314   329A      0.386830   330A      0.386878  
     331A      0.390572   332A      0.392661   333A      0.393188  
     334A      0.394341   335A      0.394929   336A      0.401100  
     337A      0.401242   338A      0.402530   339A      0.403818  
     340A      0.406510   341A      0.409674   342A      0.411516  
     343A      0.413335   344A      0.413776   345A      0.414796  
     346A      0.415592   347A      0.422329   348A      0.423875  
     349A      0.424700   350A      0.425021   351A      0.425819  
     352A      0.426800   353A      0.434687   354A      0.439187  
     355A      0.440123   356A      0.445769   357A      0.446266  
     358A      0.447030   359A      0.449222   360A      0.449464  
     361A      0.455852   362A      0.458629   363A      0.460448  
     364A      0.461375   365A      0.463045   366A      0.463942  
     367A      0.464701   368A      0.464787   369A      0.465283  
     370A      0.467599   371A      0.468911   372A      0.470410  
     373A      0.471061   374A      0.474202   375A      0.474372  
     376A      0.475242   377A      0.476339   378A      0.479291  
     379A      0.479439   380A      0.480626   381A      0.481541  
     382A      0.482244   383A      0.486072   384A      0.489532  
     385A      0.493241   386A      0.494859   387A      0.495180  
     388A      0.497063   389A      0.497923   390A      0.499912  
     391A      0.500376   392A      0.501256   393A      0.502815  
     394A      0.506848   395A      0.507055   396A      0.508094  
     397A      0.511021   398A      0.513507   399A      0.514423  
     400A      0.514684   401A      0.515163   402A      0.519072  
     403A      0.520093   404A      0.522725   405A      0.524997  
     406A      0.525529   407A      0.526615   408A      0.528768  
     409A      0.529219   410A      0.530075   411A      0.530465  
     412A      0.532227   413A      0.535398   414A      0.540506  
     415A      0.540989   416A      0.542836   417A      0.543471  
     418A      0.547018   419A      0.548700   420A      0.550436  
     421A      0.551615   422A      0.553146   423A      0.554411  
     424A      0.556020   425A      0.556393   426A      0.559343  
     427A      0.559820   428A      0.563524   429A      0.567704  
     430A      0.568153   431A      0.572329   432A      0.573030  
     433A      0.573350   434A      0.574245   435A      0.575920  
     436A      0.576964   437A      0.582330   438A      0.584409  
     439A      0.584713   440A      0.585727   441A      0.591092  
     442A      0.592607   443A      0.595459   444A      0.599419  
     445A      0.601516   446A      0.603364   447A      0.606408  
     448A      0.607816   449A      0.613783   450A      0.614277  
     451A      0.621535   452A      0.621892   453A      0.622964  
     454A      0.623482   455A      0.623925   456A      0.625405  
     457A      0.627952   458A      0.629455   459A      0.630665  
     460A      0.632275   461A      0.634606   462A      0.635061  
     463A      0.637376   464A      0.639540   465A      0.640595  
     466A      0.646830   467A      0.648283   468A      0.650544  
     469A      0.654189   470A      0.659927   471A      0.662606  
     472A      0.666830   473A      0.669822   474A      0.670596  
     475A      0.676880   476A      0.682929   477A      0.683105  
     478A      0.685500   479A      0.691088   480A      0.698309  
     481A      0.701069   482A      0.706666   483A      0.708215  
     484A      0.711117   485A      0.712798   486A      0.717583  
     487A      0.725707   488A      0.728420   489A      0.733451  
     490A      0.735089   491A      0.737818   492A      0.741580  
     493A      0.746355   494A      0.747816   495A      0.751765  
     496A      0.754701   497A      0.759691   498A      0.760084  
     499A      0.767767   500A      0.796494   501A      0.799446  
     502A      0.801807   503A      0.806269   504A      0.814424  
     505A      0.820586   506A      0.822229   507A      0.825699  
     508A      0.827436   509A      0.829050   510A      0.831993  
     511A      0.834821   512A      0.838093   513A      0.839641  
     514A      0.851613   515A      0.856401   516A      0.871361  
     517A      0.873625   518A      0.874895   519A      0.881814  
     520A      0.894045   521A      0.896126   522A      0.899517  
     523A      0.900644   524A      0.902031   525A      0.902309  
     526A      0.902838   527A      0.905762   528A      0.908550  
     529A      0.909211   530A      0.909550   531A      0.914681  
     532A      0.924573   533A      0.929944   534A      0.934347  
     535A      0.938379   536A      0.940699   537A      0.943786  
     538A      0.946827   539A      0.948830   540A      0.955360  
     541A      0.955978   542A      0.959741   543A      0.967511  
     544A      0.968286   545A      0.973199   546A      0.974476  
     547A      0.978962   548A      0.979082   549A      0.980423  
     550A      0.982589   551A      0.984767   552A      0.986029  
     553A      0.990315   554A      0.990922   555A      0.994260  
     556A      0.994409   557A      0.996755   558A      1.000089  
     559A      1.000203   560A      1.002716   561A      1.003600  
     562A      1.010300   563A      1.014685   564A      1.017389  
     565A      1.018261   566A      1.019954   567A      1.020004  
     568A      1.023213   569A      1.024799   570A      1.025105  
     571A      1.026973   572A      1.029923   573A      1.035509  
     574A      1.039132   575A      1.047859   576A      1.050064  
     577A      1.050285   578A      1.053770   579A      1.057124  
     580A      1.058780   581A      1.062773   582A      1.069188  
     583A      1.072327   584A      1.073541   585A      1.074281  
     586A      1.075986   587A      1.080984   588A      1.081896  
     589A      1.093311   590A      1.093776   591A      1.094984  
     592A      1.098238   593A      1.098829   594A      1.101534  
     595A      1.108717   596A      1.109736   597A      1.112946  
     598A      1.115684   599A      1.117605   600A      1.120758  
     601A      1.122394   602A      1.122720   603A      1.126111  
     604A      1.127168   605A      1.127463   606A      1.133119  
     607A      1.134165   608A      1.135899   609A      1.136286  
     610A      1.136815   611A      1.137761   612A      1.141548  
     613A      1.142835   614A      1.143489   615A      1.151719  
     616A      1.152828   617A      1.153907   618A      1.160702  
     619A      1.163569   620A      1.164894   621A      1.165885  
     622A      1.172961   623A      1.173650   624A      1.174127  
     625A      1.175712   626A      1.178269   627A      1.179413  
     628A      1.179930   629A      1.183049   630A      1.184373  
     631A      1.189956   632A      1.190990   633A      1.193683  
     634A      1.198226   635A      1.198705   636A      1.201551  
     637A      1.204384   638A      1.210135   639A      1.213498  
     640A      1.216130   641A      1.218506   642A      1.219490  
     643A      1.222366   644A      1.225312   645A      1.228101  
     646A      1.231741   647A      1.235965   648A      1.236106  
     649A      1.237893   650A      1.240831   651A      1.241477  
     652A      1.244928   653A      1.245805   654A      1.253073  
     655A      1.260006   656A      1.268978   657A      1.270573  
     658A      1.272185   659A      1.273198   660A      1.276043  
     661A      1.276335   662A      1.279514   663A      1.283686  
     664A      1.284224   665A      1.287223   666A      1.294466  
     667A      1.299997   668A      1.300791   669A      1.303674  
     670A      1.303949   671A      1.305521   672A      1.306280  
     673A      1.306381   674A      1.318168   675A      1.318623  
     676A      1.318982   677A      1.332753   678A      1.336357  
     679A      1.340240   680A      1.342498   681A      1.342872  
     682A      1.345644   683A      1.347308   684A      1.347740  
     685A      1.350922   686A      1.354899   687A      1.357437  
     688A      1.364475   689A      1.373844   690A      1.377330  
     691A      1.379238   692A      1.380464   693A      1.380926  
     694A      1.388629   695A      1.391357   696A      1.394184  
     697A      1.397473   698A      1.399670   699A      1.404789  
     700A      1.406404   701A      1.407496   702A      1.409135  
     703A      1.413754   704A      1.414236   705A      1.419775  
     706A      1.423034   707A      1.433493   708A      1.433953  
     709A      1.437383   710A      1.438093   711A      1.440558  
     712A      1.441690   713A      1.441823   714A      1.441913  
     715A      1.442614   716A      1.448607   717A      1.454154  
     718A      1.458885   719A      1.462734   720A      1.468207  
     721A      1.472108   722A      1.482114   723A      1.485330  
     724A      1.488161   725A      1.494335   726A      1.495039  
     727A      1.495830   728A      1.496733   729A      1.502252  
     730A      1.506103   731A      1.511164   732A      1.515722  
     733A      1.517040   734A      1.517528   735A      1.517914  
     736A      1.520621   737A      1.524340   738A      1.529828  
     739A      1.530359   740A      1.532527   741A      1.533039  
     742A      1.533790   743A      1.533981   744A      1.555798  
     745A      1.557333   746A      1.563136   747A      1.565601  
     748A      1.570059   749A      1.597154   750A      1.599182  
     751A      1.599682   752A      1.600563   753A      1.613134  
     754A      1.637268   755A      1.640728   756A      1.659743  
     757A      1.665071   758A      1.683226   759A      1.686470  
     760A      1.691104   761A      1.694756   762A      1.698051  
     763A      1.699416   764A      1.702000   765A      1.703028  
     766A      1.710832   767A      1.717126   768A      1.719707  
     769A      1.720350   770A      1.724885   771A      1.728010  
     772A      1.728117   773A      1.729311   774A      1.736073  
     775A      1.738478   776A      1.741104   777A      1.746550  
     778A      1.746681   779A      1.748453   780A      1.750258  
     781A      1.756640   782A      1.758802   783A      1.761171  
     784A      1.762099   785A      1.765222   786A      1.767246  
     787A      1.769653   788A      1.771858   789A      1.778029  
     790A      1.779889   791A      1.780704   792A      1.781945  
     793A      1.782017   794A      1.791203   795A      1.792132  
     796A      1.793704   797A      1.798973   798A      1.802953  
     799A      1.825294   800A      1.836954   801A      1.839222  
     802A      1.841402   803A      1.843636   804A      1.845030  
     805A      1.856138   806A      1.861171   807A      1.873109  
     808A      1.874805   809A      1.875090   810A      1.898440  
     811A      1.900099   812A      1.900956   813A      1.911552  
     814A      1.911749   815A      1.922731   816A      1.923390  
     817A      1.924304   818A      1.927820   819A      1.934392  
     820A      1.937596   821A      1.940036   822A      1.942658  
     823A      1.944624   824A      1.948512   825A      1.949057  
     826A      1.958259   827A      1.964784   828A      1.965283  
     829A      1.966993   830A      1.980747   831A      1.982655  
     832A      1.983899   833A      1.986005   834A      1.986616  
     835A      1.993757   836A      1.994087   837A      2.000409  
     838A      2.000509   839A      2.001977   840A      2.002123  
     841A      2.005674   842A      2.005884   843A      2.006934  
     844A      2.011970   845A      2.019340   846A      2.023717  
     847A      2.024233   848A      2.025145   849A      2.029453  
     850A      2.035031   851A      2.037504   852A      2.039735  
     853A      2.041640   854A      2.041771   855A      2.042430  
     856A      2.053638   857A      2.064082   858A      2.068115  
     859A      2.073837   860A      2.079223   861A      2.079582  
     862A      2.080431   863A      2.082554   864A      2.085705  
     865A      2.088782   866A      2.096239   867A      2.097625  
     868A      2.098532   869A      2.105826   870A      2.111464  
     871A      2.113260   872A      2.115175   873A      2.115961  
     874A      2.118176   875A      2.123826   876A      2.124107  
     877A      2.128665   878A      2.132897   879A      2.136049  
     880A      2.136469   881A      2.142853   882A      2.145518  
     883A      2.148208   884A      2.155412   885A      2.158542  
     886A      2.159679   887A      2.163211   888A      2.165712  
     889A      2.167502   890A      2.171774   891A      2.173404  
     892A      2.175001   893A      2.178952   894A      2.179167  
     895A      2.182663   896A      2.184241   897A      2.184604  
     898A      2.186857   899A      2.189502   900A      2.191127  
     901A      2.192004   902A      2.196436   903A      2.198812  
     904A      2.198939   905A      2.202518   906A      2.203614  
     907A      2.203849   908A      2.206460   909A      2.208612  
     910A      2.208860   911A      2.210840   912A      2.216087  
     913A      2.217152   914A      2.217233   915A      2.222083  
     916A      2.222831   917A      2.223876   918A      2.226251  
     919A      2.231956   920A      2.242535   921A      2.244008  
     922A      2.247937   923A      2.251527   924A      2.254234  
     925A      2.257878   926A      2.260802   927A      2.265526  
     928A      2.267263   929A      2.269602   930A      2.272623  
     931A      2.275612   932A      2.279108   933A      2.282199  
     934A      2.286976   935A      2.290292   936A      2.298897  
     937A      2.302794   938A      2.303061   939A      2.306827  
     940A      2.312400   941A      2.316665   942A      2.321099  
     943A      2.322790   944A      2.324127   945A      2.325078  
     946A      2.325404   947A      2.328006   948A      2.329584  
     949A      2.334532   950A      2.338683   951A      2.340765  
     952A      2.351925   953A      2.352846   954A      2.353155  
     955A      2.353844   956A      2.359313   957A      2.377670  
     958A      2.383056   959A      2.389547   960A      2.395405  
     961A      2.401530   962A      2.406051   963A      2.419434  
     964A      2.421785   965A      2.428420   966A      2.429314  
     967A      2.434081   968A      2.436924   969A      2.439025  
     970A      2.440241   971A      2.446131   972A      2.455548  
     973A      2.456062   974A      2.479120   975A      2.482123  
     976A      2.496846   977A      2.497807   978A      2.507958  
     979A      2.508411   980A      2.509204   981A      2.517492  
     982A      2.527251   983A      2.529822   984A      2.546325  
     985A      2.555419   986A      2.557437   987A      2.570321  
     988A      2.573752   989A      2.581587   990A      2.592760  
     991A      2.606573   992A      2.615607   993A      2.623083  
     994A      2.629222   995A      2.631163   996A      2.633151  
     997A      2.633366   998A      2.634536   999A      2.642934  
    1000A      2.643599  1001A      2.645241  1002A      2.655385  
    1003A      2.656736  1004A      2.656865  1005A      2.656978  
    1006A      2.668262  1007A      2.673654  1008A      2.674564  
    1009A      2.677923  1010A      2.680959  1011A      2.690858  
    1012A      2.705587  1013A      2.713861  1014A      2.717816  
    1015A      2.719242  1016A      2.719982  1017A      2.723300  
    1018A      2.724149  1019A      2.733954  1020A      2.739828  
    1021A      2.743225  1022A      2.766411  1023A      2.770329  
    1024A      2.773310  1025A      2.776412  1026A      2.797187  
    1027A      2.797790  1028A      2.798597  1029A      2.799253  
    1030A      2.804227  1031A      2.806589  1032A      2.810206  
    1033A      2.814486  1034A      2.837048  1035A      2.837789  
    1036A      2.850628  1037A      2.864083  1038A      2.884012  
    1039A      2.884704  1040A      2.913381  1041A      2.915157  
    1042A      2.916496  1043A      2.938131  1044A      2.941149  
    1045A      2.945432  1046A      2.945839  1047A      2.948051  
    1048A      2.955185  1049A      2.972245  1050A      2.999091  
    1051A      2.999920  1052A      3.007270  1053A      3.014839  
    1054A      3.018637  1055A      3.031457  1056A      3.043372  
    1057A      3.043909  1058A      3.055606  1059A      3.094518  
    1060A      3.098088  1061A      3.098788  1062A      3.127484  
    1063A      3.151771  1064A      3.152137  1065A      3.157908  
    1066A      3.160642  1067A      3.198889  1068A      3.201447  
    1069A      3.206825  1070A      3.214798  1071A      3.214927  
    1072A      3.223539  1073A      3.224966  1074A      3.229458  
    1075A      3.229566  1076A      3.230572  1077A      3.231090  
    1078A      3.244034  1079A      3.246783  1080A      3.248147  
    1081A      3.248848  1082A      3.271792  1083A      3.278727  
    1084A      3.290529  1085A      3.297224  1086A      3.322107  
    1087A      3.333145  1088A      3.361033  1089A      3.365776  
    1090A      3.369776  1091A      3.376044  1092A      3.381440  
    1093A      3.447115  1094A      3.506250  1095A      3.512372  
    1096A      3.575551  1097A      3.581582  1098A      3.635482  
    1099A      3.643026  1100A      3.674504  1101A      3.706736  
    1102A      3.709909  1103A      3.714950  1104A      3.723507  
    1105A      3.752480  1106A      3.768559  1107A      3.870552  
    1108A      3.876405  1109A      3.900699  1110A      3.953220  
    1111A      3.953513  1112A      3.996933  1113A      3.998150  
    1114A      4.067074  1115A      4.098113  1116A      4.122411  
    1117A      4.130070  1118A      4.159208  1119A      4.160932  
    1120A      4.190060  1121A      4.190495  1122A      4.194179  
    1123A      4.206179  1124A      4.219491  1125A      4.224984  
    1126A      4.257574  1127A      4.277823  1128A      4.291694  
    1129A      4.306379  1130A      4.442402  1131A      4.449327  
    1132A      4.467938  1133A      4.642758  1134A      4.650870  
    1135A      4.658286  1136A      4.734949  1137A      4.770771  
    1138A      4.771314  

    Final Occupation by Irrep:
              A 
    DOCC [   192 ]
    NA   [   192 ]
    NB   [   192 ]

  @DF-RHF Final Energy: -2478.64782172755577

   => Energetics <=

    Nuclear Repulsion Energy =           7990.6263688011704289
    One-Electron Energy =              -19340.3986871228371456
    Two-Electron Energy =                8871.1244965941095870
    Total Energy =                      -2478.6478217275562201

Computation Completed


Properties will be evaluated at   0.000000,   0.000000,   0.000000 [a0]

Properties computed using the SCF density matrix


 Multipole Moments:

 ------------------------------------------------------------------------------------
     Multipole            Electronic (a.u.)      Nuclear  (a.u.)        Total (a.u.)
 ------------------------------------------------------------------------------------

 L = 1.  Multiply by 2.5417464519 to convert [e a0] to [Debye]
 Dipole X            :         -0.0001956           -0.0000160           -0.0002116
 Dipole Y            :          0.0003131           -0.0001716            0.0001415
 Dipole Z            :         16.2513258          -20.2299261           -3.9786003
 Magnitude           :                                                    3.9786003

 ------------------------------------------------------------------------------------

*** tstop() called on n2cn0629 at Wed Feb  7 16:15:47 2024
Module time:
	user time   =    3810.49 seconds =      63.51 minutes
	system time =     213.40 seconds =       3.56 minutes
	total time  =        342 seconds =       5.70 minutes
Total time:
	user time   =    3810.49 seconds =      63.51 minutes
	system time =     213.40 seconds =       3.56 minutes
	total time  =        342 seconds =       5.70 minutes

  //>>>>>>>>>>>>>>>>>>>>>>>>>>>>>>>>>>>//
  //            Monomer A HF           //
  //<<<<<<<<<<<<<<<<<<<<<<<<<<<<<<<<<<<//

   => Libint2 <=

    Primary   basis highest AM E, G, H:  5, 4, 3
    Auxiliary basis highest AM E, G, H:  6, 5, 4
    Onebody   basis highest AM E, G, H:  6, 5, 4
    Solid Harmonics ordering:            gaussian

*** tstart() called on n2cn0629
*** at Wed Feb  7 16:15:47 2024

   => Loading Basis Set <=

    Name: JUN-CC-PVDZ
    Role: ORBITAL
    Keyword: BASIS
    atoms 1     entry B          line   130 file /opt/software/pc2/EB-SW/software/PSI4/1.9-foss-2022a/share/psi4/basis/jun-cc-pvdz.gbs 
    atoms 2-5   entry F          line   266 file /opt/software/pc2/EB-SW/software/PSI4/1.9-foss-2022a/share/psi4/basis/jun-cc-pvdz.gbs 
    atoms 6-59  entry C          line   164 file /opt/software/pc2/EB-SW/software/PSI4/1.9-foss-2022a/share/psi4/basis/jun-cc-pvdz.gbs 
    atoms 60-77 entry H          line    36 file /opt/software/pc2/EB-SW/software/PSI4/1.9-foss-2022a/share/psi4/basis/jun-cc-pvdz.gbs 


         ---------------------------------------------------------
                                   SCF
               by Justin Turney, Rob Parrish, Andy Simmonett
                          and Daniel G. A. Smith
                              RHF Reference
                       16 Threads,  45776 MiB Core
         ---------------------------------------------------------

  ==> Geometry <==

    Molecular point group: c1
    Full point group: C1

    Geometry (in Angstrom), charge = -1, multiplicity = 1:

       Center              X                  Y                   Z               Mass       
    ------------   -----------------  -----------------  -----------------  -----------------
         B           -0.000046449334     0.000336519434     2.918781362181    11.009305360000
         F           -1.153597449334     0.000047519434     3.734428362181    18.998403162730
         F            1.153660550666    -0.000581480566     3.734428362181    18.998403162730
         F           -0.000019449334    -1.153637480566     2.103147362181    18.998403162730
         F           -0.000019449334     1.153977519434     2.103147362181    18.998403162730
      Gh(C)           1.225311925931     0.707538180353    -0.375075010536    12.000000000000
      Gh(C)           1.225323886559    -0.707539003137    -0.387405820106    12.000000000000
      Gh(C)          -0.000006123424     1.414965805524    -0.387939443627    12.000000000000
      Gh(C)           2.456448784457     1.418327778612    -0.372188153136    12.000000000000
      Gh(C)           0.000010857787    -1.414976607201    -0.377739886302    12.000000000000
      Gh(C)          -1.225300918401     0.707545265418    -0.372823490213    12.000000000000
      Gh(C)           2.456437785828    -1.418323412447    -0.389650976963    12.000000000000
      Gh(C)          -0.000001302470     2.836800922715    -0.390342993761    12.000000000000
      Gh(C)           3.681826727978     0.709317847435    -0.389302187165    12.000000000000
      Gh(C)           2.455120079373     2.834223552923    -0.389404744126    12.000000000000
      Gh(C)           3.681821135726    -0.709333947995    -0.373229703147    12.000000000000
      Gh(C)          -1.225313568180    -0.707527624110    -0.386333058679    12.000000000000
      Gh(C)           1.226699611710     3.543469375428    -0.373045671216    12.000000000000
      Gh(C)           0.000004815365    -2.836782247802    -0.372891718681    12.000000000000
      Gh(C)          -2.456436002341     1.418316809719    -0.372788094367    12.000000000000
      Gh(C)           2.455123448287    -2.834230137155    -0.373381611514    12.000000000000
      Gh(C)          -1.226714334082     3.543468955184    -0.372942337996    12.000000000000
      Gh(C)           4.914517325709     1.427172763923    -0.382821504135    12.000000000000
      Gh(C)           3.693150221984     3.542795183979    -0.382771704499    12.000000000000
      Gh(C)          -2.456437569560    -1.418313389406    -0.389676015087    12.000000000000
      Gh(C)           1.226704872451    -3.543474350473    -0.389015801966    12.000000000000
      Gh(C)          -2.455125368000     2.834216554068    -0.389398367779    12.000000000000
      Gh(C)           4.914524411290    -1.427187018510    -0.379848761401    12.000000000000
      Gh(C)           1.221424644206     4.970133956694    -0.379710327141    12.000000000000
      Gh(C)           4.893008259828     2.825187891460    -0.381604835777    12.000000000000
      Gh(C)          -1.226696977981    -3.543471105643    -0.388748597556    12.000000000000
      Gh(C)          -3.681818946018     0.709324858166    -0.389289506685    12.000000000000
      Gh(C)           3.693147131658    -3.542801449957    -0.379730870840    12.000000000000
      Gh(C)          -1.221432221486     4.970128189296    -0.379526831768    12.000000000000
      Gh(C)           6.134771003434     0.680547838539    -0.382051729586    12.000000000000
      Gh(C)           3.656788911118     4.972953135001    -0.381863066717    12.000000000000
      Gh(C)          -2.455126877226    -2.834215201627    -0.373625969312    12.000000000000
      Gh(C)          -3.681819148553    -0.709325812035    -0.373112081568    12.000000000000
      Gh(C)           4.893012648421    -2.825200214198    -0.380993683881    12.000000000000
      Gh(C)          -0.000001042605     5.650447257466    -0.380758140475    12.000000000000
      Gh(C)           6.134775142840    -0.680554962641    -0.380786409070    12.000000000000
      Gh(C)           2.478131513363     5.653576642765    -0.380574287067    12.000000000000
      Gh(C)           1.221422435245    -4.970127163499    -0.382509824164    12.000000000000
      Gh(C)          -3.693162353457     3.542796845626    -0.382606197040    12.000000000000
      Gh(C)          -1.221428490437    -4.970118412162    -0.382622585996    12.000000000000
      Gh(C)          -4.914521777434     1.427175338429    -0.382744559128    12.000000000000
      Gh(C)           3.656787050187    -4.972955334806    -0.380412566182    12.000000000000
      Gh(C)          -2.478138499598     5.653574313962    -0.380289762058    12.000000000000
      Gh(C)          -3.693141708056    -3.542790327545    -0.379846996996    12.000000000000
      Gh(C)          -4.914512452545    -1.427181108594    -0.379814064227    12.000000000000
      Gh(C)          -0.000005978418    -5.650438395580    -0.381153644597    12.000000000000
      Gh(C)          -4.893020453593     2.825188490353    -0.381614917637    12.000000000000
      Gh(C)           2.478126023806    -5.653573652455    -0.381503166975    12.000000000000
      Gh(C)          -3.656798679750     4.972956073475    -0.381686386342    12.000000000000
      Gh(C)          -4.892999448349    -2.825191875626    -0.381147719579    12.000000000000
      Gh(C)          -2.478128467575    -5.653566278573    -0.381778354622    12.000000000000
      Gh(C)          -6.134770472823     0.680548657690    -0.382077281288    12.000000000000
      Gh(C)          -3.656788802681    -4.972944131537    -0.380626853999    12.000000000000
      Gh(C)          -6.134765012405    -0.680554024048    -0.380806884865    12.000000000000
      Gh(H)           5.835288526324     3.369275786388    -0.377245510114     1.007825032230
      Gh(H)           7.073859203255     1.228217140333    -0.381590086192     1.007825032230
      Gh(H)           4.600663294682     5.512380693887    -0.381357865965     1.007825032230
      Gh(H)           5.835283417813    -3.369306165295    -0.385448151196     1.007825032230
      Gh(H)          -0.000012120798     6.738530565570    -0.385107385483     1.007825032230
      Gh(H)           7.073861202338    -1.228227051310    -0.381295147164     1.007825032230
      Gh(H)           2.473313762307     6.740684182828    -0.381041007997     1.007825032230
      Gh(H)           4.600668521889    -5.512376237742    -0.380822563351     1.007825032230
      Gh(H)          -2.473318650030     6.740681611040    -0.380739661372     1.007825032230
      Gh(H)          -0.000010237720    -6.738528285018    -0.376623959612     1.007825032230
      Gh(H)          -5.835301883836     3.369270841730    -0.377109487966     1.007825032230
      Gh(H)           2.473307954339    -6.740685482995    -0.380932836550     1.007825032230
      Gh(H)          -4.600674810700     5.512377918037    -0.381192537641     1.007825032230
      Gh(H)          -5.835279476327    -3.369289072346    -0.385727457077     1.007825032230
      Gh(H)          -2.473300316932    -6.740679186706    -0.381382153094     1.007825032230
      Gh(H)          -7.073857736260     1.228220364274    -0.381674077673     1.007825032230
      Gh(H)          -4.600673755577    -5.512362778353    -0.380994871374     1.007825032230
      Gh(H)          -7.073856903901    -1.228220740543    -0.381390003630     1.007825032230

  Running in c1 symmetry.

  Rotational constants: A =      0.00197  B =      0.00197  C =      0.00110 [cm^-1]
  Rotational constants: A =     59.17771  B =     59.16935  C =     33.02250 [MHz]
  Nuclear repulsion =  178.879482610381302

  Charge       = -1
  Multiplicity = 1
  Electrons    = 42
  Nalpha       = 21
  Nbeta        = 21

  ==> Algorithm <==

  SCF Algorithm Type is DF.
  DIIS enabled.
  MOM disabled.
  Fractional occupation disabled.
  Guess Type is SAD.
  Energy threshold   = 1.00e-08
  Density threshold  = 1.00e-08
  Integral threshold = 1.00e-12

  ==> Primary Basis <==

  Basis Set: JUN-CC-PVDZ
    Blend: JUN-CC-PVDZ
    Number of shells: 526
    Number of basis functions: 1152
    Number of Cartesian functions: 1211
    Spherical Harmonics?: true
    Max angular momentum: 2

   => Loading Basis Set <=

    Name: (JUN-CC-PVDZ AUX)
    Role: JKFIT
    Keyword: DF_BASIS_SCF
    atoms 1     entry B          line    90 file /opt/software/pc2/EB-SW/software/PSI4/1.9-foss-2022a/share/psi4/basis/jun-cc-pvdz-jkfit.gbs 
    atoms 2-5   entry F          line   314 file /opt/software/pc2/EB-SW/software/PSI4/1.9-foss-2022a/share/psi4/basis/jun-cc-pvdz-jkfit.gbs 
    atoms 6-59  entry C          line   146 file /opt/software/pc2/EB-SW/software/PSI4/1.9-foss-2022a/share/psi4/basis/jun-cc-pvdz-jkfit.gbs 
    atoms 60-77 entry H          line    70 file /opt/software/pc2/EB-SW/software/PSI4/1.9-foss-2022a/share/psi4/basis/jun-cc-pvdz-jkfit.gbs 

  ==> Integral Setup <==

  ==> DiskDFJK: Density-Fitted J/K Matrices <==

    J tasked:                  Yes
    K tasked:                  Yes
    wK tasked:                  No
    OpenMP threads:             16
    Integrals threads:          16
    Memory [MiB]:            34332
    Algorithm:                Core
    Integral Cache:           LOAD
    Schwarz Cutoff:          1E-12
    Fitting Condition:       1E-10

   => Auxiliary Basis Set <=

  Basis Set: (JUN-CC-PVDZ AUX)
    Blend: JUN-CC-PVDZ-JKFIT
    Number of shells: 1755
    Number of basis functions: 5075
    Number of Cartesian functions: 5819
    Spherical Harmonics?: true
    Max angular momentum: 3

  Minimum eigenvalue in the overlap matrix is 3.9753657846E-10.
  Reciprocal condition number of the overlap matrix is 1.6640192567E-11.
    Using canonical orthogonalization.
  Overall, 14 of 1152 possible MOs eliminated.


  ==> Pre-Iterations <==

  SCF Guess: Superposition of Atomic Densities via on-the-fly atomic UHF (no occupation information).

   -------------------------
    Irrep   Nso     Nmo    
   -------------------------
     A       1152    1138 
   -------------------------
    Total    1152    1138
   -------------------------

  ==> Iterations <==

                           Total Energy        Delta E     RMS |[F,P]|

   @DF-RHF iter SAD:  -421.23045521087533   -4.21230e+02   0.00000e+00 
   @DF-RHF iter   1:  -422.65237967891125   -1.42192e+00   5.30813e-04 DIIS/ADIIS
   @DF-RHF iter   2:  -422.73535916968433   -8.29795e-02   3.23989e-04 DIIS/ADIIS
   @DF-RHF iter   3:  -422.77380189883320   -3.84427e-02   1.75328e-05 DIIS
   @DF-RHF iter   4:  -422.77416511538149   -3.63217e-04   2.80150e-06 DIIS
   @DF-RHF iter   5:  -422.77417389805930   -8.78268e-06   7.33576e-07 DIIS
   @DF-RHF iter   6:  -422.77417450859934   -6.10540e-07   1.53532e-07 DIIS
   @DF-RHF iter   7:  -422.77417453186109   -2.32617e-08   3.07317e-08 DIIS
   @DF-RHF iter   8:  -422.77417453235262   -4.91525e-10   9.42410e-09 DIIS
  Energy and wave function converged.


  ==> Post-Iterations <==

    Orbital Energies [Eh]
    ---------------------

    Doubly Occupied:                                                      

       1A    -26.067131     2A    -26.066967     3A    -26.066923  
       4A    -26.066888     5A     -7.538152     6A     -1.410318  
       7A     -1.350944     8A     -1.350680     9A     -1.350406  
      10A     -0.601613    11A     -0.527866    12A     -0.527820  
      13A     -0.527739    14A     -0.446702    15A     -0.446649  
      16A     -0.408096    17A     -0.408000    18A     -0.407975  
      19A     -0.384612    20A     -0.384402    21A     -0.384326  

    Virtual:                                                              

      22A      0.092536    23A      0.093153    24A      0.093430  
      25A      0.099621    26A      0.099647    27A      0.110796  
      28A      0.111441    29A      0.126098    30A      0.126819  
      31A      0.126869    32A      0.136237    33A      0.136746  
      34A      0.144701    35A      0.144721    36A      0.147667  
      37A      0.149510    38A      0.150245    39A      0.151533  
      40A      0.151551    41A      0.162287    42A      0.162295  
      43A      0.163822    44A      0.165954    45A      0.166016  
      46A      0.171171    47A      0.174092    48A      0.179118  
      49A      0.179246    50A      0.182016    51A      0.183311  
      52A      0.183470    53A      0.190170    54A      0.190254  
      55A      0.190681    56A      0.190974    57A      0.196379  
      58A      0.196658    59A      0.201907    60A      0.203192  
      61A      0.203431    62A      0.205734    63A      0.205759  
      64A      0.207474    65A      0.207821    66A      0.208874  
      67A      0.214706    68A      0.214897    69A      0.216734  
      70A      0.217041    71A      0.221043    72A      0.224408  
      73A      0.224447    74A      0.226035    75A      0.226695  
      76A      0.235011    77A      0.235276    78A      0.235541  
      79A      0.238248    80A      0.238654    81A      0.239082  
      82A      0.239089    83A      0.243162    84A      0.246343  
      85A      0.246712    86A      0.247000    87A      0.248936  
      88A      0.251052    89A      0.257767    90A      0.259101  
      91A      0.259117    92A      0.261624    93A      0.265653  
      94A      0.270523    95A      0.270745    96A      0.270770  
      97A      0.275119    98A      0.276618    99A      0.276888  
     100A      0.280269   101A      0.280415   102A      0.282750  
     103A      0.283899   104A      0.285521   105A      0.285741  
     106A      0.285953   107A      0.289621   108A      0.289657  
     109A      0.295589   110A      0.296198   111A      0.301840  
     112A      0.302219   113A      0.305019   114A      0.305583  
     115A      0.310571   116A      0.310895   117A      0.312184  
     118A      0.312601   119A      0.313529   120A      0.316400  
     121A      0.317780   122A      0.322022   123A      0.327145  
     124A      0.327582   125A      0.328346   126A      0.328823  
     127A      0.329332   128A      0.330826   129A      0.331206  
     130A      0.339726   131A      0.340993   132A      0.343438  
     133A      0.343516   134A      0.344892   135A      0.348985  
     136A      0.349868   137A      0.350222   138A      0.354486  
     139A      0.354816   140A      0.355008   141A      0.356176  
     142A      0.358350   143A      0.358504   144A      0.361747  
     145A      0.361990   146A      0.364523   147A      0.369381  
     148A      0.371621   149A      0.383734   150A      0.387809  
     151A      0.387990   152A      0.388558   153A      0.389212  
     154A      0.390172   155A      0.394568   156A      0.394662  
     157A      0.397563   158A      0.403724   159A      0.403861  
     160A      0.404208   161A      0.408883   162A      0.410053  
     163A      0.410132   164A      0.412561   165A      0.412763  
     166A      0.414390   167A      0.419158   168A      0.423606  
     169A      0.429237   170A      0.430485   171A      0.432963  
     172A      0.434713   173A      0.437176   174A      0.439331  
     175A      0.440893   176A      0.442293   177A      0.443253  
     178A      0.444632   179A      0.445155   180A      0.447628  
     181A      0.447730   182A      0.448129   183A      0.448922  
     184A      0.449594   185A      0.450528   186A      0.452372  
     187A      0.455201   188A      0.456656   189A      0.463009  
     190A      0.465048   191A      0.465214   192A      0.466631  
     193A      0.469179   194A      0.471118   195A      0.474826  
     196A      0.478630   197A      0.482859   198A      0.484246  
     199A      0.484953   200A      0.490483   201A      0.491679  
     202A      0.492369   203A      0.499341   204A      0.499868  
     205A      0.501369   206A      0.502096   207A      0.506583  
     208A      0.508759   209A      0.510966   210A      0.513100  
     211A      0.514501   212A      0.514647   213A      0.518832  
     214A      0.519546   215A      0.520348   216A      0.520590  
     217A      0.521412   218A      0.523589   219A      0.525390  
     220A      0.525827   221A      0.526917   222A      0.527143  
     223A      0.528931   224A      0.529880   225A      0.532820  
     226A      0.534548   227A      0.536482   228A      0.537235  
     229A      0.545456   230A      0.551492   231A      0.553613  
     232A      0.555995   233A      0.556223   234A      0.559150  
     235A      0.562718   236A      0.563467   237A      0.563822  
     238A      0.565323   239A      0.566348   240A      0.566883  
     241A      0.568300   242A      0.569340   243A      0.570724  
     244A      0.572526   245A      0.580187   246A      0.581615  
     247A      0.582176   248A      0.590705   249A      0.592606  
     250A      0.592932   251A      0.595606   252A      0.598924  
     253A      0.601511   254A      0.602325   255A      0.603253  
     256A      0.604554   257A      0.605914   258A      0.606116  
     259A      0.608284   260A      0.608779   261A      0.610845  
     262A      0.611411   263A      0.614122   264A      0.614157  
     265A      0.624426   266A      0.632005   267A      0.632905  
     268A      0.633877   269A      0.637431   270A      0.641107  
     271A      0.643297   272A      0.645623   273A      0.648136  
     274A      0.648243   275A      0.648378   276A      0.649551  
     277A      0.650505   278A      0.659036   279A      0.659042  
     280A      0.660896   281A      0.663577   282A      0.664056  
     283A      0.666405   284A      0.668001   285A      0.675573  
     286A      0.677782   287A      0.680332   288A      0.680473  
     289A      0.681375   290A      0.683160   291A      0.686370  
     292A      0.691012   293A      0.691401   294A      0.693451  
     295A      0.694664   296A      0.697518   297A      0.698009  
     298A      0.699594   299A      0.701908   300A      0.706640  
     301A      0.711669   302A      0.714738   303A      0.716544  
     304A      0.721775   305A      0.725297   306A      0.725626  
     307A      0.728121   308A      0.729525   309A      0.736101  
     310A      0.736676   311A      0.739825   312A      0.741832  
     313A      0.743662   314A      0.744736   315A      0.745362  
     316A      0.751397   317A      0.756468   318A      0.758026  
     319A      0.759742   320A      0.764300   321A      0.764919  
     322A      0.767020   323A      0.771873   324A      0.774924  
     325A      0.780717   326A      0.780832   327A      0.783931  
     328A      0.785997   329A      0.787906   330A      0.790201  
     331A      0.794021   332A      0.796975   333A      0.797465  
     334A      0.809879   335A      0.811418   336A      0.811467  
     337A      0.815704   338A      0.822484   339A      0.822859  
     340A      0.824985   341A      0.826926   342A      0.827343  
     343A      0.832060   344A      0.836843   345A      0.837382  
     346A      0.839921   347A      0.844147   348A      0.844265  
     349A      0.846602   350A      0.849288   351A      0.853067  
     352A      0.856661   353A      0.858426   354A      0.860922  
     355A      0.861274   356A      0.869114   357A      0.871211  
     358A      0.872954   359A      0.879941   360A      0.880484  
     361A      0.881226   362A      0.881631   363A      0.884598  
     364A      0.886792   365A      0.887622   366A      0.889331  
     367A      0.890293   368A      0.892853   369A      0.893210  
     370A      0.893977   371A      0.899746   372A      0.907482  
     373A      0.909765   374A      0.914950   375A      0.915995  
     376A      0.922785   377A      0.924892   378A      0.927916  
     379A      0.931685   380A      0.934770   381A      0.937733  
     382A      0.941485   383A      0.943227   384A      0.962673  
     385A      0.969266   386A      0.970940   387A      0.971230  
     388A      0.978915   389A      0.982229   390A      0.986016  
     391A      0.986359   392A      0.987296   393A      0.989063  
     394A      0.990580   395A      0.994193   396A      0.999253  
     397A      1.004031   398A      1.031081   399A      1.038994  
     400A      1.043227   401A      1.045116   402A      1.048985  
     403A      1.056605   404A      1.058114   405A      1.060958  
     406A      1.064366   407A      1.066408   408A      1.072583  
     409A      1.072970   410A      1.083446   411A      1.095155  
     412A      1.095225   413A      1.109240   414A      1.119016  
     415A      1.134578   416A      1.137751   417A      1.147015  
     418A      1.147826   419A      1.150434   420A      1.162352  
     421A      1.164565   422A      1.167491   423A      1.171406  
     424A      1.184649   425A      1.185246   426A      1.186604  
     427A      1.197646   428A      1.249303   429A      1.255881  
     430A      1.256798   431A      1.257665   432A      1.259893  
     433A      1.265863   434A      1.265957   435A      1.274906  
     436A      1.290896   437A      1.291520   438A      1.313701  
     439A      1.313701   440A      1.319956   441A      1.332284  
     442A      1.336937   443A      1.377491   444A      1.394354  
     445A      1.396087   446A      1.398771   447A      1.399886  
     448A      1.400974   449A      1.407927   450A      1.411792  
     451A      1.412999   452A      1.415347   453A      1.426612  
     454A      1.434012   455A      1.454277   456A      1.468568  
     457A      1.468836   458A      1.526307   459A      1.552102  
     460A      1.554716   461A      1.565972   462A      1.566138  
     463A      1.572764   464A      1.574172   465A      1.581927  
     466A      1.584917   467A      1.595133   468A      1.602571  
     469A      1.651565   470A      1.657602   471A      1.659775  
     472A      1.666019   473A      1.668050   474A      1.675791  
     475A      1.682650   476A      1.684847   477A      1.685542  
     478A      1.719386   479A      1.735430   480A      1.736986  
     481A      1.759320   482A      1.760570   483A      1.765261  
     484A      1.768754   485A      1.779856   486A      1.788397  
     487A      1.790278   488A      1.794073   489A      1.802141  
     490A      1.811117   491A      1.824995   492A      1.834930  
     493A      1.836896   494A      1.838592   495A      1.839711  
     496A      1.842508   497A      1.846697   498A      1.850869  
     499A      1.859277   500A      1.864119   501A      1.869776  
     502A      1.873364   503A      1.881495   504A      1.883403  
     505A      1.883896   506A      1.888566   507A      1.889552  
     508A      1.912725   509A      1.914911   510A      1.916314  
     511A      1.916727   512A      1.920210   513A      1.921214  
     514A      1.924546   515A      1.925284   516A      1.930791  
     517A      1.930887   518A      1.932814   519A      1.933350  
     520A      1.937926   521A      1.939033   522A      1.943516  
     523A      1.950295   524A      1.951614   525A      1.963458  
     526A      1.968914   527A      1.975561   528A      1.977545  
     529A      1.978150   530A      1.980983   531A      1.981560  
     532A      1.984445   533A      1.988512   534A      2.000088  
     535A      2.001026   536A      2.006038   537A      2.007850  
     538A      2.010089   539A      2.011164   540A      2.017303  
     541A      2.018359   542A      2.020035   543A      2.021643  
     544A      2.027729   545A      2.028643   546A      2.032881  
     547A      2.033740   548A      2.036321   549A      2.043961  
     550A      2.048494   551A      2.049071   552A      2.056022  
     553A      2.064723   554A      2.065773   555A      2.066811  
     556A      2.068490   557A      2.072456   558A      2.076228  
     559A      2.078116   560A      2.084824   561A      2.086274  
     562A      2.088094   563A      2.090223   564A      2.091413  
     565A      2.092567   566A      2.094846   567A      2.099581  
     568A      2.110275   569A      2.113005   570A      2.118342  
     571A      2.118935   572A      2.128069   573A      2.128410  
     574A      2.138866   575A      2.157314   576A      2.163397  
     577A      2.164213   578A      2.168991   579A      2.170602  
     580A      2.173521   581A      2.178917   582A      2.181179  
     583A      2.182623   584A      2.183010   585A      2.186243  
     586A      2.187484   587A      2.187753   588A      2.191211  
     589A      2.200818   590A      2.204782   591A      2.207189  
     592A      2.215686   593A      2.215795   594A      2.219032  
     595A      2.224275   596A      2.224510   597A      2.226844  
     598A      2.228566   599A      2.229204   600A      2.230765  
     601A      2.234555   602A      2.236015   603A      2.237764  
     604A      2.237789   605A      2.240272   606A      2.240873  
     607A      2.245649   608A      2.246884   609A      2.247305  
     610A      2.247669   611A      2.251504   612A      2.251833  
     613A      2.252043   614A      2.252517   615A      2.254639  
     616A      2.254980   617A      2.259119   618A      2.260247  
     619A      2.264904   620A      2.265360   621A      2.266372  
     622A      2.269807   623A      2.274575   624A      2.277260  
     625A      2.279145   626A      2.279611   627A      2.283913  
     628A      2.284867   629A      2.286275   630A      2.288469  
     631A      2.292713   632A      2.294005   633A      2.296133  
     634A      2.300000   635A      2.302335   636A      2.305945  
     637A      2.317132   638A      2.324874   639A      2.337017  
     640A      2.339254   641A      2.340510   642A      2.343431  
     643A      2.343642   644A      2.347802   645A      2.348768  
     646A      2.353686   647A      2.355616   648A      2.357349  
     649A      2.363353   650A      2.368688   651A      2.369171  
     652A      2.369817   653A      2.372747   654A      2.372909  
     655A      2.373513   656A      2.374857   657A      2.378994  
     658A      2.386292   659A      2.387805   660A      2.392161  
     661A      2.394622   662A      2.399782   663A      2.400789  
     664A      2.403921   665A      2.407109   666A      2.414568  
     667A      2.420840   668A      2.428681   669A      2.429174  
     670A      2.435774   671A      2.438283   672A      2.451434  
     673A      2.451786   674A      2.453381   675A      2.457055  
     676A      2.459188   677A      2.461438   678A      2.467085  
     679A      2.469690   680A      2.470493   681A      2.470690  
     682A      2.470860   683A      2.473113   684A      2.473316  
     685A      2.478131   686A      2.481157   687A      2.492038  
     688A      2.492779   689A      2.495574   690A      2.496640  
     691A      2.499554   692A      2.502022   693A      2.503932  
     694A      2.506358   695A      2.514909   696A      2.516951  
     697A      2.518376   698A      2.519387   699A      2.538389  
     700A      2.538737   701A      2.550627   702A      2.558621  
     703A      2.559848   704A      2.560882   705A      2.565854  
     706A      2.567044   707A      2.567481   708A      2.571731  
     709A      2.574372   710A      2.577062   711A      2.578180  
     712A      2.584931   713A      2.585108   714A      2.593736  
     715A      2.596317   716A      2.597643   717A      2.599361  
     718A      2.599453   719A      2.601031   720A      2.605783  
     721A      2.613341   722A      2.616755   723A      2.622149  
     724A      2.631087   725A      2.634393   726A      2.636080  
     727A      2.647163   728A      2.648756   729A      2.649268  
     730A      2.654336   731A      2.656999   732A      2.657942  
     733A      2.659702   734A      2.661993   735A      2.662026  
     736A      2.665895   737A      2.671448   738A      2.673684  
     739A      2.678459   740A      2.698683   741A      2.701509  
     742A      2.715735   743A      2.718121   744A      2.719464  
     745A      2.722437   746A      2.724883   747A      2.724981  
     748A      2.726546   749A      2.732584   750A      2.732803  
     751A      2.744087   752A      2.744847   753A      2.748398  
     754A      2.750191   755A      2.751418   756A      2.752554  
     757A      2.757106   758A      2.765388   759A      2.769228  
     760A      2.770983   761A      2.781791   762A      2.782082  
     763A      2.784409   764A      2.791919   765A      2.794506  
     766A      2.797865   767A      2.801313   768A      2.807709  
     769A      2.808369   770A      2.810985   771A      2.814350  
     772A      2.816967   773A      2.818194   774A      2.827321  
     775A      2.832683   776A      2.833464   777A      2.842046  
     778A      2.848996   779A      2.850845   780A      2.852645  
     781A      2.855104   782A      2.862118   783A      2.867585  
[...]
     730A      1.464665   731A      1.465872   732A      1.467147  
     733A      1.479112   734A      1.481041   735A      1.491650  
     736A      1.493361   737A      1.516460   738A      1.522438  
     739A      1.523551   740A      1.524893   741A      1.535711  
     742A      1.544633   743A      1.552526   744A      1.591399  
     745A      1.604516   746A      1.607108   747A      1.608697  
     748A      1.614124   749A      1.615097   750A      1.617922  
     751A      1.625028   752A      1.627213   753A      1.631051  
     754A      1.631851   755A      1.632778   756A      1.640567  
     757A      1.641404   758A      1.643697   759A      1.645413  
     760A      1.648780   761A      1.656881   762A      1.659562  
     763A      1.661660   764A      1.661697   765A      1.667976  
     766A      1.669507   767A      1.674192   768A      1.675689  
     769A      1.678965   770A      1.679291   771A      1.681445  
     772A      1.687026   773A      1.688341   774A      1.690349  
     775A      1.692194   776A      1.694841   777A      1.699504  
     778A      1.700215   779A      1.701484   780A      1.705494  
     781A      1.706690   782A      1.717293   783A      1.725035  
     784A      1.727713   785A      1.730968   786A      1.744579  
     787A      1.745656   788A      1.754312   789A      1.759378  
     790A      1.761235   791A      1.762083   792A      1.762791  
     793A      1.777996   794A      1.778594   795A      1.781585  
     796A      1.793229   797A      1.811012   798A      1.813254  
     799A      1.813615   800A      1.820985   801A      1.825303  
     802A      1.826476   803A      1.831112   804A      1.832882  
     805A      1.842708   806A      1.843632   807A      1.845763  
     808A      1.852409   809A      1.854166   810A      1.860398  
     811A      1.868767   812A      1.868995   813A      1.870897  
     814A      1.873976   815A      1.875035   816A      1.881438  
     817A      1.883585   818A      1.884135   819A      1.886018  
     820A      1.891065   821A      1.899215   822A      1.899637  
     823A      1.906403   824A      1.908533   825A      1.909646  
     826A      1.912516   827A      1.916224   828A      1.918289  
     829A      1.919253   830A      1.919329   831A      1.923362  
     832A      1.923773   833A      1.924403   834A      1.926532  
     835A      1.941864   836A      1.944337   837A      1.945047  
     838A      1.946802   839A      1.948721   840A      1.948778  
     841A      1.955786   842A      1.958232   843A      1.960280  
     844A      1.966474   845A      1.971996   846A      1.982594  
     847A      1.986696   848A      1.996468   849A      1.997495  
     850A      2.000020   851A      2.000875   852A      2.006162  
     853A      2.011761   854A      2.016099   855A      2.016498  
     856A      2.018228   857A      2.030276   858A      2.031540  
     859A      2.032827   860A      2.033693   861A      2.034877  
     862A      2.040435   863A      2.046718   864A      2.049735  
     865A      2.055101   866A      2.056316   867A      2.060307  
     868A      2.066292   869A      2.066548   870A      2.070604  
     871A      2.074428   872A      2.078138   873A      2.079660  
     874A      2.080857   875A      2.082192   876A      2.085984  
     877A      2.093597   878A      2.094093   879A      2.095877  
     880A      2.097832   881A      2.100591   882A      2.102320  
     883A      2.105126   884A      2.105536   885A      2.107594  
     886A      2.108769   887A      2.110078   888A      2.111499  
     889A      2.116054   890A      2.119531   891A      2.120276  
     892A      2.121968   893A      2.122868   894A      2.125123  
     895A      2.127700   896A      2.129729   897A      2.131657  
     898A      2.134658   899A      2.134780   900A      2.136862  
     901A      2.140022   902A      2.144184   903A      2.147164  
     904A      2.147732   905A      2.164209   906A      2.164666  
     907A      2.167424   908A      2.169524   909A      2.176467  
     910A      2.178360   911A      2.179803   912A      2.180487  
     913A      2.193309   914A      2.194112   915A      2.196034  
     916A      2.197052   917A      2.202007   918A      2.203728  
     919A      2.205324   920A      2.219913   921A      2.221789  
     922A      2.228512   923A      2.234392   924A      2.238233  
     925A      2.239554   926A      2.244041   927A      2.244402  
     928A      2.245868   929A      2.248356   930A      2.248452  
     931A      2.251560   932A      2.260928   933A      2.261773  
     934A      2.270258   935A      2.270648   936A      2.272841  
     937A      2.273936   938A      2.281397   939A      2.301194  
     940A      2.307632   941A      2.316949   942A      2.318498  
     943A      2.326443   944A      2.331260   945A      2.332998  
     946A      2.334587   947A      2.339500   948A      2.344039  
     949A      2.351913   950A      2.353598   951A      2.354008  
     952A      2.356843   953A      2.367210   954A      2.371016  
     955A      2.375907   956A      2.383531   957A      2.400542  
     958A      2.416840   959A      2.424577   960A      2.424810  
     961A      2.424871   962A      2.436613   963A      2.442319  
     964A      2.445035   965A      2.472024   966A      2.475787  
     967A      2.482648   968A      2.487878   969A      2.490861  
     970A      2.506661   971A      2.523404   972A      2.530603  
     973A      2.542305   974A      2.547501   975A      2.548425  
     976A      2.551283   977A      2.554960   978A      2.555136  
     979A      2.555698   980A      2.560420   981A      2.560590  
     982A      2.573365   983A      2.573392   984A      2.576943  
     985A      2.577697   986A      2.586547   987A      2.590377  
     988A      2.592007   989A      2.594511   990A      2.596841  
     991A      2.610100   992A      2.624718   993A      2.628435  
     994A      2.634140   995A      2.635005   996A      2.636357  
     997A      2.643016   998A      2.644386   999A      2.654294  
    1000A      2.656398  1001A      2.663238  1002A      2.685088  
    1003A      2.686424  1004A      2.688356  1005A      2.697996  
    1006A      2.709267  1007A      2.713379  1008A      2.713400  
    1009A      2.714916  1010A      2.719266  1011A      2.720652  
    1012A      2.725230  1013A      2.733674  1014A      2.755375  
    1015A      2.755967  1016A      2.762093  1017A      2.780000  
    1018A      2.796586  1019A      2.796800  1020A      2.820423  
    1021A      2.827897  1022A      2.828865  1023A      2.841436  
    1024A      2.853879  1025A      2.855470  1026A      2.856515  
    1027A      2.858628  1028A      2.860751  1029A      2.864147  
    1030A      2.877450  1031A      2.918491  1032A      2.919325  
    1033A      2.926187  1034A      2.927580  1035A      2.932442  
    1036A      2.937422  1037A      2.943947  1038A      2.954078  
    1039A      2.963661  1040A      2.978223  1041A      3.010863  
    1042A      3.015790  1043A      3.022866  1044A      3.048474  
    1045A      3.064653  1046A      3.065340  1047A      3.074014  
    1048A      3.077239  1049A      3.117563  1050A      3.120018  
    1051A      3.133850  1052A      3.135072  1053A      3.141039  
    1054A      3.142827  1055A      3.147787  1056A      3.148010  
    1057A      3.150202  1058A      3.150677  1059A      3.155207  
    1060A      3.162235  1061A      3.165951  1062A      3.167926  
    1063A      3.170544  1064A      3.192115  1065A      3.211444  
    1066A      3.223140  1067A      3.248289  1068A      3.278108  
    1069A      3.281335  1070A      3.286776  1071A      3.290909  
    1072A      3.296783  1073A      3.419571  1074A      3.423760  
    1075A      3.487402  1076A      3.491494  1077A      3.539590  
    1078A      3.561333  1079A      3.586078  1080A      3.618212  
    1081A      3.621624  1082A      3.630169  1083A      3.638199  
    1084A      3.666238  1085A      3.698861  1086A      3.784190  
    1087A      3.790977  1088A      3.817449  1089A      3.871734  
    1090A      3.872041  1091A      3.914498  1092A      3.915589  
    1093A      3.979547  1094A      4.011480  1095A      4.065219  
    1096A      4.073193  1097A      4.122089  1098A      4.285408  
    1099A      4.444498  1100A      4.554821  1101A      4.580675  
    1102A      5.758753  1103A      5.759910  1104A      5.770408  
    1105A      5.775971  1106A      5.778508  1107A      5.780535  
    1108A      5.799875  1109A      5.818515  1110A      5.824867  
    1111A      5.829311  1112A      5.848551  1113A      6.035697  
    1114A      6.039727  1115A      6.049594  1116A      6.216398  
    1117A      6.337955  1118A      6.339557  1119A      6.395463  
    1120A      6.397440  1121A      6.397594  1122A      7.259134  
    1123A      7.309512  1124A      7.333307  1125A      7.348493  
    1126A      7.493488  1127A      7.509017  1128A      7.533754  
    1129A      7.559556  1130A      7.564856  1131A      7.621597  
    1132A      7.787722  1133A      7.860944  1134A     12.769985  
    1135A     42.930022  1136A     42.956967  1137A     42.982859  
    1138A     42.984734  

    Final Occupation by Irrep:
              A 
    DOCC [   171 ]
    NA   [   171 ]
    NB   [   171 ]

  @DF-RHF Final Energy: -2055.89397740938603

   => Energetics <=

    Nuclear Repulsion Energy =           6452.5568002797781446
    One-Electron Energy =              -15636.4876962422968063
    Two-Electron Energy =                7128.0369185531335461
    Total Energy =                      -2055.8939774093860251

Computation Completed


Properties will be evaluated at   0.000000,   0.000000,   0.000000 [a0]

Properties computed using the SCF density matrix


 Multipole Moments:

 ------------------------------------------------------------------------------------
     Multipole            Electronic (a.u.)      Nuclear  (a.u.)        Total (a.u.)
 ------------------------------------------------------------------------------------

 L = 1.  Multiply by 2.5417464519 to convert [e a0] to [Debye]
 Dipole X            :          0.0000593            0.0000112            0.0000705
 Dipole Y            :          0.0002678           -0.0000531            0.0002147
 Dipole Z            :        246.3741851         -246.3739615            0.0002236
 Magnitude           :                                                    0.0003179

 ------------------------------------------------------------------------------------

*** tstop() called on n2cn0629 at Wed Feb  7 16:20:51 2024
Module time:
	user time   =    2537.45 seconds =      42.29 minutes
	system time =      95.21 seconds =       1.59 minutes
	total time  =        208 seconds =       3.47 minutes
Total time:
	user time   =    7428.80 seconds =     123.81 minutes
	system time =     331.47 seconds =       5.52 minutes
	total time  =        646 seconds =      10.77 minutes
  Constructing Basis Sets for SAPT...

   => Loading Basis Set <=

    Name: (JUN-CC-PVDZ AUX)
    Role: RIFIT
    Keyword: DF_BASIS_SAPT
    atoms 1     entry B          line    56 file /opt/software/pc2/EB-SW/software/PSI4/1.9-foss-2022a/share/psi4/basis/jun-cc-pvdz-ri.gbs 
    atoms 2-5   entry F          line   232 file /opt/software/pc2/EB-SW/software/PSI4/1.9-foss-2022a/share/psi4/basis/jun-cc-pvdz-ri.gbs 
    atoms 6-59  entry C          line   100 file /opt/software/pc2/EB-SW/software/PSI4/1.9-foss-2022a/share/psi4/basis/jun-cc-pvdz-ri.gbs 
    atoms 60-77 entry H          line    30 file /opt/software/pc2/EB-SW/software/PSI4/1.9-foss-2022a/share/psi4/basis/jun-cc-pvdz-ri.gbs 

   => Loading Basis Set <=

    Name: (JUN-CC-PVDZ AUX)
    Role: JKFIT
    Keyword: DF_BASIS_ELST
    atoms 1     entry B          line    90 file /opt/software/pc2/EB-SW/software/PSI4/1.9-foss-2022a/share/psi4/basis/jun-cc-pvdz-jkfit.gbs 
    atoms 2-5   entry F          line   314 file /opt/software/pc2/EB-SW/software/PSI4/1.9-foss-2022a/share/psi4/basis/jun-cc-pvdz-jkfit.gbs 
    atoms 6-59  entry C          line   146 file /opt/software/pc2/EB-SW/software/PSI4/1.9-foss-2022a/share/psi4/basis/jun-cc-pvdz-jkfit.gbs 
    atoms 60-77 entry H          line    70 file /opt/software/pc2/EB-SW/software/PSI4/1.9-foss-2022a/share/psi4/basis/jun-cc-pvdz-jkfit.gbs 


  //>>>>>>>>>>>>>>>>>>>>>>>>>>>>>>>>>>>//
  //               SSAPT0              //
  //<<<<<<<<<<<<<<<<<<<<<<<<<<<<<<<<<<<//


*** tstart() called on n2cn0629
*** at Wed Feb  7 16:20:52 2024

        SAPT0  
    Ed Hohenstein
     6 June 2009

      Orbital Information
  --------------------------
    NSO        =      1152
    NMO        =      1138
    NRI        =      4087
    NRI (Elst) =      5075
    NOCC A     =        21
    NOCC B     =       171
    FOCC A     =         5
    FOCC B     =        54
    NVIR A     =      1117
    NVIR B     =       967

    Elst10,r            =    -0.007616803854 [Eh]
    Exch10              =     0.050701300543 [Eh]
    Exch10 (S^2)        =     0.050290480641 [Eh]

    Iter     Energy [mEh]          dE [mEh]         Residual      Time [s]
       1      -5.80077084       5.800770843      14.408344552           251
       2      -7.24650460       1.445733760       6.287932437           270
       3      -7.45788199       0.211377385       0.993996387           287
       4      -7.43390013      -0.023981858       0.307656403           303
       5      -7.43188161      -0.002018526       0.074222635           318
       6      -7.43260913       0.000727524       0.022056460           345
       7      -7.43286936       0.000260228       0.004348654           366
       8      -7.43280452      -0.000064839       0.000675615           385
       9      -7.43281079       0.000006270       0.000109026           406
      10      -7.43281024      -0.000000545       0.000020632           426
      11      -7.43281024      -0.000000004       0.000003810           446
      12      -7.43281026       0.000000017       0.000001252           467
      13      -7.43281026       0.000000001       0.000000333           489

    CHF Iterations converged


    Iter     Energy [mEh]          dE [mEh]         Residual      Time [s]
       1     -39.82743449      39.827434489      92.487543387            17
       2     -30.58788130      -9.239553187      13.058298910            33
       3     -31.19013251       0.602251206       5.193164525            49
       4     -31.91150645       0.721373939       1.184930563            65
       5     -31.91970778       0.008201334       0.434974083            80
       6     -31.88533807      -0.034369715       0.156887653            96
       7     -31.88525317      -0.000084897       0.076476027           113
       8     -31.88953539       0.004282219       0.034154143           129
       9     -31.88993368       0.000398292       0.017205074           145
      10     -31.88910386      -0.000829820       0.010280751           161
      11     -31.88906954      -0.000034322       0.006530378           177
      12     -31.88927220       0.000202659       0.003339325           193
      13     -31.88928856       0.000016359       0.001569243           208
      14     -31.88924305      -0.000045506       0.000924689           224
      15     -31.88924150      -0.000001554       0.000432226           239
      16     -31.88925110       0.000009601       0.000192855           255
      17     -31.88925239       0.000001294       0.000071432           270
      18     -31.88925088      -0.000001514       0.000030321           284
      19     -31.88925055      -0.000000325       0.000016199           299
      20     -31.88925073       0.000000175       0.000007378           315
      21     -31.88925088       0.000000151       0.000002977           331
      22     -31.88925085      -0.000000030       0.000001230           344
      23     -31.88925082      -0.000000023       0.000000519           358

    CHF Iterations converged

    Ind20,r (A<-B)      =    -0.007432810256 [Eh]
    Ind20,r (B<-A)      =    -0.031889250825 [Eh]
    Ind20,r             =    -0.039322061081 [Eh]
    Exch-Ind20,r (A<-B) =     0.006795093425 [Eh]
    Exch-Ind20,r (B<-A) =     0.013672739507 [Eh]
    Exch-Ind20,r        =     0.020467832932 [Eh]
    Disp20              =    -0.023084249503 [Eh]
    Disp20 (SS)         =    -0.011542124752 [Eh]
    Disp20 (OS)         =    -0.011542124752 [Eh]
    Exch-Disp20         =     0.005052794123 [Eh]
    Exch-Disp20 (SS)    =     0.002768676202 [Eh]
    Exch-Disp20 (OS)    =     0.002284117920 [Eh]

    SAPT Results 
  --------------------------------------------------------------------------------------------------------
    Electrostatics                 -7.61680385 [mEh]      -4.77961658 [kcal/mol]     -19.99791576 [kJ/mol]
      Elst10,r                     -7.61680385 [mEh]      -4.77961658 [kcal/mol]     -19.99791576 [kJ/mol]

    Exchange                       50.70130054 [mEh]      31.81554642 [kcal/mol]     133.11624624 [kJ/mol]
      Exch10                       50.70130054 [mEh]      31.81554642 [kcal/mol]     133.11624624 [kJ/mol]
      Exch10(S^2)                  50.29048064 [mEh]      31.55775304 [kcal/mol]     132.03763873 [kJ/mol]

    Induction                     -22.75428251 [mEh]     -14.27852784 [kcal/mol]     -59.74136049 [kJ/mol]
      Ind20,r                     -39.32206108 [mEh]     -24.67496586 [kcal/mol]    -103.24005714 [kJ/mol]
      Exch-Ind20,r                 20.46783293 [mEh]      12.84375907 [kcal/mol]      53.73828796 [kJ/mol]
      delta HF,r (2)               -3.90005436 [mEh]      -2.44732106 [kcal/mol]     -10.23959130 [kJ/mol]

    Dispersion                    -18.03145538 [mEh]     -11.31490908 [kcal/mol]     -47.34157958 [kJ/mol]
      Disp20                      -23.08424950 [mEh]     -14.48558526 [kcal/mol]     -60.60768872 [kJ/mol]
      Exch-Disp20                   5.05279412 [mEh]       3.17067618 [kcal/mol]      13.26610914 [kJ/mol]
      Disp20 (SS)                 -11.54212475 [mEh]      -7.24279263 [kcal/mol]     -30.30384436 [kJ/mol]
      Disp20 (OS)                 -11.54212475 [mEh]      -7.24279263 [kcal/mol]     -30.30384436 [kJ/mol]
      Exch-Disp20 (SS)              2.76867620 [mEh]       1.73737055 [kcal/mol]       7.26915837 [kJ/mol]
      Exch-Disp20 (OS)              2.28411792 [mEh]       1.43330563 [kcal/mol]       5.99695077 [kJ/mol]

  Total HF                         20.33021418 [mEh]      12.75740200 [kcal/mol]      53.37696998 [kJ/mol]
  Total SAPT0                       2.29875880 [mEh]       1.44249293 [kcal/mol]       6.03539040 [kJ/mol]

  Special recipe for scaled SAPT0 (see Manual):
    Electrostatics sSAPT0          -7.61680385 [mEh]      -4.77961658 [kcal/mol]     -19.99791576 [kJ/mol]
    Exchange sSAPT0                50.70130054 [mEh]      31.81554642 [kcal/mol]     133.11624624 [kJ/mol]
    Induction sSAPT0              -22.24857232 [mEh]     -13.96118991 [kcal/mol]     -58.41361858 [kJ/mol]
    Dispersion sSAPT0             -17.90661317 [mEh]     -11.23656941 [kcal/mol]     -47.01380641 [kJ/mol]
  Total sSAPT0                      2.92931120 [mEh]       1.83817053 [kcal/mol]       7.69090549 [kJ/mol]
  --------------------------------------------------------------------------------------------------------

*** tstop() called on n2cn0629 at Wed Feb  7 16:52:18 2024
Module time:
	user time   =    8769.94 seconds =     146.17 minutes
	system time =     987.78 seconds =      16.46 minutes
	total time  =       1886 seconds =      31.43 minutes
Total time:
	user time   =   16199.45 seconds =     269.99 minutes
	system time =    1319.25 seconds =      21.99 minutes
	total time  =       2533 seconds =      42.22 minutes

    Psi4 stopped on: Wednesday, 07 February 2024 04:52PM
    Psi4 wall time for execution: 0:42:13.69

*** Psi4 exiting successfully. Buy a developer a beer!
