
    -----------------------------------------------------------------------
          Psi4: An Open-Source Ab Initio Electronic Structure Package
                               Psi4 1.9 release

                         Git: Rev {} zzzzzzz 


    D. G. A. Smith, L. A. Burns, A. C. Simmonett, R. M. Parrish,
    M. C. Schieber, R. Galvelis, P. Kraus, H. Kruse, R. Di Remigio,
    A. Alenaizan, A. M. James, S. Lehtola, J. P. Misiewicz, M. Scheurer,
    R. A. Shaw, J. B. Schriber, Y. Xie, Z. L. Glick, D. A. Sirianni,
    J. S. O'Brien, J. M. Waldrop, A. Kumar, E. G. Hohenstein,
    B. P. Pritchard, B. R. Brooks, H. F. Schaefer III, A. Yu. Sokolov,
    K. Patkowski, A. E. DePrince III, U. Bozkaya, R. A. King,
    F. A. Evangelista, J. M. Turney, T. D. Crawford, C. D. Sherrill,
    J. Chem. Phys. 152(18) 184108 (2020). https://doi.org/10.1063/5.0006002

                            Additional Code Authors
    E. T. Seidl, C. L. Janssen, E. F. Valeev, M. L. Leininger,
    J. F. Gonthier, R. M. Richard, H. R. McAlexander, M. Saitow, X. Wang,
    P. Verma, M. H. Lechner, A. Jiang, S. Behnle, A. G. Heide,
    M. F. Herbst, and D. L. Poole

             Previous Authors, Complete List of Code Contributors,
                       and Citations for Specific Modules
    https://github.com/psi4/psi4/blob/master/codemeta.json
    https://github.com/psi4/psi4/graphs/contributors
    http://psicode.org/psi4manual/master/introduction.html#citing-psifour

    -----------------------------------------------------------------------


    Psi4 started on: Monday, 22 January 2024 10:31PM

    Process ID: 1885625
    Host:       d-16-7-4
    PSIDATADIR: /home/gridsan/tfroembgen/.conda/envs/psi4test/share/psi4
    Memory:     500.0 MiB
    Threads:    12
    
  ==> Input File <==

--------------------------------------------------------------------------
memory 32 GB # how much memory is available ! Depends on the nodes/cores !

molecule dimer {
# monomer A
+1 1    # Charge and multiplicity
C  0.680067 1.417258 -10.415929
C -0.680504 1.419286 -10.415545
N -1.085635 1.420284  -9.097221
C  0.000108 1.423560  -8.315820
C -2.477365 1.469690  -8.629242
N  1.085222 1.420284  -9.097221
H  1.385146 1.409430 -11.233368
H -1.385302 1.419096 -11.233214
H -0.000009 1.425307  -7.234731
C  2.478117 1.403392  -8.632123
H  2.490592 1.430737  -7.541870
H  2.967028 0.489946  -8.979299
H  3.001428 2.278875  -9.023595
H -2.857359 2.491761  -8.709201
H -3.082679 0.799606  -9.242306
H -2.518128 1.142706  -7.589294
--
# monomer B
0 1     # Charge and multiplicity
C   1.22531237526482      0.70753866091955      0.00613762728373
C   1.22532433589282     -0.70753852257020     -0.00619318228664
C   -0.00000567409046      1.41496628609039     -0.00672680580738
C   2.45644923379077      1.41832825917820      0.00902448468363
C   0.00001130712078     -1.41497612663474      0.00347275151708
C   -1.22530046906674      0.70754574598412      0.00838914760619
C   2.45643823516184     -1.41832293188077     -0.00843833914343
C   -0.00000085313587      2.83680140328112     -0.00913035594137
C   3.68182717731192      0.70931832800114     -0.00808954934571
C   2.45512052870677      2.83422403348893     -0.00819210630633
C   3.68182158506039     -0.70933346742900      0.00798293467272
C   -1.22531311884624     -0.70752714354401     -0.00512042085974
C   1.22670006104402      3.54346985599427      0.00816696660346
C   0.00000526469929     -2.83678176723568      0.00832091913869
C   -2.45643555300670      1.41831729028492      0.00842454345199
C   2.45512389762097     -2.83422965658853      0.00783102630520
C   -1.22671388474763      3.54346943575023      0.00827029982280
C   4.91451777504333      1.42717324448953     -0.00160886631602
C   3.69315067131765      3.54279566454522     -0.00155906667985
C   -2.45643712022637     -1.41831290883911     -0.00846337726810
C   1.22670532178455     -3.54347386990643     -0.00780316414624
C   -2.45512491866593      2.83421703463423     -0.00818572995999
C   4.91452486062398     -1.42718653794377      0.00136387641845
C   1.22142509354026      4.97013443726031      0.00150231067809
C   4.89300870916237      2.82518837202648     -0.00039219795739
C   -1.22669652864725     -3.54347062507680     -0.00753595973677
C   -3.68181849668397      0.70932533873199     -0.00807686886569
C   3.69314758099218     -3.54280096939050      0.00148176697923
C   -1.22143177215231      4.97012866986289      0.00168580605083
C   6.13477145276790      0.68054831910577     -0.00083909176631
C   3.65678936045204      4.97295361556775     -0.00065042889723
C   -2.45512642789169     -2.83421472106065      0.00758666850712
C   -3.68181869921921     -0.70932533146830      0.00810055625144
C   4.89301309775526     -2.82519973363176      0.00021895393805
C   -0.00000059327114      5.65044773803267      0.00045449734393
C   6.13477559217374     -0.68055448207492      0.00042622874941
C   2.47813196269732      5.65357712333155      0.00063835075260
C   1.22142288457925     -4.97012668293268     -0.00129718634452
C   -3.69316190412301      3.54279732619245     -0.00139355922051
C   -1.22142804110313     -4.97011793159564     -0.00140994817719
C   -4.91452132810043      1.42717581899491     -0.00153192130862
C   3.65678749952045     -4.97295485423912      0.00080007163680
C   -2.47813805026426      5.65357479452875      0.00092287576113
C   -3.69314125872231     -3.54278984697859      0.00136564082345
C   -4.91451200321153     -1.42718062802730      0.00139857359209
C   -0.00000552908399     -5.65043791501335      0.00005899322272
C   -4.89302000425900      2.82518897091939     -0.00040227981744
C   2.47812647313991     -5.65357317188818     -0.00029052915548
C   -3.65679823041642      4.97295655404175     -0.00047374852278
C   -4.89299899901461     -2.82519139505969      0.00006491824035
C   -2.47812801824129     -5.65356579800621     -0.00056571680280
C   -6.13477002348955      0.68054913825639     -0.00086464346868
C   -3.65678835334731     -4.97294365097028      0.00058578382008
C   -6.13476456307132     -0.68055354348201      0.00040575295444
H   5.83528897565761      3.36927626695423      0.00396712770529
H   7.07385965258860      1.22821762089947     -0.00037744837300
H   4.60066374401555      5.51238117445323     -0.00014522814529
H   5.83528386714679     -3.36930568472863     -0.00423551337640
H   -0.00001167146422      6.73853104613662     -0.00389474766392
H   7.07386165167227     -1.22822657074368     -0.00008250934481
H   2.47331421164041      6.74068466339473      0.00017162982210
H   4.60066897122302     -5.51237575717576      0.00039007446835
H   -2.47331820069565      6.74068209160650      0.00047297644710
H   -0.00000978838621     -6.73852780445195      0.00458867820736
H   -5.83530143450167      3.36927132229595      0.00410314985360
H   2.47330840367253     -6.74068500242887      0.00027980126949
H   -4.60067436136587      5.51237839860371      0.00002010017831
H   -5.83527902699321     -3.36928859177951     -0.00451481925734
H   -2.47329986759855     -6.74067870613986     -0.00016951527498
H   -7.07385728692578      1.22822084484047     -0.00046143985387
H   -4.60067330624313     -5.51236229778631      0.00021776644566
H   -7.07385645456741     -1.22822025997701     -0.00017736581114

    units angstrom      # Angstroms are the default
    no_reorient         # Geometry fixed, default
    symmetry c1         # C1 symmetry, default
}

set {
    scf_type DF         # Density fitting, faster than exact integrals
    freeze_core True    # Freeze core electrons
    basis jun-cc-pVDZ   # Jun-cc-pVDZ basis set, recommended for sSAPT0 in https://doi.org/10.1063/1.4867135
}

energy('ssapt0')        # Compute sSAPT0 energy, includes also SAPT0
--------------------------------------------------------------------------

  Memory set to  29.802 GiB by Python driver.

Scratch directory: /state/partition1/slurm_tmp/24798319.4294967291.0/
   => Loading Basis Set <=

    Name: JUN-CC-PVDZ
    Role: ORBITAL
    Keyword: BASIS
    atoms 1-2, 4-5, 10, 17-70 entry C          line   164 file /home/gridsan/tfroembgen/.conda/envs/psi4test/share/psi4/basis/jun-cc-pvdz.gbs 
    atoms 3, 6                entry N          line   198 file /home/gridsan/tfroembgen/.conda/envs/psi4test/share/psi4/basis/jun-cc-pvdz.gbs 
    atoms 7-9, 11-16, 71-88   entry H          line    36 file /home/gridsan/tfroembgen/.conda/envs/psi4test/share/psi4/basis/jun-cc-pvdz.gbs 

   => Loading Basis Set <=

    Name: JUN-CC-PVDZ
    Role: ORBITAL
    Keyword: BASIS
    atoms 1-2, 4-5, 10, 17-70 entry C          line   164 file /home/gridsan/tfroembgen/.conda/envs/psi4test/share/psi4/basis/jun-cc-pvdz.gbs 
    atoms 3, 6                entry N          line   198 file /home/gridsan/tfroembgen/.conda/envs/psi4test/share/psi4/basis/jun-cc-pvdz.gbs 
    atoms 7-9, 11-16, 71-88   entry H          line    36 file /home/gridsan/tfroembgen/.conda/envs/psi4test/share/psi4/basis/jun-cc-pvdz.gbs 


  //>>>>>>>>>>>>>>>>>>>>>>>>>>>>>>>>>>>//
  //              Dimer HF             //
  //<<<<<<<<<<<<<<<<<<<<<<<<<<<<<<<<<<<//

   => Libint2 <=

    Primary   basis highest AM E, G, H:  7, 7, 4
    Auxiliary basis highest AM E, G, H:  7, 7, 5
    Onebody   basis highest AM E, G, H:  7, 7, 5
    Solid Harmonics ordering:            gaussian

*** tstart() called on d-16-7-4
*** at Mon Jan 22 22:31:13 2024

   => Loading Basis Set <=

    Name: JUN-CC-PVDZ
    Role: ORBITAL
    Keyword: BASIS
    atoms 1-2, 4-5, 10, 17-70 entry C          line   164 file /home/gridsan/tfroembgen/.conda/envs/psi4test/share/psi4/basis/jun-cc-pvdz.gbs 
    atoms 3, 6                entry N          line   198 file /home/gridsan/tfroembgen/.conda/envs/psi4test/share/psi4/basis/jun-cc-pvdz.gbs 
    atoms 7-9, 11-16, 71-88   entry H          line    36 file /home/gridsan/tfroembgen/.conda/envs/psi4test/share/psi4/basis/jun-cc-pvdz.gbs 


         ---------------------------------------------------------
                                   SCF
               by Justin Turney, Rob Parrish, Andy Simmonett
                          and Daniel G. A. Smith
                              RHF Reference
                       12 Threads,  30517 MiB Core
         ---------------------------------------------------------

  ==> Geometry <==

    Molecular point group: c1
    Full point group: C1

    Geometry (in Angstrom), charge = 1, multiplicity = 1:

       Center              X                  Y                   Z               Mass       
    ------------   -----------------  -----------------  -----------------  -----------------
         C            0.680066520158     1.235968212970    -9.245747719448    12.000000000000
         C           -0.680504479842     1.237996212970    -9.245363719448    12.000000000000
         N           -1.085635479842     1.238994212970    -7.927039719448    14.003074004430
         C            0.000107520158     1.242270212970    -7.145638719448    12.000000000000
         C           -2.477365479842     1.288400212970    -7.459060719448    12.000000000000
         N            1.085221520158     1.238994212970    -7.927039719448    14.003074004430
         H            1.385145520158     1.228140212970   -10.063186719448     1.007825032230
         H           -1.385302479842     1.237806212970   -10.063032719448     1.007825032230
         H           -0.000009479842     1.244017212970    -6.064549719448     1.007825032230
         C            2.478116520158     1.222102212970    -7.461941719448    12.000000000000
         H            2.490591520158     1.249447212970    -6.371688719448     1.007825032230
         H            2.967027520158     0.308656212970    -7.809117719448     1.007825032230
         H            3.001427520158     2.097585212970    -7.853413719448     1.007825032230
         H           -2.857359479842     2.310471212970    -7.539019719448     1.007825032230
         H           -3.082679479842     0.618316212970    -8.072124719448     1.007825032230
         H           -2.518128479842     0.961416212970    -6.419112719448     1.007825032230
         C            1.225311895423     0.526248873889     1.176318907836    12.000000000000
         C            1.225323856051    -0.888828309601     1.163988098266    12.000000000000
         C           -0.000006153932     1.233676499060     1.163454474745    12.000000000000
         C            2.456448753949     1.237038472148     1.179205765236    12.000000000000
         C            0.000010827279    -1.596265913665     1.173654032069    12.000000000000
         C           -1.225300948908     0.526255958954     1.178570428159    12.000000000000
         C            2.456437755320    -1.599612718911     1.161742941409    12.000000000000
         C           -0.000001332978     2.655511616251     1.161050924611    12.000000000000
         C            3.681826697470     0.528028540971     1.162091731207    12.000000000000
         C            2.455120048865     2.652934246459     1.161989174246    12.000000000000
         C            3.681821105219    -0.890623254459     1.178164215225    12.000000000000
         C           -1.225313598688    -0.888816930574     1.165060859693    12.000000000000
         C            1.226699581202     3.362180068964     1.178348247156    12.000000000000
         C            0.000004784858    -3.018071554266     1.178502199691    12.000000000000
         C           -2.456436032848     1.237027503255     1.178605824004    12.000000000000
         C            2.455123417779    -3.015519443619     1.178012306858    12.000000000000
         C           -1.226714364589     3.362179648720     1.178451580375    12.000000000000
         C            4.914517295202     1.245883457459     1.168572414236    12.000000000000
         C            3.693150191476     3.361505877515     1.168622213872    12.000000000000
         C           -2.456437600068    -1.599602695869     1.161717903284    12.000000000000
         C            1.226704841943    -3.724763656937     1.162378116406    12.000000000000
         C           -2.455125398508     2.652927247604     1.161995550592    12.000000000000
         C            4.914524380782    -1.608476324974     1.171545156971    12.000000000000
         C            1.221424613699     4.788844650230     1.171683591230    12.000000000000
         C            4.893008229321     2.643898584996     1.169789082595    12.000000000000
         C           -1.226697008489    -3.724760412107     1.162645320816    12.000000000000
         C           -3.681818976526     0.528035551702     1.162104411687    12.000000000000
         C            3.693147101150    -3.724090756421     1.171663047532    12.000000000000
         C           -1.221432251994     4.788838882833     1.171867086603    12.000000000000
         C            6.134770972926     0.499258532075     1.169342188786    12.000000000000
         C            3.656788880610     4.791663828537     1.169530851655    12.000000000000
         C           -2.455126907733    -3.015504508091     1.177767949059    12.000000000000
         C           -3.681819179061    -0.890615118499     1.178281836804    12.000000000000
         C            4.893012617914    -3.006489520662     1.170400234490    12.000000000000
         C           -0.000001073113     5.469157951002     1.170635777896    12.000000000000
         C            6.134775112332    -0.861844269105     1.170607509302    12.000000000000
         C            2.478131482856     5.472287336301     1.170819631305    12.000000000000
         C            1.221422404738    -5.151416469963     1.168884094208    12.000000000000
         C           -3.693162383965     3.361507539162     1.168787721332    12.000000000000
         C           -1.221428520945    -5.151407718626     1.168771332375    12.000000000000
         C           -4.914521807942     1.245886031965     1.168649359244    12.000000000000
         C            3.656787019679    -5.154244641269     1.170981352189    12.000000000000
         C           -2.478138530106     5.472285007498     1.171104156313    12.000000000000
         C           -3.693141738564    -3.724079634009     1.171546921376    12.000000000000
         C           -4.914512483053    -1.608470415058     1.171579854144    12.000000000000
         C           -0.000006008926    -5.831727702044     1.170240273775    12.000000000000
         C           -4.893020484101     2.643899183889     1.169779000735    12.000000000000
         C            2.478125993298    -5.834862958919     1.169890751397    12.000000000000
         C           -3.656798710258     4.791666767011     1.169707532030    12.000000000000
         C           -4.892999478856    -3.006481182090     1.170246198793    12.000000000000
         C           -2.478128498083    -5.834855585037     1.169615563750    12.000000000000
         C           -6.134770503331     0.499259351226     1.169316637084    12.000000000000
         C           -3.656788833189    -5.154233438001     1.170767064372    12.000000000000
         C           -6.134765042913    -0.861843330512     1.170587033507    12.000000000000
         H            5.835288495816     3.187986479924     1.174148408258     1.007825032230
         H            7.073859172747     1.046927833869     1.169803832179     1.007825032230
         H            4.600663264174     5.331091387423     1.170036052407     1.007825032230
         H            5.835283387305    -3.550595471759     1.165945767176     1.007825032230
         H           -0.000012151306     6.557241259106     1.166286532888     1.007825032230
         H            7.073861171831    -1.409516357774     1.170098771208     1.007825032230
         H            2.473313731799     6.559394876364     1.170352910374     1.007825032230
         H            4.600668491381    -5.693665544206     1.170571355021     1.007825032230
         H           -2.473318680537     6.559392304576     1.170654256999     1.007825032230
         H           -0.000010268228    -6.919817591482     1.174769958760     1.007825032230
         H           -5.835301914343     3.187981535266     1.174284430406     1.007825032230
         H            2.473307923831    -6.921974789459     1.170461081822     1.007825032230
         H           -4.600674841208     5.331088611573     1.170201380731     1.007825032230
         H           -5.835279506835    -3.550578378810     1.165666461295     1.007825032230
         H           -2.473300347440    -6.921968493170     1.170011765277     1.007825032230
         H           -7.073857766768     1.046931057810     1.169719840698     1.007825032230
         H           -4.600673786085    -5.693652084817     1.170399046998     1.007825032230
         H           -7.073856934409    -1.409510047007     1.170003914741     1.007825032230

  Running in c1 symmetry.

  Rotational constants: A =      0.00119  B =      0.00112  C =      0.00102 [cm^-1]
  Rotational constants: A =     35.55983  B =     33.64764  C =     30.63493 [MHz]
  Nuclear repulsion = 7677.756534473474858

  Charge       = 1
  Multiplicity = 1
  Electrons    = 394
  Nalpha       = 197
  Nbeta        = 197

  ==> Algorithm <==

  SCF Algorithm Type is DF.
  DIIS enabled.
  MOM disabled.
  Fractional occupation disabled.
  Guess Type is SAD.
  Energy threshold   = 1.00e-08
  Density threshold  = 1.00e-08
  Integral threshold = 1.00e-12

  ==> Primary Basis <==

  Basis Set: JUN-CC-PVDZ
    Blend: JUN-CC-PVDZ
    Number of shells: 569
    Number of basis functions: 1233
    Number of Cartesian functions: 1294
    Spherical Harmonics?: true
    Max angular momentum: 2

   => Loading Basis Set <=

    Name: (JUN-CC-PVDZ AUX)
    Role: JKFIT
    Keyword: DF_BASIS_SCF
    atoms 1-2, 4-5, 10, 17-70 entry C          line   146 file /home/gridsan/tfroembgen/.conda/envs/psi4test/share/psi4/basis/jun-cc-pvdz-jkfit.gbs 
    atoms 3, 6                entry N          line   202 file /home/gridsan/tfroembgen/.conda/envs/psi4test/share/psi4/basis/jun-cc-pvdz-jkfit.gbs 
    atoms 7-9, 11-16, 71-88   entry H          line    70 file /home/gridsan/tfroembgen/.conda/envs/psi4test/share/psi4/basis/jun-cc-pvdz-jkfit.gbs 

  ==> Integral Setup <==

  ==> DiskDFJK: Density-Fitted J/K Matrices <==

    J tasked:                  Yes
    K tasked:                  Yes
    wK tasked:                  No
    OpenMP threads:             12
    Integrals threads:          12
    Memory [MiB]:            22888
    Algorithm:                Core
    Integral Cache:           SAVE
    Schwarz Cutoff:          1E-12
    Fitting Condition:       1E-10

   => Auxiliary Basis Set <=

  Basis Set: (JUN-CC-PVDZ AUX)
    Blend: JUN-CC-PVDZ-JKFIT
    Number of shells: 1890
    Number of basis functions: 5440
    Number of Cartesian functions: 6226
    Spherical Harmonics?: true
    Max angular momentum: 3

  Minimum eigenvalue in the overlap matrix is 8.3998477128E-10.
  Reciprocal condition number of the overlap matrix is 3.7579505957E-11.
    Using canonical orthogonalization.
  Overall, 14 of 1233 possible MOs eliminated.


  ==> Pre-Iterations <==

  SCF Guess: Superposition of Atomic Densities via on-the-fly atomic UHF (no occupation information).

   -------------------------
    Irrep   Nso     Nmo    
   -------------------------
     A       1233    1219 
   -------------------------
    Total    1233    1219
   -------------------------

  ==> Iterations <==

                           Total Energy        Delta E     RMS |[F,P]|

   @DF-RHF iter SAD: -2365.39382677363892   -2.36539e+03   0.00000e+00 
   @DF-RHF iter   1: -2358.18321765742439    7.21061e+00   9.49393e-04 ADIIS/DIIS
   @DF-RHF iter   2: -2359.08551469162285   -9.02297e-01   3.25760e-04 ADIIS/DIIS
   @DF-RHF iter   3: -2359.17884554211150   -9.33309e-02   1.20070e-04 ADIIS/DIIS
   @DF-RHF iter   4: -2359.19233782336050   -1.34923e-02   4.59945e-05 DIIS
   @DF-RHF iter   5: -2359.19439812430710   -2.06030e-03   1.07075e-05 DIIS
   @DF-RHF iter   6: -2359.19458387094437   -1.85747e-04   5.29837e-06 DIIS
   @DF-RHF iter   7: -2359.19465659934258   -7.27284e-05   2.26932e-06 DIIS
   @DF-RHF iter   8: -2359.19467756968515   -2.09703e-05   1.12607e-06 DIIS
   @DF-RHF iter   9: -2359.19468277723354   -5.20755e-06   2.58698e-07 DIIS
   @DF-RHF iter  10: -2359.19468301930829   -2.42075e-07   8.54770e-08 DIIS
   @DF-RHF iter  11: -2359.19468303681879   -1.75105e-08   3.19224e-08 DIIS
   @DF-RHF iter  12: -2359.19468304044312   -3.62434e-09   1.23294e-08 DIIS
   @DF-RHF iter  13: -2359.19468304081511   -3.71983e-10   5.84181e-09 DIIS
  Energy and wave function converged.


  ==> Post-Iterations <==

    Orbital Energies [Eh]
    ---------------------

    Doubly Occupied:                                                      

       1A    -15.828029     2A    -15.827504     3A    -11.522787  
       4A    -11.453872     5A    -11.452318     6A    -11.442911  
       7A    -11.442810     8A    -11.311926     9A    -11.311377  
      10A    -11.311268    11A    -11.310702    12A    -11.310428  
      13A    -11.310247    14A    -11.309936    15A    -11.309844  
      16A    -11.309577    17A    -11.309328    18A    -11.309252  
      19A    -11.308983    20A    -11.308974    21A    -11.308934  
      22A    -11.308916    23A    -11.308650    24A    -11.308647  
      25A    -11.308465    26A    -11.308275    27A    -11.308170  
      28A    -11.307886    29A    -11.307880    30A    -11.307485  
      31A    -11.307458    32A    -11.307450    33A    -11.307411  
      34A    -11.307340    35A    -11.307309    36A    -11.307044  
      37A    -11.306979    38A    -11.306497    39A    -11.306492  
      40A    -11.306377    41A    -11.306375    42A    -11.305658  
      43A    -11.305551    44A    -11.302076    45A    -11.302065  
      46A    -11.301886    47A    -11.301388    48A    -11.301384  
      49A    -11.300912    50A    -11.300908    51A    -11.300627  
      52A    -11.300625    53A    -11.300244    54A    -11.300240  
      55A    -11.299585    56A    -11.299473    57A    -11.299460  
      58A    -11.299456    59A    -11.299453    60A    -11.298039  
      61A    -11.298035    62A     -1.571735    63A     -1.427272  
      64A     -1.294980    65A     -1.270208    66A     -1.270145  
      67A     -1.239553    68A     -1.239548    69A     -1.232303  
      70A     -1.231390    71A     -1.207182    72A     -1.198910  
      73A     -1.185770    74A     -1.185723    75A     -1.182684  
      76A     -1.162760    77A     -1.162751    78A     -1.132526  
      79A     -1.132523    80A     -1.128699    81A     -1.115441  
      82A     -1.115427    83A     -1.112233    84A     -1.089090  
      85A     -1.074656    86A     -1.072118    87A     -1.072107  
      88A     -1.067237    89A     -1.062120    90A     -1.036972  
      91A     -1.036961    92A     -1.016186    93A     -1.011430  
      94A     -1.011402    95A     -0.990358    96A     -0.943913  
      97A     -0.943869    98A     -0.938275    99A     -0.936500  
     100A     -0.936420   101A     -0.931381   102A     -0.931345  
     103A     -0.911407   104A     -0.910464   105A     -0.886429  
     106A     -0.867863   107A     -0.866725   108A     -0.862030  
     109A     -0.862022   110A     -0.843986   111A     -0.843981  
     112A     -0.843967   113A     -0.809958   114A     -0.806365  
     115A     -0.796759   116A     -0.794850   117A     -0.783749  
     118A     -0.783393   119A     -0.783347   120A     -0.781499  
     121A     -0.781445   122A     -0.779648   123A     -0.775634  
     124A     -0.766200   125A     -0.748511   126A     -0.748471  
     127A     -0.743289   128A     -0.743252   129A     -0.722887  
     130A     -0.719015   131A     -0.710555   132A     -0.710485  
     133A     -0.702832   134A     -0.701143   135A     -0.699442  
     136A     -0.699439   137A     -0.688793   138A     -0.688783  
     139A     -0.679475   140A     -0.677261   141A     -0.677245  
     142A     -0.657525   143A     -0.654257   144A     -0.651587  
     145A     -0.649098   146A     -0.649064   147A     -0.643519  
     148A     -0.641307   149A     -0.641283   150A     -0.634110  
     151A     -0.626847   152A     -0.626770   153A     -0.616447  
     154A     -0.616431   155A     -0.615795   156A     -0.615731  
     157A     -0.608533   158A     -0.604001   159A     -0.603948  
     160A     -0.589877   161A     -0.588256   162A     -0.588253  
     163A     -0.587811   164A     -0.587773   165A     -0.579207  
     166A     -0.578667   167A     -0.572392   168A     -0.572356  
     169A     -0.549632   170A     -0.545192   171A     -0.542506  
     172A     -0.537765   173A     -0.534900   174A     -0.531338  
     175A     -0.531298   176A     -0.520690   177A     -0.520640  
     178A     -0.517715   179A     -0.501159   180A     -0.501048  
     181A     -0.488557   182A     -0.488545   183A     -0.454952  
     184A     -0.454943   185A     -0.453588   186A     -0.424759  
     187A     -0.424754   188A     -0.398901   189A     -0.388411  
     190A     -0.387302   191A     -0.387289   192A     -0.360751  
     193A     -0.347128   194A     -0.334622   195A     -0.334608  
     196A     -0.274640   197A     -0.274627  

    Virtual:                                                              

     198A     -0.062094   199A     -0.055554   200A     -0.048540  
     201A     -0.042894   202A     -0.035787   203A     -0.035692  
     204A     -0.025867   205A     -0.023293   206A     -0.021776  
     207A     -0.019556   208A      0.000571   209A      0.003400  
     210A      0.003889   211A      0.005321   212A      0.005995  
     213A      0.006722   214A      0.009299   215A      0.010424  
     216A      0.010822   217A      0.013791   218A      0.014518  
     219A      0.014608   220A      0.016848   221A      0.021040  
     222A      0.023639   223A      0.025816   224A      0.032204  
     225A      0.032361   226A      0.034000   227A      0.036077  
     228A      0.036375   229A      0.037080   230A      0.039022  
     231A      0.040763   232A      0.041426   233A      0.044065  
     234A      0.047709   235A      0.047714   236A      0.048633  
     237A      0.048801   238A      0.049865   239A      0.056633  
     240A      0.057136   241A      0.058195   242A      0.062856  
     243A      0.067445   244A      0.068375   245A      0.068410  
     246A      0.069131   247A      0.072106   248A      0.074928  
     249A      0.075854   250A      0.076034   251A      0.079515  
     252A      0.082156   253A      0.084970   254A      0.086551  
     255A      0.088315   256A      0.088383   257A      0.088905  
     258A      0.090792   259A      0.090814   260A      0.092419  
     261A      0.092709   262A      0.094499   263A      0.096721  
     264A      0.105782   265A      0.106428   266A      0.108338  
     267A      0.109532   268A      0.109835   269A      0.113203  
     270A      0.114362   271A      0.114917   272A      0.118225  
     273A      0.118655   274A      0.124429   275A      0.125269  
     276A      0.126286   277A      0.131103   278A      0.133787  
     279A      0.134585   280A      0.135333   281A      0.135783  
     282A      0.138433   283A      0.138987   284A      0.139151  
     285A      0.139657   286A      0.141482   287A      0.143542  
     288A      0.144114   289A      0.144574   290A      0.145576  
     291A      0.146018   292A      0.148653   293A      0.152065  
     294A      0.157429   295A      0.159313   296A      0.159431  
     297A      0.160815   298A      0.165398   299A      0.165724  
     300A      0.165752   301A      0.166397   302A      0.166984  
     303A      0.167129   304A      0.168250   305A      0.168487  
     306A      0.170617   307A      0.171447   308A      0.172127  
     309A      0.177545   310A      0.178906   311A      0.180896  
     312A      0.181984   313A      0.182385   314A      0.183975  
     315A      0.185258   316A      0.185314   317A      0.185473  
     318A      0.187470   319A      0.187731   320A      0.189395  
     321A      0.189887   322A      0.192801   323A      0.194673  
     324A      0.196310   325A      0.200304   326A      0.200508  
     327A      0.200591   328A      0.204095   329A      0.204915  
     330A      0.205135   331A      0.207514   332A      0.209075  
     333A      0.209246   334A      0.210928   335A      0.211631  
     336A      0.213454   337A      0.220195   338A      0.220276  
     339A      0.221061   340A      0.221309   341A      0.221341  
     342A      0.221669   343A      0.221812   344A      0.223697  
     345A      0.224840   346A      0.227016   347A      0.227203  
     348A      0.232944   349A      0.236347   350A      0.237283  
     351A      0.240798   352A      0.241181   353A      0.241463  
     354A      0.247722   355A      0.250372   356A      0.251220  
     357A      0.251899   358A      0.254656   359A      0.255723  
     360A      0.255842   361A      0.259367   362A      0.261105  
     363A      0.261521   364A      0.262218   365A      0.262970  
     366A      0.264357   367A      0.264456   368A      0.266867  
     369A      0.267375   370A      0.268997   371A      0.270499  
     372A      0.272153   373A      0.273629   374A      0.274241  
     375A      0.274435   376A      0.275022   377A      0.275599  
     378A      0.275767   379A      0.277493   380A      0.279376  
     381A      0.280851   382A      0.282073   383A      0.282641  
     384A      0.289568   385A      0.292168   386A      0.292981  
     387A      0.296442   388A      0.298387   389A      0.298456  
     390A      0.299083   391A      0.299532   392A      0.299938  
     393A      0.303049   394A      0.303516   395A      0.305241  
     396A      0.308814   397A      0.308956   398A      0.313056  
     399A      0.313891   400A      0.319106   401A      0.321669  
     402A      0.324386   403A      0.324479   404A      0.325339  
     405A      0.325386   406A      0.328445   407A      0.329012  
     408A      0.330983   409A      0.336396   410A      0.336754  
     411A      0.338023   412A      0.342733   413A      0.343111  
     414A      0.343300   415A      0.343505   416A      0.344369  
     417A      0.346913   418A      0.347730   419A      0.348092  
     420A      0.349025   421A      0.350695   422A      0.350779  
     423A      0.353979   424A      0.354077   425A      0.356873  
     426A      0.357010   427A      0.357045   428A      0.357868  
     429A      0.359761   430A      0.359786   431A      0.362082  
     432A      0.362238   433A      0.363244   434A      0.372126  
     435A      0.372192   436A      0.372665   437A      0.374994  
     438A      0.375028   439A      0.379302   440A      0.384511  
     441A      0.387767   442A      0.388000   443A      0.390634  
     444A      0.394616   445A      0.395143   446A      0.395460  
     447A      0.396790   448A      0.396985   449A      0.398474  
     450A      0.401993   451A      0.402200   452A      0.403180  
     453A      0.409119   454A      0.410071   455A      0.410268  
     456A      0.411728   457A      0.411739   458A      0.411940  
     459A      0.414254   460A      0.415758   461A      0.416600  
     462A      0.419480   463A      0.422775   464A      0.422901  
     465A      0.429460   466A      0.433651   467A      0.433766  
     468A      0.434390   469A      0.434449   470A      0.438140  
     471A      0.443709   472A      0.444539   473A      0.444586  
     474A      0.446166   475A      0.446907   476A      0.448176  
     477A      0.449322   478A      0.453432   479A      0.453581  
     480A      0.456979   481A      0.457904   482A      0.463997  
     483A      0.464078   484A      0.465123   485A      0.465571  
     486A      0.470196   487A      0.470655   488A      0.475921  
     489A      0.477207   490A      0.477330   491A      0.477641  
     492A      0.489698   493A      0.490600   494A      0.491795  
     495A      0.495336   496A      0.498792   497A      0.498966  
     498A      0.499331   499A      0.503727   500A      0.504494  
     501A      0.504602   502A      0.505647   503A      0.506253  
     504A      0.507333   505A      0.511234   506A      0.512223  
     507A      0.512622   508A      0.512904   509A      0.520461  
     510A      0.520656   511A      0.537462   512A      0.537628  
     513A      0.547289   514A      0.548097   515A      0.548702  
     516A      0.556328   517A      0.564932   518A      0.565158  
     519A      0.567039   520A      0.572462   521A      0.572703  
     522A      0.577535   523A      0.577624   524A      0.595523  
     525A      0.600242   526A      0.600410   527A      0.605379  
     528A      0.609214   529A      0.618246   530A      0.618261  
     531A      0.620601   532A      0.627912   533A      0.628410  
     534A      0.629137   535A      0.631160   536A      0.650661  
     537A      0.655332   538A      0.666253   539A      0.666895  
     540A      0.666975   541A      0.676436   542A      0.683509  
     543A      0.688607   544A      0.691578   545A      0.693511  
     546A      0.693910   547A      0.693951   548A      0.694417  
     549A      0.696893   550A      0.702680   551A      0.708071  
     552A      0.708207   553A      0.713109   554A      0.715003  
     555A      0.716651   556A      0.723853   557A      0.741017  
     558A      0.742109   559A      0.745993   560A      0.747345  
     561A      0.747905   562A      0.752836   563A      0.756546  
     564A      0.757334   565A      0.757567   566A      0.759159  
     567A      0.764280   568A      0.765260   569A      0.773937  
     570A      0.775310   571A      0.778553   572A      0.778611  
     573A      0.779426   574A      0.781975   575A      0.783422  
     576A      0.786460   577A      0.788413   578A      0.792225  
     579A      0.800069   580A      0.805579   581A      0.805868  
     582A      0.809957   583A      0.815783   584A      0.815878  
     585A      0.820427   586A      0.821958   587A      0.822965  
     588A      0.823928   589A      0.824542   590A      0.824684  
     591A      0.828807   592A      0.828909   593A      0.829338  
     594A      0.837692   595A      0.839722   596A      0.839887  
     597A      0.846475   598A      0.848789   599A      0.848974  
     600A      0.852359   601A      0.854970   602A      0.858838  
     603A      0.859144   604A      0.860216   605A      0.861394  
     606A      0.862563   607A      0.864757   608A      0.866191  
     609A      0.869060   610A      0.872869   611A      0.873079  
     612A      0.879127   613A      0.882216   614A      0.882692  
     615A      0.882899   616A      0.886632   617A      0.886896  
     618A      0.889093   619A      0.892986   620A      0.893091  
     621A      0.896340   622A      0.896460   623A      0.905540  
     624A      0.907083   625A      0.908055   626A      0.908237  
     627A      0.921212   628A      0.921279   629A      0.922482  
     630A      0.922817   631A      0.924238   632A      0.924393  
     633A      0.927864   634A      0.929495   635A      0.931468  
     636A      0.938711   637A      0.938763   638A      0.944579  
     639A      0.947355   640A      0.949270   641A      0.949539  
     642A      0.955099   643A      0.956184   644A      0.965934  
     645A      0.966323   646A      0.966647   647A      0.969579  
     648A      0.969621   649A      0.971219   650A      0.978508  
     651A      0.982036   652A      0.982125   653A      0.985432  
     654A      0.985731   655A      0.987832   656A      0.988039  
     657A      0.990748   658A      0.990821   659A      0.991786  
     660A      0.995360   661A      0.995477   662A      0.996382  
     663A      0.997255   664A      0.997722   665A      0.999965  
     666A      1.004102   667A      1.004233   668A      1.010058  
     669A      1.011180   670A      1.011464   671A      1.011900  
     672A      1.013590   673A      1.019170   674A      1.019327  
     675A      1.021910   676A      1.023185   677A      1.023215  
     678A      1.025443   679A      1.026654   680A      1.030548  
     681A      1.031177   682A      1.034139   683A      1.034316  
     684A      1.035392   685A      1.037076   686A      1.038668  
     687A      1.042379   688A      1.054308   689A      1.054872  
     690A      1.054980   691A      1.056687   692A      1.066642  
     693A      1.066972   694A      1.067123   695A      1.067267  
     696A      1.071135   697A      1.071190   698A      1.072610  
     699A      1.076716   700A      1.076891   701A      1.082756  
     702A      1.085540   703A      1.085642   704A      1.091557  
     705A      1.091618   706A      1.092101   707A      1.094332  
     708A      1.094962   709A      1.102283   710A      1.105063  
     711A      1.109365   712A      1.117788   713A      1.119095  
     714A      1.124877   715A      1.128054   716A      1.128241  
     717A      1.131826   718A      1.133484   719A      1.133641  
     720A      1.134782   721A      1.144572   722A      1.145813  
     723A      1.147104   724A      1.149898   725A      1.150103  
     726A      1.155714   727A      1.161095   728A      1.168240  
     729A      1.168735   730A      1.168841   731A      1.171541  
     732A      1.173779   733A      1.173835   734A      1.186945  
     735A      1.189974   736A      1.190284   737A      1.206814  
     738A      1.208265   739A      1.212807   740A      1.212894  
     741A      1.213719   742A      1.213914   743A      1.215711  
     744A      1.215895   745A      1.219855   746A      1.224548  
     747A      1.227943   748A      1.245081   749A      1.245616  
     750A      1.246919   751A      1.247420   752A      1.247972  
     753A      1.249341   754A      1.258385   755A      1.258493  
     756A      1.260222   757A      1.260668   758A      1.267121  
     759A      1.269455   760A      1.269815   761A      1.271673  
     762A      1.272253   763A      1.276951   764A      1.280409  
     765A      1.280512   766A      1.283282   767A      1.289702  
     768A      1.290423   769A      1.291525   770A      1.294068  
     771A      1.294830   772A      1.304834   773A      1.304844  
     774A      1.308137   775A      1.308346   776A      1.309365  
     777A      1.309651   778A      1.315431   779A      1.315606  
     780A      1.323448   781A      1.331489   782A      1.341837  
     783A      1.348289   784A      1.351359   785A      1.354118  
     786A      1.354368   787A      1.357938   788A      1.358003  
     789A      1.363108   790A      1.363181   791A      1.370122  
     792A      1.372308   793A      1.375387   794A      1.375503  
     795A      1.379343   796A      1.379431   797A      1.379686  
     798A      1.387290   799A      1.387352   800A      1.389969  
     801A      1.390556   802A      1.390700   803A      1.398633  
     804A      1.398687   805A      1.401046   806A      1.413085  
     807A      1.413108   808A      1.422355   809A      1.422577  
     810A      1.428154   811A      1.467123   812A      1.467252  
     813A      1.469864   814A      1.471314   815A      1.471392  
     816A      1.480340   817A      1.484014   818A      1.502431  
     819A      1.509388   820A      1.522911   821A      1.523176  
     822A      1.547457   823A      1.549539   824A      1.550047  
     825A      1.558164   826A      1.558181   827A      1.559171  
     828A      1.561968   829A      1.562137   830A      1.565374  
     831A      1.568895   832A      1.571742   833A      1.571956  
     834A      1.579382   835A      1.579751   836A      1.590270  
     837A      1.590304   838A      1.593383   839A      1.593429  
     840A      1.593615   841A      1.593753   842A      1.600195  
     843A      1.610487   844A      1.611341   845A      1.611379  
     846A      1.617785   847A      1.625007   848A      1.625785  
     849A      1.625826   850A      1.626994   851A      1.627442  
     852A      1.627519   853A      1.632514   854A      1.636777  
     855A      1.636835   856A      1.646566   857A      1.647654  
     858A      1.650017   859A      1.650061   860A      1.650699  
     861A      1.654368   862A      1.654439   863A      1.666315  
     864A      1.666543   865A      1.666935   866A      1.675506  
     867A      1.686196   868A      1.692013   869A      1.693846  
     870A      1.701389   871A      1.710934   872A      1.711421  
     873A      1.712377   874A      1.713231   875A      1.727240  
     876A      1.727267   877A      1.737013   878A      1.742008  
     879A      1.742033   880A      1.751506   881A      1.754468  
     882A      1.761958   883A      1.766547   884A      1.767335  
     885A      1.767462   886A      1.769408   887A      1.774541  
     888A      1.774672   889A      1.781060   890A      1.781150  
     891A      1.784947   892A      1.787590   893A      1.792414  
     894A      1.792663   895A      1.810105   896A      1.811079  
     897A      1.811635   898A      1.811751   899A      1.812026  
     900A      1.814754   901A      1.815101   902A      1.819205  
     903A      1.822385   904A      1.822584   905A      1.830228  
     906A      1.830281   907A      1.846495   908A      1.846599  
     909A      1.849503   910A      1.850442   911A      1.854300  
     912A      1.854528   913A      1.858656   914A      1.858841  
     915A      1.861758   916A      1.864690   917A      1.864873  
     918A      1.867973   919A      1.868096   920A      1.869438  
     921A      1.872302   922A      1.872407   923A      1.873199  
     924A      1.890622   925A      1.891960   926A      1.892470  
     927A      1.892633   928A      1.898022   929A      1.898333  
     930A      1.899516   931A      1.902273   932A      1.903882  
     933A      1.904244   934A      1.904568   935A      1.904601  
     936A      1.908357   937A      1.921101   938A      1.932581  
     939A      1.932679   940A      1.940088   941A      1.947684  
     942A      1.949011   943A      1.949264   944A      1.949747  
     945A      1.954860   946A      1.959288   947A      1.963050  
     948A      1.963191   949A      1.971462   950A      1.976926  
     951A      1.977912   952A      1.980455   953A      1.980527  
     954A      1.980960   955A      1.981726   956A      1.981871  
     957A      1.998447   958A      2.002346   959A      2.002697  
     960A      2.007633   961A      2.008337   962A      2.009147  
     963A      2.009562   964A      2.010352   965A      2.018344  
     966A      2.020096   967A      2.021282   968A      2.021650  
     969A      2.025352   970A      2.025735   971A      2.030086  
     972A      2.034110   973A      2.034191   974A      2.043445  
     975A      2.044168   976A      2.045552   977A      2.046798  
     978A      2.047659   979A      2.051031   980A      2.051134  
     981A      2.056393   982A      2.058464   983A      2.058587  
     984A      2.059093   985A      2.059189   986A      2.059887  
     987A      2.064798   988A      2.069808   989A      2.069916  
     990A      2.070345   991A      2.070544   992A      2.071667  
     993A      2.076768   994A      2.076928   995A      2.083772  
     996A      2.085080   997A      2.086718   998A      2.086839  
     999A      2.090133  1000A      2.093971  1001A      2.094012  
    1002A      2.106103  1003A      2.109442  1004A      2.109470  
    1005A      2.113038  1006A      2.113091  1007A      2.121016  
    1008A      2.128844  1009A      2.128911  1010A      2.140877  
    1011A      2.141626  1012A      2.142089  1013A      2.142637  
    1014A      2.145166  1015A      2.145296  1016A      2.145488  
    1017A      2.146025  1018A      2.147987  1019A      2.162141  
    1020A      2.170138  1021A      2.170221  1022A      2.170246  
    1023A      2.177352  1024A      2.178421  1025A      2.178610  
    1026A      2.179186  1027A      2.194492  1028A      2.194853  
    1029A      2.195431  1030A      2.195610  1031A      2.198596  
    1032A      2.204636  1033A      2.211411  1034A      2.211485  
    1035A      2.220830  1036A      2.220854  1037A      2.223060  
    1038A      2.223094  1039A      2.228521  1040A      2.232751  
    1041A      2.251154  1042A      2.251960  1043A      2.257535  
    1044A      2.260499  1045A      2.262338  1046A      2.269640  
    1047A      2.272300  1048A      2.280567  1049A      2.280667  
    1050A      2.281050  1051A      2.283721  1052A      2.298947  
    1053A      2.300724  1054A      2.301386  1055A      2.302930  
    1056A      2.302956  1057A      2.316308  1058A      2.316426  
    1059A      2.324049  1060A      2.325705  1061A      2.330057  
    1062A      2.337573  1063A      2.366794  1064A      2.374313  
    1065A      2.374966  1066A      2.374966  1067A      2.387349  
    1068A      2.391255  1069A      2.391301  1070A      2.420207  
    1071A      2.423308  1072A      2.423615  1073A      2.435944  
    1074A      2.436032  1075A      2.445326  1076A      2.452817  
    1077A      2.462337  1078A      2.470121  1079A      2.480207  
    1080A      2.480259  1081A      2.494243  1082A      2.496200  
    1083A      2.496257  1084A      2.501331  1085A      2.504617  
    1086A      2.505620  1087A      2.505640  1088A      2.510353  
    1089A      2.510392  1090A      2.523346  1091A      2.523381  
    1092A      2.526026  1093A      2.526552  1094A      2.536932  
    1095A      2.537105  1096A      2.537687  1097A      2.540368  
    1098A      2.542940  1099A      2.556809  1100A      2.574406  
    1101A      2.574455  1102A      2.574939  1103A      2.575334  
    1104A      2.581496  1105A      2.581999  1106A      2.592123  
    1107A      2.592174  1108A      2.601987  1109A      2.602341  
    1110A      2.606893  1111A      2.607767  1112A      2.631998  
    1113A      2.633150  1114A      2.634770  1115A      2.637361  
    1116A      2.638379  1117A      2.651561  1118A      2.651958  
    1119A      2.662763  1120A      2.663085  1121A      2.663129  
    1122A      2.668845  1123A      2.668923  1124A      2.672918  
    1125A      2.673140  1126A      2.674776  1127A      2.679523  
    1128A      2.687046  1129A      2.689423  1130A      2.702952  
    1131A      2.703295  1132A      2.707495  1133A      2.726735  
    1134A      2.739002  1135A      2.744467  1136A      2.744622  
    1137A      2.749552  1138A      2.765367  1139A      2.777036  
    1140A      2.777916  1141A      2.789747  1142A      2.801548  
    1143A      2.801766  1144A      2.805582  1145A      2.807905  
    1146A      2.809361  1147A      2.809466  1148A      2.817596  
    1149A      2.867725  1150A      2.867960  1151A      2.874379  
    1152A      2.884513  1153A      2.884569  1154A      2.900285  
    1155A      2.900307  1156A      2.913688  1157A      2.919328  
    1158A      2.956495  1159A      2.956748  1160A      2.963294  
    1161A      2.977868  1162A      2.980403  1163A      3.013969  
    1164A      3.014026  1165A      3.020764  1166A      3.020782  
    1167A      3.047682  1168A      3.060245  1169A      3.061008  
    1170A      3.066488  1171A      3.078353  1172A      3.080137  
    1173A      3.080364  1174A      3.088291  1175A      3.096094  
    1176A      3.097048  1177A      3.097647  1178A      3.099835  
    1179A      3.099837  1180A      3.108343  1181A      3.108802  
    1182A      3.116403  1183A      3.116899  1184A      3.142814  
    1185A      3.162372  1186A      3.168360  1187A      3.187849  
    1188A      3.221646  1189A      3.227087  1190A      3.227220  
    1191A      3.232217  1192A      3.232470  1193A      3.366119  
    1194A      3.366676  1195A      3.390984  1196A      3.430969  
    1197A      3.433604  1198A      3.441240  1199A      3.498547  
    1200A      3.526492  1201A      3.528376  1202A      3.529506  
    1203A      3.543416  1204A      3.576769  1205A      3.578758  
    1206A      3.613077  1207A      3.617412  1208A      3.719340  
    1209A      3.732446  1210A      3.733374  1211A      3.821464  
    1212A      3.821475  1213A      3.863548  1214A      3.863681  
    1215A      3.926853  1216A      3.960727  1217A      3.981598  
    1218A      3.993462  1219A      4.029525  

    Final Occupation by Irrep:
              A 
    DOCC [   197 ]
    NA   [   197 ]
    NB   [   197 ]

  @DF-RHF Final Energy: -2359.19468304081511

   => Energetics <=

    Nuclear Repulsion Energy =           7677.7565344734748578
    One-Electron Energy =              -18463.5084421766223386
    Two-Electron Energy =                8426.5572246623305546
    Total Energy =                      -2359.1946830408160167

Computation Completed


Properties will be evaluated at   0.000000,   0.000000,   0.000000 [a0]

Properties computed using the SCF density matrix


 Multipole Moments:

 ------------------------------------------------------------------------------------
     Multipole            Electronic (a.u.)      Nuclear  (a.u.)        Total (a.u.)
 ------------------------------------------------------------------------------------

 L = 1.  Multiply by 2.5417464519 to convert [e a0] to [Debye]
 Dipole X            :         -0.0011185            0.0006313           -0.0004872
 Dipole Y            :         -5.4229609            7.4856329            2.0626720
 Dipole Z            :         31.9570010          -46.0697915          -14.1127906
 Magnitude           :                                                   14.2627302

 ------------------------------------------------------------------------------------

*** tstop() called on d-16-7-4 at Mon Jan 22 22:39:00 2024
Module time:
	user time   =    3998.55 seconds =      66.64 minutes
	system time =      91.94 seconds =       1.53 minutes
	total time  =        467 seconds =       7.78 minutes
Total time:
	user time   =    3998.55 seconds =      66.64 minutes
	system time =      91.94 seconds =       1.53 minutes
	total time  =        467 seconds =       7.78 minutes

  //>>>>>>>>>>>>>>>>>>>>>>>>>>>>>>>>>>>//
  //            Monomer A HF           //
  //<<<<<<<<<<<<<<<<<<<<<<<<<<<<<<<<<<<//

   => Libint2 <=

    Primary   basis highest AM E, G, H:  7, 7, 4
    Auxiliary basis highest AM E, G, H:  7, 7, 5
    Onebody   basis highest AM E, G, H:  7, 7, 5
    Solid Harmonics ordering:            gaussian

*** tstart() called on d-16-7-4
*** at Mon Jan 22 22:39:00 2024

   => Loading Basis Set <=

    Name: JUN-CC-PVDZ
    Role: ORBITAL
    Keyword: BASIS
    atoms 1-2, 4-5, 10, 17-70 entry C          line   164 file /home/gridsan/tfroembgen/.conda/envs/psi4test/share/psi4/basis/jun-cc-pvdz.gbs 
    atoms 3, 6                entry N          line   198 file /home/gridsan/tfroembgen/.conda/envs/psi4test/share/psi4/basis/jun-cc-pvdz.gbs 
    atoms 7-9, 11-16, 71-88   entry H          line    36 file /home/gridsan/tfroembgen/.conda/envs/psi4test/share/psi4/basis/jun-cc-pvdz.gbs 


         ---------------------------------------------------------
                                   SCF
               by Justin Turney, Rob Parrish, Andy Simmonett
                          and Daniel G. A. Smith
                              RHF Reference
                       12 Threads,  30517 MiB Core
         ---------------------------------------------------------

  ==> Geometry <==

    Molecular point group: c1
    Full point group: C1

    Geometry (in Angstrom), charge = 1, multiplicity = 1:

       Center              X                  Y                   Z               Mass       
    ------------   -----------------  -----------------  -----------------  -----------------
         C            0.680066520158     1.235968212970    -9.245747719448    12.000000000000
         C           -0.680504479842     1.237996212970    -9.245363719448    12.000000000000
         N           -1.085635479842     1.238994212970    -7.927039719448    14.003074004430
         C            0.000107520158     1.242270212970    -7.145638719448    12.000000000000
         C           -2.477365479842     1.288400212970    -7.459060719448    12.000000000000
         N            1.085221520158     1.238994212970    -7.927039719448    14.003074004430
         H            1.385145520158     1.228140212970   -10.063186719448     1.007825032230
         H           -1.385302479842     1.237806212970   -10.063032719448     1.007825032230
         H           -0.000009479842     1.244017212970    -6.064549719448     1.007825032230
         C            2.478116520158     1.222102212970    -7.461941719448    12.000000000000
         H            2.490591520158     1.249447212970    -6.371688719448     1.007825032230
         H            2.967027520158     0.308656212970    -7.809117719448     1.007825032230
         H            3.001427520158     2.097585212970    -7.853413719448     1.007825032230
         H           -2.857359479842     2.310471212970    -7.539019719448     1.007825032230
         H           -3.082679479842     0.618316212970    -8.072124719448     1.007825032230
         H           -2.518128479842     0.961416212970    -6.419112719448     1.007825032230
      Gh(C)           1.225311895423     0.526248873889     1.176318907836    12.000000000000
      Gh(C)           1.225323856051    -0.888828309601     1.163988098266    12.000000000000
      Gh(C)          -0.000006153932     1.233676499060     1.163454474745    12.000000000000
      Gh(C)           2.456448753949     1.237038472148     1.179205765236    12.000000000000
      Gh(C)           0.000010827279    -1.596265913665     1.173654032069    12.000000000000
      Gh(C)          -1.225300948908     0.526255958954     1.178570428159    12.000000000000
      Gh(C)           2.456437755320    -1.599612718911     1.161742941409    12.000000000000
      Gh(C)          -0.000001332978     2.655511616251     1.161050924611    12.000000000000
      Gh(C)           3.681826697470     0.528028540971     1.162091731207    12.000000000000
      Gh(C)           2.455120048865     2.652934246459     1.161989174246    12.000000000000
      Gh(C)           3.681821105219    -0.890623254459     1.178164215225    12.000000000000
      Gh(C)          -1.225313598688    -0.888816930574     1.165060859693    12.000000000000
      Gh(C)           1.226699581202     3.362180068964     1.178348247156    12.000000000000
      Gh(C)           0.000004784858    -3.018071554266     1.178502199691    12.000000000000
      Gh(C)          -2.456436032848     1.237027503255     1.178605824004    12.000000000000
      Gh(C)           2.455123417779    -3.015519443619     1.178012306858    12.000000000000
      Gh(C)          -1.226714364589     3.362179648720     1.178451580375    12.000000000000
      Gh(C)           4.914517295202     1.245883457459     1.168572414236    12.000000000000
      Gh(C)           3.693150191476     3.361505877515     1.168622213872    12.000000000000
      Gh(C)          -2.456437600068    -1.599602695869     1.161717903284    12.000000000000
      Gh(C)           1.226704841943    -3.724763656937     1.162378116406    12.000000000000
      Gh(C)          -2.455125398508     2.652927247604     1.161995550592    12.000000000000
      Gh(C)           4.914524380782    -1.608476324974     1.171545156971    12.000000000000
      Gh(C)           1.221424613699     4.788844650230     1.171683591230    12.000000000000
      Gh(C)           4.893008229321     2.643898584996     1.169789082595    12.000000000000
      Gh(C)          -1.226697008489    -3.724760412107     1.162645320816    12.000000000000
      Gh(C)          -3.681818976526     0.528035551702     1.162104411687    12.000000000000
      Gh(C)           3.693147101150    -3.724090756421     1.171663047532    12.000000000000
      Gh(C)          -1.221432251994     4.788838882833     1.171867086603    12.000000000000
      Gh(C)           6.134770972926     0.499258532075     1.169342188786    12.000000000000
      Gh(C)           3.656788880610     4.791663828537     1.169530851655    12.000000000000
      Gh(C)          -2.455126907733    -3.015504508091     1.177767949059    12.000000000000
      Gh(C)          -3.681819179061    -0.890615118499     1.178281836804    12.000000000000
      Gh(C)           4.893012617914    -3.006489520662     1.170400234490    12.000000000000
      Gh(C)          -0.000001073113     5.469157951002     1.170635777896    12.000000000000
      Gh(C)           6.134775112332    -0.861844269105     1.170607509302    12.000000000000
      Gh(C)           2.478131482856     5.472287336301     1.170819631305    12.000000000000
      Gh(C)           1.221422404738    -5.151416469963     1.168884094208    12.000000000000
      Gh(C)          -3.693162383965     3.361507539162     1.168787721332    12.000000000000
      Gh(C)          -1.221428520945    -5.151407718626     1.168771332375    12.000000000000
      Gh(C)          -4.914521807942     1.245886031965     1.168649359244    12.000000000000
      Gh(C)           3.656787019679    -5.154244641269     1.170981352189    12.000000000000
      Gh(C)          -2.478138530106     5.472285007498     1.171104156313    12.000000000000
      Gh(C)          -3.693141738564    -3.724079634009     1.171546921376    12.000000000000
      Gh(C)          -4.914512483053    -1.608470415058     1.171579854144    12.000000000000
      Gh(C)          -0.000006008926    -5.831727702044     1.170240273775    12.000000000000
      Gh(C)          -4.893020484101     2.643899183889     1.169779000735    12.000000000000
      Gh(C)           2.478125993298    -5.834862958919     1.169890751397    12.000000000000
      Gh(C)          -3.656798710258     4.791666767011     1.169707532030    12.000000000000
      Gh(C)          -4.892999478856    -3.006481182090     1.170246198793    12.000000000000
      Gh(C)          -2.478128498083    -5.834855585037     1.169615563750    12.000000000000
      Gh(C)          -6.134770503331     0.499259351226     1.169316637084    12.000000000000
      Gh(C)          -3.656788833189    -5.154233438001     1.170767064372    12.000000000000
      Gh(C)          -6.134765042913    -0.861843330512     1.170587033507    12.000000000000
      Gh(H)           5.835288495816     3.187986479924     1.174148408258     1.007825032230
      Gh(H)           7.073859172747     1.046927833869     1.169803832179     1.007825032230
      Gh(H)           4.600663264174     5.331091387423     1.170036052407     1.007825032230
      Gh(H)           5.835283387305    -3.550595471759     1.165945767176     1.007825032230
      Gh(H)          -0.000012151306     6.557241259106     1.166286532888     1.007825032230
      Gh(H)           7.073861171831    -1.409516357774     1.170098771208     1.007825032230
      Gh(H)           2.473313731799     6.559394876364     1.170352910374     1.007825032230
      Gh(H)           4.600668491381    -5.693665544206     1.170571355021     1.007825032230
      Gh(H)          -2.473318680537     6.559392304576     1.170654256999     1.007825032230
      Gh(H)          -0.000010268228    -6.919817591482     1.174769958760     1.007825032230
      Gh(H)          -5.835301914343     3.187981535266     1.174284430406     1.007825032230
      Gh(H)           2.473307923831    -6.921974789459     1.170461081822     1.007825032230
      Gh(H)          -4.600674841208     5.331088611573     1.170201380731     1.007825032230
      Gh(H)          -5.835279506835    -3.550578378810     1.165666461295     1.007825032230
      Gh(H)          -2.473300347440    -6.921968493170     1.170011765277     1.007825032230
      Gh(H)          -7.073857766768     1.046931057810     1.169719840698     1.007825032230
      Gh(H)          -4.600673786085    -5.693652084817     1.170399046998     1.007825032230
      Gh(H)          -7.073856934409    -1.409510047007     1.170003914741     1.007825032230

  Running in c1 symmetry.

  Rotational constants: A =      0.00119  B =      0.00112  C =      0.00102 [cm^-1]
  Rotational constants: A =     35.55983  B =     33.64764  C =     30.63493 [MHz]
  Nuclear repulsion =  306.774908447733083

  Charge       = 1
  Multiplicity = 1
  Electrons    = 52
  Nalpha       = 26
  Nbeta        = 26

  ==> Algorithm <==

  SCF Algorithm Type is DF.
  DIIS enabled.
  MOM disabled.
  Fractional occupation disabled.
  Guess Type is SAD.
  Energy threshold   = 1.00e-08
  Density threshold  = 1.00e-08
  Integral threshold = 1.00e-12

  ==> Primary Basis <==

  Basis Set: JUN-CC-PVDZ
    Blend: JUN-CC-PVDZ
    Number of shells: 569
    Number of basis functions: 1233
    Number of Cartesian functions: 1294
    Spherical Harmonics?: true
    Max angular momentum: 2

   => Loading Basis Set <=

    Name: (JUN-CC-PVDZ AUX)
    Role: JKFIT
    Keyword: DF_BASIS_SCF
    atoms 1-2, 4-5, 10, 17-70 entry C          line   146 file /home/gridsan/tfroembgen/.conda/envs/psi4test/share/psi4/basis/jun-cc-pvdz-jkfit.gbs 
    atoms 3, 6                entry N          line   202 file /home/gridsan/tfroembgen/.conda/envs/psi4test/share/psi4/basis/jun-cc-pvdz-jkfit.gbs 
    atoms 7-9, 11-16, 71-88   entry H          line    70 file /home/gridsan/tfroembgen/.conda/envs/psi4test/share/psi4/basis/jun-cc-pvdz-jkfit.gbs 

  ==> Integral Setup <==

  ==> DiskDFJK: Density-Fitted J/K Matrices <==

    J tasked:                  Yes
    K tasked:                  Yes
    wK tasked:                  No
    OpenMP threads:             12
    Integrals threads:          12
    Memory [MiB]:            22888
    Algorithm:                Core
    Integral Cache:           LOAD
    Schwarz Cutoff:          1E-12
    Fitting Condition:       1E-10

   => Auxiliary Basis Set <=

  Basis Set: (JUN-CC-PVDZ AUX)
    Blend: JUN-CC-PVDZ-JKFIT
    Number of shells: 1890
    Number of basis functions: 5440
    Number of Cartesian functions: 6226
    Spherical Harmonics?: true
    Max angular momentum: 3

  Minimum eigenvalue in the overlap matrix is 8.3998477128E-10.
  Reciprocal condition number of the overlap matrix is 3.7579505957E-11.
    Using canonical orthogonalization.
  Overall, 14 of 1233 possible MOs eliminated.


  ==> Pre-Iterations <==

  SCF Guess: Superposition of Atomic Densities via on-the-fly atomic UHF (no occupation information).

   -------------------------
    Irrep   Nso     Nmo    
   -------------------------
     A       1233    1219 
   -------------------------
    Total    1233    1219
   -------------------------

  ==> Iterations <==

                           Total Energy        Delta E     RMS |[F,P]|

   @DF-RHF iter SAD:  -303.36533880309582   -3.03365e+02   0.00000e+00 
   @DF-RHF iter   1:  -303.16939014290688    1.95949e-01   3.44001e-04 ADIIS/DIIS
   @DF-RHF iter   2:  -303.28371432791278   -1.14324e-01   1.15847e-04 ADIIS/DIIS
   @DF-RHF iter   3:  -303.29515660485600   -1.14423e-02   4.53084e-05 DIIS
   @DF-RHF iter   4:  -303.29705682041663   -1.90022e-03   9.88602e-06 DIIS
   @DF-RHF iter   5:  -303.29716215403892   -1.05334e-04   2.40971e-06 DIIS
   @DF-RHF iter   6:  -303.29717139315613   -9.23912e-06   6.54118e-07 DIIS
   @DF-RHF iter   7:  -303.29717246492845   -1.07177e-06   3.31922e-07 DIIS
   @DF-RHF iter   8:  -303.29717271691391   -2.51985e-07   1.33516e-07 DIIS
   @DF-RHF iter   9:  -303.29717276524769   -4.83338e-08   3.37096e-08 DIIS
   @DF-RHF iter  10:  -303.29717276807310   -2.82540e-09   1.26802e-08 DIIS
   @DF-RHF iter  11:  -303.29717276831985   -2.46757e-10   2.99327e-09 DIIS
  Energy and wave function converged.


  ==> Post-Iterations <==

    Orbital Energies [Eh]
    ---------------------

    Doubly Occupied:                                                      

       1A    -15.834670     2A    -15.834138     3A    -11.529560  
       4A    -11.459861     5A    -11.458306     6A    -11.449669  
       7A    -11.449555     8A     -1.578242     9A     -1.433831  
      10A     -1.238673    11A     -1.189313    12A     -1.118870  
      13A     -1.022541    14A     -0.996973    15A     -0.917051  
      16A     -0.850526    17A     -0.816264    18A     -0.813211  
      19A     -0.790136    20A     -0.786229    21A     -0.781780  
      22A     -0.729707    23A     -0.725786    24A     -0.717098  
      25A     -0.596307    26A     -0.523863  

    Virtual:                                                              

      27A     -0.069441    28A     -0.066947    29A     -0.055591  
      30A     -0.050318    31A     -0.033700    32A     -0.031969  
      33A     -0.031065    34A     -0.029691    35A     -0.025177  
      36A     -0.023157    37A     -0.020027    38A     -0.011141  
      39A     -0.011083    40A     -0.006895    41A     -0.005001  
      42A     -0.002731    43A      0.001211    44A      0.002525  
      45A      0.005394    46A      0.005768    47A      0.005979  
      48A      0.009919    49A      0.011117    50A      0.013236  
      51A      0.018829    52A      0.023921    53A      0.024057  
      54A      0.024827    55A      0.029405    56A      0.030908  
      57A      0.032684    58A      0.033588    59A      0.036550  
      60A      0.040487    61A      0.041225    62A      0.044292  
      63A      0.044307    64A      0.044776    65A      0.051771  
      66A      0.054524    67A      0.057535    68A      0.059955  
      69A      0.060287    70A      0.062923    71A      0.062988  
      72A      0.067067    73A      0.068355    74A      0.068825  
      75A      0.071444    76A      0.072159    77A      0.073017  
      78A      0.073275    79A      0.075847    80A      0.077801  
      81A      0.079427    82A      0.080042    83A      0.081887  
      84A      0.087205    85A      0.087567    86A      0.088136  
      87A      0.090416    88A      0.090863    89A      0.091864  
      90A      0.094482    91A      0.095377    92A      0.095624  
      93A      0.097259    94A      0.100200    95A      0.100225  
      96A      0.102892    97A      0.103905    98A      0.106681  
      99A      0.106755   100A      0.108433   101A      0.109463  
     102A      0.112201   103A      0.116545   104A      0.116602  
     105A      0.122263   106A      0.122379   107A      0.125002  
     108A      0.125068   109A      0.127139   110A      0.127744  
     111A      0.129180   112A      0.130782   113A      0.131320  
     114A      0.131553   115A      0.131669   116A      0.133237  
     117A      0.133337   118A      0.135521   119A      0.138393  
     120A      0.138931   121A      0.140832   122A      0.142656  
     123A      0.147948   124A      0.148071   125A      0.149007  
     126A      0.149307   127A      0.149401   128A      0.153263  
     129A      0.154178   130A      0.156535   131A      0.156741  
     132A      0.158956   133A      0.159599   134A      0.159917  
     135A      0.160198   136A      0.160893   137A      0.166066  
     138A      0.173741   139A      0.173787   140A      0.175279  
     141A      0.175430   142A      0.176447   143A      0.177937  
     144A      0.178123   145A      0.178135   146A      0.180634  
     147A      0.184394   148A      0.185071   149A      0.186854  
     150A      0.188941   151A      0.190173   152A      0.190981  
     153A      0.191712   154A      0.191804   155A      0.192519  
     156A      0.193086   157A      0.193381   158A      0.193798  
     159A      0.195041   160A      0.199971   161A      0.200380  
     162A      0.202770   163A      0.203289   164A      0.204954  
     165A      0.205076   166A      0.206136   167A      0.220837  
     168A      0.220872   169A      0.222140   170A      0.223659  
     171A      0.227053   172A      0.227346   173A      0.227580  
     174A      0.227651   175A      0.229808   176A      0.229953  
     177A      0.233784   178A      0.234043   179A      0.234442  
     180A      0.235993   181A      0.237509   182A      0.237867  
     183A      0.238255   184A      0.238584   185A      0.239570  
     186A      0.239896   187A      0.247753   188A      0.249738  
     189A      0.250216   190A      0.250255   191A      0.252775  
     192A      0.255893   193A      0.259926   194A      0.262405  
     195A      0.262622   196A      0.267190   197A      0.267536  
     198A      0.268051   199A      0.269470   200A      0.273212  
     201A      0.277202   202A      0.277218   203A      0.280116  
     204A      0.280586   205A      0.281219   206A      0.281997  
     207A      0.283398   208A      0.296609   209A      0.296662  
     210A      0.297031   211A      0.297308   212A      0.298142  
     213A      0.299475   214A      0.301670   215A      0.304779  
     216A      0.304877   217A      0.307172   218A      0.307343  
     219A      0.311995   220A      0.314299   221A      0.315025  
     222A      0.315284   223A      0.316980   224A      0.318475  
     225A      0.318908   226A      0.320543   227A      0.322261  
     228A      0.325601   229A      0.325642   230A      0.326216  
     231A      0.328036   232A      0.330535   233A      0.331004  
     234A      0.337155   235A      0.338821   236A      0.340773  
     237A      0.344535   238A      0.351363   239A      0.351809  
     240A      0.354120   241A      0.355074   242A      0.355108  
     243A      0.358484   244A      0.361628   245A      0.370663  
     246A      0.370759   247A      0.372832   248A      0.373664  
     249A      0.374456   250A      0.376790   251A      0.379209  
     252A      0.380856   253A      0.381638   254A      0.381649  
     255A      0.382388   256A      0.383847   257A      0.384329  
     258A      0.386166   259A      0.386886   260A      0.394615  
     261A      0.396433   262A      0.396572   263A      0.398539  
     264A      0.399337   265A      0.404169   266A      0.404437  
     267A      0.405851   268A      0.406032   269A      0.407498  
     270A      0.408477   271A      0.410545   272A      0.413931  
     273A      0.417530   274A      0.418592   275A      0.418880  
     276A      0.422745   277A      0.423957   278A      0.425033  
     279A      0.427585   280A      0.427670   281A      0.430571  
     282A      0.434488   283A      0.435174   284A      0.436543  
     285A      0.437749   286A      0.437935   287A      0.438229  
     288A      0.439048   289A      0.442863   290A      0.444727  
     291A      0.444780   292A      0.449301   293A      0.449973  
     294A      0.456523   295A      0.457646   296A      0.457925  
     297A      0.460059   298A      0.467548   299A      0.467644  
     300A      0.472743   301A      0.474624   302A      0.475913  
     303A      0.477007   304A      0.478108   305A      0.480436  
     306A      0.480840   307A      0.481445   308A      0.484410  
     309A      0.492253   310A      0.492691   311A      0.493323  
     312A      0.494635   313A      0.496112   314A      0.496133  
     315A      0.497849   316A      0.504856   317A      0.508405  
     318A      0.514354   319A      0.514601   320A      0.517577  
     321A      0.523531   322A      0.523667   323A      0.525180  
     324A      0.525980   325A      0.526957   326A      0.529099  
     327A      0.530285   328A      0.530477   329A      0.535399  
     330A      0.548086   331A      0.548195   332A      0.549234  
     333A      0.549449   334A      0.550860   335A      0.550996  
     336A      0.560097   337A      0.560149   338A      0.560529  
     339A      0.565258   340A      0.566406   341A      0.568858  
     342A      0.569827   343A      0.569953   344A      0.570805  
     345A      0.582044   346A      0.582075   347A      0.583046  
     348A      0.589456   349A      0.589673   350A      0.595625  
     351A      0.595700   352A      0.595759   353A      0.597786  
     354A      0.604908   355A      0.607625   356A      0.611380  
     357A      0.612669   358A      0.622050   359A      0.624636  
     360A      0.625533   361A      0.627359   362A      0.627620  
     363A      0.630156   364A      0.630192   365A      0.632929  
     366A      0.639708   367A      0.640101   368A      0.641313  
     369A      0.641559   370A      0.644994   371A      0.647557  
     372A      0.648550   373A      0.651817   374A      0.653563  
     375A      0.653942   376A      0.656138   377A      0.656951  
     378A      0.657203   379A      0.657780   380A      0.658097  
     381A      0.661543   382A      0.672112   383A      0.672713  
     384A      0.673883   385A      0.674135   386A      0.674409  
     387A      0.683190   388A      0.690559   389A      0.690898  
     390A      0.696661   391A      0.697949   392A      0.698644  
     393A      0.709282   394A      0.710234   395A      0.710262  
     396A      0.711833   397A      0.715054   398A      0.715071  
     399A      0.716322   400A      0.716491   401A      0.717971  
     402A      0.718146   403A      0.718407   404A      0.723633  
     405A      0.724145   406A      0.724630   407A      0.727049  
     408A      0.727641   409A      0.728728   410A      0.735828  
     411A      0.738003   412A      0.738142   413A      0.740442  
     414A      0.743098   415A      0.745777   416A      0.745824  
     417A      0.746870   418A      0.748646   419A      0.753971  
     420A      0.755183   421A      0.755664   422A      0.756914  
     423A      0.765310   424A      0.776570   425A      0.782769  
     426A      0.793910   427A      0.794019   428A      0.798973  
     429A      0.799008   430A      0.810601   431A      0.810796  
     432A      0.814144   433A      0.816733   434A      0.819855  
     435A      0.830704   436A      0.830718   437A      0.835903  
     438A      0.836019   439A      0.838900   440A      0.841148  
     441A      0.848107   442A      0.848408   443A      0.848451  
     444A      0.855324   445A      0.867048   446A      0.874848  
     447A      0.874894   448A      0.883031   449A      0.897825  
     450A      0.900616   451A      0.909422   452A      0.909485  
     453A      0.918265   454A      0.918270   455A      0.927184  
     456A      0.939776   457A      0.941931   458A      0.948497  
     459A      0.948727   460A      0.949143   461A      0.953066  
     462A      0.959213   463A      0.965135   464A      0.973559  
     465A      0.977841   466A      0.977864   467A      0.993583  
     468A      0.993647   469A      1.008692   470A      1.014890  
     471A      1.014971   472A      1.018260   473A      1.018315  
     474A      1.019762   475A      1.030209   476A      1.046935  
     477A      1.052083   478A      1.052206   479A      1.055240  
     480A      1.064994   481A      1.095426   482A      1.102650  
     483A      1.104628   484A      1.104714   485A      1.110938  
     486A      1.111059   487A      1.124821   488A      1.125172  
     489A      1.125692   490A      1.132355   491A      1.132393  
     492A      1.138259   493A      1.146381   494A      1.146425  
     495A      1.149486   496A      1.152692   497A      1.161364  
     498A      1.169717   499A      1.169739   500A      1.177507  
     501A      1.179523   502A      1.237801   503A      1.245681  
     504A      1.245692   505A      1.251512   506A      1.255847  
     507A      1.255914   508A      1.260665   509A      1.270856  
     510A      1.271514   511A      1.271665   512A      1.277116  
     513A      1.279184   514A      1.313559   515A      1.317117  
     516A      1.320369   517A      1.320396   518A      1.344879  
     519A      1.370194   520A      1.392658   521A      1.393085  
     522A      1.410886   523A      1.411580   524A      1.413606  
     525A      1.416618   526A      1.416951   527A      1.419722  
     528A      1.421421   529A      1.432368   530A      1.432924  
     531A      1.462781   532A      1.477533   533A      1.493585  
     534A      1.502743   535A      1.504473   536A      1.504740  
     537A      1.506829   538A      1.508080   539A      1.515968  
     540A      1.518110   541A      1.561826   542A      1.571262  
     543A      1.584791   544A      1.587981   545A      1.596862  
     546A      1.600221   547A      1.603589   548A      1.609389  
     549A      1.610746   550A      1.611134   551A      1.618156  
     552A      1.632257   553A      1.633240   554A      1.634071  
     555A      1.641317   556A      1.648702   557A      1.659664  
     558A      1.668552   559A      1.679555   560A      1.685315  
     561A      1.694332   562A      1.695513   563A      1.696465  
     564A      1.698203   565A      1.698853   566A      1.701921  
     567A      1.706968   568A      1.710184   569A      1.710685  
     570A      1.713883   571A      1.719255   572A      1.730089  
     573A      1.735753   574A      1.740476   575A      1.741036  
     576A      1.742278   577A      1.744996   578A      1.746287  
     579A      1.747200   580A      1.749794   581A      1.754224  
     582A      1.755842   583A      1.760444   584A      1.773440  
     585A      1.773985   586A      1.778525   587A      1.778723  
     588A      1.779886   589A      1.780117   590A      1.782648  
     591A      1.783281   592A      1.789889   593A      1.790422  
     594A      1.790537   595A      1.791072   596A      1.793058  
     597A      1.804993   598A      1.805640   599A      1.808659  
     600A      1.810335   601A      1.810719   602A      1.816358  
     603A      1.824488   604A      1.825670   605A      1.826154  
     606A      1.829914   607A      1.834648   608A      1.836363  
     609A      1.837584   610A      1.841581   611A      1.842625  
     612A      1.843031   613A      1.853709   614A      1.855096  
[...]
     793A      1.643896   794A      1.649609   795A      1.660819  
     796A      1.660952   797A      1.662282   798A      1.667397  
     799A      1.673176   800A      1.676246   801A      1.676335  
     802A      1.676736   803A      1.676740   804A      1.677009  
     805A      1.683666   806A      1.686598   807A      1.686654  
     808A      1.696034   809A      1.697229   810A      1.699324  
     811A      1.699365   812A      1.700689   813A      1.704740  
     814A      1.704808   815A      1.715726   816A      1.715729  
     817A      1.741672   818A      1.751382   819A      1.754220  
     820A      1.760249   821A      1.760275   822A      1.761059  
     823A      1.761730   824A      1.776704   825A      1.776748  
     826A      1.783321   827A      1.791467   828A      1.791497  
     829A      1.795490   830A      1.798528   831A      1.801752  
     832A      1.816522   833A      1.816545   834A      1.816647  
     835A      1.818018   836A      1.824638   837A      1.824744  
     838A      1.830573   839A      1.830802   840A      1.831986  
     841A      1.836668   842A      1.842395   843A      1.842669  
     844A      1.854045   845A      1.860686   846A      1.860745  
     847A      1.860813   848A      1.860859   849A      1.864041  
     850A      1.868594   851A      1.872157   852A      1.880140  
     853A      1.880206   854A      1.887847   855A      1.895361  
     856A      1.896116   857A      1.896225   858A      1.899384  
     859A      1.902936   860A      1.903063   861A      1.908537  
     862A      1.908688   863A      1.912615   864A      1.913905  
     865A      1.914118   866A      1.917633   867A      1.917780  
     868A      1.919228   869A      1.921960   870A      1.922051  
     871A      1.940466   872A      1.940961   873A      1.941592  
     874A      1.941772   875A      1.941925   876A      1.946403  
     877A      1.946443   878A      1.953893   879A      1.954002  
     880A      1.954235   881A      1.954346   882A      1.957983  
     883A      1.969901   884A      1.982753   885A      1.982831  
     886A      1.989133   887A      1.992157   888A      1.997092  
     889A      1.998534   890A      1.998553   891A      2.003683  
     892A      2.008000   893A      2.012244   894A      2.012404  
     895A      2.014366   896A      2.026419   897A      2.027818  
     898A      2.029964   899A      2.030031   900A      2.030395  
     901A      2.030752   902A      2.031212   903A      2.031332  
     904A      2.036202   905A      2.046050   906A      2.047986  
     907A      2.051760   908A      2.052064   909A      2.055288  
     910A      2.057321   911A      2.058105   912A      2.058984  
     913A      2.059940   914A      2.068202   915A      2.069959  
     916A      2.071097   917A      2.071436   918A      2.075326  
     919A      2.075536   920A      2.079671   921A      2.081303  
     922A      2.084135   923A      2.084184   924A      2.084868  
     925A      2.092703   926A      2.093875   927A      2.095346  
     928A      2.096842   929A      2.100467   930A      2.100512  
     931A      2.105129   932A      2.107764   933A      2.108216  
     934A      2.108453   935A      2.109057   936A      2.109384  
     937A      2.110138   938A      2.114026   939A      2.119104  
     940A      2.119213   941A      2.120098   942A      2.120214  
     943A      2.121771   944A      2.125831   945A      2.126047  
     946A      2.130130   947A      2.133375   948A      2.134553  
     949A      2.135721   950A      2.135801   951A      2.139377  
     952A      2.143153   953A      2.143203   954A      2.155341  
     955A      2.156572   956A      2.159580   957A      2.159633  
     958A      2.162671   959A      2.162746   960A      2.171212  
     961A      2.178198   962A      2.178285   963A      2.183739  
     964A      2.190329   965A      2.190510   966A      2.190746  
     967A      2.192483   968A      2.193785   969A      2.195777  
     970A      2.195863   971A      2.198261   972A      2.210625  
     973A      2.219648   974A      2.220234   975A      2.220322  
     976A      2.227627   977A      2.228102   978A      2.228446  
     979A      2.228849   980A      2.231533   981A      2.243211  
     982A      2.243546   983A      2.243788   984A      2.244152  
     985A      2.247047   986A      2.260028   987A      2.260119  
     988A      2.265696   989A      2.270104   990A      2.270114  
     991A      2.271968   992A      2.272048   993A      2.272925  
     994A      2.281041   995A      2.294399   996A      2.300203  
     997A      2.306656   998A      2.310081   999A      2.310553  
    1000A      2.312088  1001A      2.319682  1002A      2.322220  
    1003A      2.330904  1004A      2.330959  1005A      2.331055  
    1006A      2.333799  1007A      2.335278  1008A      2.336354  
    1009A      2.350664  1010A      2.351324  1011A      2.352327  
    1012A      2.352407  1013A      2.366229  1014A      2.366345  
    1015A      2.374587  1016A      2.379159  1017A      2.382283  
    1018A      2.415803  1019A      2.423987  1020A      2.424353  
    1021A      2.424381  1022A      2.436437  1023A      2.439648  
    1024A      2.441068  1025A      2.441140  1026A      2.444945  
    1027A      2.452973  1028A      2.466803  1029A      2.469896  
    1030A      2.472547  1031A      2.472700  1032A      2.473897  
    1033A      2.485293  1034A      2.485331  1035A      2.502281  
    1036A      2.503457  1037A      2.519036  1038A      2.529627  
    1039A      2.529823  1040A      2.543194  1041A      2.545208  
    1042A      2.545257  1043A      2.554157  1044A      2.554198  
    1045A      2.554776  1046A      2.559802  1047A      2.559808  
    1048A      2.572945  1049A      2.572967  1050A      2.573835  
    1051A      2.574670  1052A      2.575192  1053A      2.586199  
    1054A      2.586332  1055A      2.587194  1056A      2.589692  
    1057A      2.591377  1058A      2.605912  1059A      2.623344  
    1060A      2.623402  1061A      2.624821  1062A      2.630277  
    1063A      2.631401  1064A      2.631874  1065A      2.641027  
    1066A      2.641150  1067A      2.642017  1068A      2.648094  
    1069A      2.650753  1070A      2.651148  1071A      2.656292  
    1072A      2.656833  1073A      2.671321  1074A      2.681800  
    1075A      2.682978  1076A      2.683952  1077A      2.686750  
    1078A      2.701859  1079A      2.702265  1080A      2.712985  
    1081A      2.712992  1082A      2.718619  1083A      2.718644  
    1084A      2.722436  1085A      2.722646  1086A      2.734198  
    1087A      2.737009  1088A      2.745467  1089A      2.752067  
    1090A      2.752380  1091A      2.765093  1092A      2.776885  
    1093A      2.794332  1094A      2.794438  1095A      2.801466  
    1096A      2.815039  1097A      2.827072  1098A      2.827436  
    1099A      2.833114  1100A      2.851035  1101A      2.851351  
    1102A      2.855995  1103A      2.858287  1104A      2.859189  
    1105A      2.859406  1106A      2.866822  1107A      2.871543  
    1108A      2.887384  1109A      2.906261  1110A      2.916657  
    1111A      2.916864  1112A      2.921109  1113A      2.923444  
    1114A      2.933467  1115A      2.933530  1116A      2.943284  
    1117A      2.949538  1118A      2.949563  1119A      2.962660  
    1120A      2.968071  1121A      2.990868  1122A      3.003181  
    1123A      3.006212  1124A      3.006519  1125A      3.011847  
    1126A      3.029241  1127A      3.035015  1128A      3.064062  
    1129A      3.064090  1130A      3.070404  1131A      3.070451  
    1132A      3.109296  1133A      3.110114  1134A      3.127131  
    1135A      3.129406  1136A      3.129631  1137A      3.137433  
    1138A      3.138702  1139A      3.145935  1140A      3.146120  
    1141A      3.146199  1142A      3.148848  1143A      3.148853  
    1144A      3.157509  1145A      3.157916  1146A      3.165521  
    1147A      3.165994  1148A      3.191591  1149A      3.211127  
    1150A      3.218204  1151A      3.237188  1152A      3.271647  
    1153A      3.276882  1154A      3.277064  1155A      3.281729  
    1156A      3.281864  1157A      3.283439  1158A      3.302168  
    1159A      3.315006  1160A      3.391605  1161A      3.416137  
    1162A      3.416715  1163A      3.442718  1164A      3.481211  
    1165A      3.483848  1166A      3.520812  1167A      3.548959  
    1168A      3.564295  1169A      3.576958  1170A      3.578931  
    1171A      3.593792  1172A      3.626433  1173A      3.628424  
    1174A      3.642022  1175A      3.662691  1176A      3.666956  
    1177A      3.754823  1178A      3.769202  1179A      3.782598  
    1180A      3.783577  1181A      3.812978  1182A      3.865140  
    1183A      3.870664  1184A      3.870696  1185A      3.913020  
    1186A      3.913135  1187A      3.955469  1188A      3.976883  
    1189A      4.010836  1190A      4.032606  1191A      4.044483  
    1192A      4.080567  1193A      4.201904  1194A      4.205100  
    1195A      4.336577  1196A      4.356986  1197A      4.480079  
    1198A      4.731565  1199A      4.769620  1200A      4.825996  
    1201A      4.842983  1202A      4.932528  1203A      5.046285  
    1204A      5.053350  1205A      5.062689  1206A      5.107337  
    1207A      5.123812  1208A      5.388097  1209A      5.418073  
    1210A      5.728999  1211A      5.749224  1212A      6.064362  
    1213A     18.195933  1214A     18.450029  1215A     18.467419  
    1216A     18.555417  1217A     18.828055  1218A     25.336019  
    1219A     25.371980  

    Final Occupation by Irrep:
              A 
    DOCC [   171 ]
    NA   [   171 ]
    NB   [   171 ]

  @DF-RHF Final Energy: -2055.89160279195312

   => Energetics <=

    Nuclear Repulsion Energy =           6452.5568002797781446
    One-Electron Energy =              -15636.4240783259101590
    Two-Electron Energy =                7127.9756752541779861
    Total Energy =                      -2055.8916027919531189

Computation Completed


Properties will be evaluated at   0.000000,   0.000000,   0.000000 [a0]

Properties computed using the SCF density matrix


 Multipole Moments:

 ------------------------------------------------------------------------------------
     Multipole            Electronic (a.u.)      Nuclear  (a.u.)        Total (a.u.)
 ------------------------------------------------------------------------------------

 L = 1.  Multiply by 2.5417464519 to convert [e a0] to [Debye]
 Dipole X            :          0.0001053           -0.0000085            0.0000968
 Dipole Y            :        117.1649105         -117.1648546            0.0000559
 Dipole Z            :       -756.2703751          756.2707280            0.0003529
 Magnitude           :                                                    0.0003702

 ------------------------------------------------------------------------------------

*** tstop() called on d-16-7-4 at Mon Jan 22 22:51:33 2024
Module time:
	user time   =    2821.52 seconds =      47.03 minutes
	system time =      65.59 seconds =       1.09 minutes
	total time  =        412 seconds =       6.87 minutes
Total time:
	user time   =    8563.87 seconds =     142.73 minutes
	system time =     192.29 seconds =       3.20 minutes
	total time  =       1220 seconds =      20.33 minutes
  Constructing Basis Sets for SAPT...

   => Loading Basis Set <=

    Name: (JUN-CC-PVDZ AUX)
    Role: RIFIT
    Keyword: DF_BASIS_SAPT
    atoms 1-2, 4-5, 10, 17-70 entry C          line   100 file /home/gridsan/tfroembgen/.conda/envs/psi4test/share/psi4/basis/jun-cc-pvdz-ri.gbs 
    atoms 3, 6                entry N          line   144 file /home/gridsan/tfroembgen/.conda/envs/psi4test/share/psi4/basis/jun-cc-pvdz-ri.gbs 
    atoms 7-9, 11-16, 71-88   entry H          line    30 file /home/gridsan/tfroembgen/.conda/envs/psi4test/share/psi4/basis/jun-cc-pvdz-ri.gbs 

   => Loading Basis Set <=

    Name: (JUN-CC-PVDZ AUX)
    Role: JKFIT
    Keyword: DF_BASIS_ELST
    atoms 1-2, 4-5, 10, 17-70 entry C          line   146 file /home/gridsan/tfroembgen/.conda/envs/psi4test/share/psi4/basis/jun-cc-pvdz-jkfit.gbs 
    atoms 3, 6                entry N          line   202 file /home/gridsan/tfroembgen/.conda/envs/psi4test/share/psi4/basis/jun-cc-pvdz-jkfit.gbs 
    atoms 7-9, 11-16, 71-88   entry H          line    70 file /home/gridsan/tfroembgen/.conda/envs/psi4test/share/psi4/basis/jun-cc-pvdz-jkfit.gbs 


  //>>>>>>>>>>>>>>>>>>>>>>>>>>>>>>>>>>>//
  //               SSAPT0              //
  //<<<<<<<<<<<<<<<<<<<<<<<<<<<<<<<<<<<//


*** tstart() called on d-16-7-4
*** at Mon Jan 22 22:51:34 2024

        SAPT0  
    Ed Hohenstein
     6 June 2009

      Orbital Information
  --------------------------
    NSO        =      1233
    NMO        =      1219
    NRI        =      4343
    NRI (Elst) =      5440
    NOCC A     =        26
    NOCC B     =       171
    FOCC A     =         7
    FOCC B     =        54
    NVIR A     =      1193
    NVIR B     =      1048

    Elst10,r            =    -0.004842325559 [Eh]
    Exch10              =    -0.000000041608 [Eh]
    Exch10 (S^2)        =    -0.000000041608 [Eh]

    Iter     Energy [mEh]          dE [mEh]         Residual      Time [s]
       1      -0.00842745       0.008427446       0.865815161           147
       2      -0.00800942      -0.000418023       0.229905729           240
       3      -0.00882958       0.000820161       0.065333830           266
       4      -0.00888164       0.000052056       0.030281316           289
       5      -0.00884325      -0.000038392       0.009459811           309
       6      -0.00884229      -0.000000960       0.002829484           328
       7      -0.00884469       0.000002400       0.000944489           343
       8      -0.00884527       0.000000580       0.000231132           358
       9      -0.00884518      -0.000000086       0.000082307           372
      10      -0.00884512      -0.000000057       0.000021557           388
      11      -0.00884513       0.000000003       0.000006066           405
      12      -0.00884513       0.000000003       0.000002062           422
      13      -0.00884513       0.000000000       0.000000682           438

    CHF Iterations converged


    Iter     Energy [mEh]          dE [mEh]         Residual      Time [s]
       1      -1.47215185       1.472151853      19.684579720           197
       2      -1.01554120      -0.456610658       2.390409742           948
       3      -1.02074278       0.005201589       0.950947488          1393
       4      -1.04601802       0.025275237       0.232637551          1741
       5      -1.04723724       0.001219222       0.079194471          1929
       6      -1.04646556      -0.000771681       0.043510930          1998
       7      -1.04626609      -0.000199473       0.021438889          2033
       8      -1.04643161       0.000165524       0.013190318          2057
       9      -1.04648138       0.000049765       0.008332096          2084
      10      -1.04644682      -0.000034559       0.005631241          2111
      11      -1.04642780      -0.000019015       0.002507458          2144
      12      -1.04643398       0.000006176       0.001039391          2205
      13      -1.04643742       0.000003442       0.000388816          2234
      14      -1.04643707      -0.000000353       0.000176944          2254
      15      -1.04643642      -0.000000643       0.000088508          2277
      16      -1.04643633      -0.000000094       0.000041877          2302
      17      -1.04643651       0.000000183       0.000018318          2330
      18      -1.04643652       0.000000011       0.000009058          2357
      19      -1.04643650      -0.000000025       0.000004777          2382
      20      -1.04643649      -0.000000006       0.000001697          2660
      21      -1.04643650       0.000000004       0.000000797          2948

    CHF Iterations converged

    Ind20,r (A<-B)      =    -0.000008845130 [Eh]
    Ind20,r (B<-A)      =    -0.001046436497 [Eh]
    Ind20,r             =    -0.001055281627 [Eh]
    Exch-Ind20,r (A<-B) =     0.000000002913 [Eh]
    Exch-Ind20,r (B<-A) =     0.000000011139 [Eh]
    Exch-Ind20,r        =     0.000000014051 [Eh]
    Disp20              =    -0.000365307879 [Eh]
    Disp20 (SS)         =    -0.000182653939 [Eh]
    Disp20 (OS)         =    -0.000182653939 [Eh]
    Exch-Disp20         =     0.000000006332 [Eh]
    Exch-Disp20 (SS)    =     0.000000004627 [Eh]
    Exch-Disp20 (OS)    =     0.000000001706 [Eh]

    SAPT Results 
  --------------------------------------------------------------------------------------------------------
    Electrostatics                 -4.84232556 [mEh]      -3.03860516 [kcal/mol]     -12.71352400 [kJ/mol]
      Elst10,r                     -4.84232556 [mEh]      -3.03860516 [kcal/mol]     -12.71352400 [kJ/mol]

    Exchange                       -0.00004161 [mEh]      -0.00002611 [kcal/mol]      -0.00010924 [kJ/mol]
      Exch10                       -0.00004161 [mEh]      -0.00002611 [kcal/mol]      -0.00010924 [kJ/mol]
      Exch10(S^2)                  -0.00004161 [mEh]      -0.00002611 [kcal/mol]      -0.00010924 [kJ/mol]

    Induction                      -1.06511338 [mEh]      -0.66836873 [kcal/mol]      -2.79645478 [kJ/mol]
      Ind20,r                      -1.05528163 [mEh]      -0.66219922 [kcal/mol]      -2.77064153 [kJ/mol]
      Exch-Ind20,r                  0.00001405 [mEh]       0.00000882 [kcal/mol]       0.00003689 [kJ/mol]
      delta HF,r (2)               -0.00984580 [mEh]      -0.00617833 [kcal/mol]      -0.02585014 [kJ/mol]

    Dispersion                     -0.36530155 [mEh]      -0.22923018 [kcal/mol]      -0.95909908 [kJ/mol]
      Disp20                       -0.36530788 [mEh]      -0.22923415 [kcal/mol]      -0.95911570 [kJ/mol]
      Exch-Disp20                   0.00000633 [mEh]       0.00000397 [kcal/mol]       0.00001663 [kJ/mol]
      Disp20 (SS)                  -0.18265394 [mEh]      -0.11461708 [kcal/mol]      -0.47955785 [kJ/mol]
      Disp20 (OS)                  -0.18265394 [mEh]      -0.11461708 [kcal/mol]      -0.47955785 [kJ/mol]
      Exch-Disp20 (SS)              0.00000463 [mEh]       0.00000290 [kcal/mol]       0.00001215 [kJ/mol]
      Exch-Disp20 (OS)              0.00000171 [mEh]       0.00000107 [kcal/mol]       0.00000448 [kJ/mol]

  Total HF                         -5.90748054 [mEh]      -3.70700001 [kcal/mol]     -15.51008803 [kJ/mol]
  Total SAPT0                      -6.27278209 [mEh]      -3.93623019 [kcal/mol]     -16.46918711 [kJ/mol]

  Special recipe for scaled SAPT0 (see Manual):
    Electrostatics sSAPT0          -4.84232556 [mEh]      -3.03860516 [kcal/mol]     -12.71352400 [kJ/mol]
    Exchange sSAPT0                -0.00004161 [mEh]      -0.00002611 [kcal/mol]      -0.00010924 [kJ/mol]
    Induction sSAPT0               -1.06511338 [mEh]      -0.66836873 [kcal/mol]      -2.79645478 [kJ/mol]
    Dispersion sSAPT0              -0.36530155 [mEh]      -0.22923018 [kcal/mol]      -0.95909908 [kJ/mol]
  Total sSAPT0                     -6.27278209 [mEh]      -3.93623019 [kcal/mol]     -16.46918711 [kJ/mol]
  --------------------------------------------------------------------------------------------------------

*** tstop() called on d-16-7-4 at Tue Jan 23 00:23:26 2024
Module time:
	user time   =    9086.77 seconds =     151.45 minutes
	system time =     919.75 seconds =      15.33 minutes
	total time  =       5512 seconds =      91.87 minutes
Total time:
	user time   =   17651.68 seconds =     294.19 minutes
	system time =    1112.07 seconds =      18.53 minutes
	total time  =       6733 seconds =     112.22 minutes

    Psi4 stopped on: Tuesday, 23 January 2024 12:23AM
    Psi4 wall time for execution: 1:52:14.20

*** Psi4 exiting successfully. Buy a developer a beer!
