
    -----------------------------------------------------------------------
          Psi4: An Open-Source Ab Initio Electronic Structure Package
                               Psi4 1.9 release

                         Git: Rev {} zzzzzzz 


    D. G. A. Smith, L. A. Burns, A. C. Simmonett, R. M. Parrish,
    M. C. Schieber, R. Galvelis, P. Kraus, H. Kruse, R. Di Remigio,
    A. Alenaizan, A. M. James, S. Lehtola, J. P. Misiewicz, M. Scheurer,
    R. A. Shaw, J. B. Schriber, Y. Xie, Z. L. Glick, D. A. Sirianni,
    J. S. O'Brien, J. M. Waldrop, A. Kumar, E. G. Hohenstein,
    B. P. Pritchard, B. R. Brooks, H. F. Schaefer III, A. Yu. Sokolov,
    K. Patkowski, A. E. DePrince III, U. Bozkaya, R. A. King,
    F. A. Evangelista, J. M. Turney, T. D. Crawford, C. D. Sherrill,
    J. Chem. Phys. 152(18) 184108 (2020). https://doi.org/10.1063/5.0006002

                            Additional Code Authors
    E. T. Seidl, C. L. Janssen, E. F. Valeev, M. L. Leininger,
    J. F. Gonthier, R. M. Richard, H. R. McAlexander, M. Saitow, X. Wang,
    P. Verma, M. H. Lechner, A. Jiang, S. Behnle, A. G. Heide,
    M. F. Herbst, and D. L. Poole

             Previous Authors, Complete List of Code Contributors,
                       and Citations for Specific Modules
    https://github.com/psi4/psi4/blob/master/codemeta.json
    https://github.com/psi4/psi4/graphs/contributors
    http://psicode.org/psi4manual/master/introduction.html#citing-psifour

    -----------------------------------------------------------------------


    Psi4 started on: Saturday, 27 January 2024 11:51AM

    Process ID: 3204035
    Host:       n2cn0808.ab2021.local
    PSIDATADIR: /opt/software/pc2/EB-SW/software/PSI4/1.9-foss-2022a/share/psi4
    Memory:     500.0 MiB
    Threads:    16
    
  ==> Input File <==

--------------------------------------------------------------------------
memory 64 GB # how much memory is available ! Depends on the nodes/cores !

molecule dimer {
# monomer A
-1 1    # Charge and multiplicity
B -0.000046  0.000337 7.399994
F -1.153597  0.000048 8.215641
F  1.153661 -0.000581 8.215641
F -0.000019 -1.153637 6.584360
F -0.000019  1.153978 6.584360
--
# monomer B
0 1     # Charge and multiplicity
C   -3.66844126402057      7.80375217008252      0.00190004133558
C   -4.84759871934653      7.13124183134024     -0.00046653359696
C   -4.89495929917518      5.69633040353158     -0.00103944469517
C   -3.65374067877320      4.98073034095895      0.00662099703436
C   -2.40942512149445      7.11398103667468      0.00209438359570
C   -2.42547734410473      5.68112195090346     -0.00491050527438
C   -1.19474401643570      7.78614419430947      0.00356656413763
C   0.03795902893699      7.09942164575698      0.00139585983271
C   0.03033258741920      5.66948955970466     -0.00408752508301
C   -1.20098450790502      4.96927034791531      0.00488220885047
C   1.27795782581485      7.77285944319479      0.00277170839332
C   2.48535808472416      7.08769688523756      0.00049722048857
C   2.48612868491717      5.65477081024076     -0.00644052849921
C   1.25408291964399      4.95607811366431      0.00518741308898
C   3.75171459140595      7.76391215098033      0.00062407186893
C   4.92356605618520      7.07878077698995     -0.00143240883900
C   4.95560727132542      5.64344746336949     -0.00159282164606
C   3.70680153420475      4.94121020833308      0.00349873852374
H   -3.65852113775815      8.89082741913536      0.00358502958574
H   -1.18921332975660      8.87412108735996      0.00753844057883
H   1.28429423888630      8.86083343548850      0.00693053253426
H   3.75354208679975      8.85103527897216      0.00214659618464
H   5.86995870320703      7.61379483465560     -0.00235777588134
H   -5.78823170750226      7.67630221293400     -0.00202638095293
C   -6.09197395869619      4.99326001364347     -0.00291168518608
C   -6.12866148031747      3.58258016879823     -0.00171050815740
C   -3.66457974004527      3.56418217974434     -0.00463560277484
C   -4.89429820469869      2.86108077590057      0.00453338221034
C   -2.43733499489796      2.84761165708481      0.00719617576166
C   -1.20922785759670      3.54788693497833     -0.00648285103018
C   1.24714157216223      3.53468075142962     -0.00729145743546
C   0.01517603956900      2.83311183930540      0.00439272578912
C   2.46764517244071      2.82128997725533      0.00449278391269
C   3.70254947457969      3.52466015442405     -0.00899517692985
C   6.14498038638375      4.92757236613191     -0.00282626685777
C   6.16658835886151      3.51658447594213     -0.00065971342101
C   4.92460995845939      2.80840792535402      0.00587903281610
H   7.08990550964105      5.46688776622306     -0.00658814770723
H   -7.03104175110130      5.54268795285765     -0.00714490013730
C   -7.33969804112295      2.85841153457957     -0.00333767559888
C   -7.36488195805880      1.47032337158330     -0.00157213747140
C   -4.90350460894690      1.44442681216000     -0.00628840166334
C   -6.13225715261081      0.73993935705394      0.00600164231964
C   -3.67687480051673      0.72669714267312      0.00433931473643
C   -2.44565658606518      1.42964113326212     -0.00597039546461
C   -1.22360068130162      0.71532450163492      0.00545886906656
C   0.00763786931376      1.41738314923765      0.00392452278437
C   1.23121980774686      0.70211669058719     -0.01490206287210
C   2.46082110053113      1.40329203612573      0.00460244601878
C   3.68443025419614      0.68719842821222      0.00377365974158
C   4.91870890153864      1.39173456118907     -0.00862816189375
C   7.36980207796101      2.77948220318441     -0.00242013321349
C   7.38016266612146      1.39121750785509     -0.00087345036788
C   6.13979953912259      0.67411862320065      0.00545489144369
H   -8.27919079934664      3.40711804112415     -0.00763522772059
H   8.31511347147953      3.31811809662368     -0.00663070901292
C   -8.59175593758115      0.72483255304480     -0.00123170985383
C   -8.59902460370342     -0.63263980622873      0.00089141472904
C   -6.13981313911873     -0.67413663715361     -0.00609792660607
C   -7.38018411213749     -1.39126618958160      0.00131813493501
C   -4.91868448025621     -1.39175501803000      0.00624257154343
C   -3.68443829568458     -0.68723731573599     -0.00478966852105
C   -2.46081704024768     -1.40334517882457      0.00575341766833
C   -1.23116201232071     -0.70217386488055     -0.00636696112346
C   -0.00756962538737     -1.41741884941102      0.00108956317991
C   1.22364771588843     -0.71527537726392      0.01109518512883
C   2.44567064933149     -1.42964328900682     -0.00065482763106
C   3.67686670284649     -0.72670743155550     -0.00479541202602
C   6.13224884641929     -0.73997883984993     -0.00632338623858
C   4.90351914550401     -1.44445752054090      0.00751768830159
C   8.59901484869081      0.63260386666793     -0.00101133422380
C   8.59174548810050     -0.72485086719319      0.00072504603735
C   7.36486276438985     -1.47033266560598      0.00049486934466
H   -9.52830597181814      1.27684744919284     -0.00270163681798
H   9.54141097460619      1.17457248844457     -0.00206336648518
C   -7.36983790976868     -2.77954514593389      0.00312634335708
C   -4.92459910905015     -2.80843725734101     -0.00460528907921
C   -6.16662249566744     -3.51665219282533      0.00169655107992
C   -3.70251035970491     -3.52468154912026      0.00571878010666
C   -2.46764698511392     -2.82132596280400     -0.00632585824990
C   -0.01513347410770     -2.83314164539971     -0.00604426974092
C   -1.24712184122656     -3.53473217556300      0.00551968366725
C   1.20924506964357     -3.54791467864352      0.00805871345849
C   2.43733602215464     -2.84764173817541     -0.00608104485234
C   4.89430234377080     -2.86112296828604     -0.00526030478103
C   3.66461525504104     -3.56421984553201      0.00761911515957
C   6.12863901474565     -3.58258405771778      0.00096495711699
C   7.33967266469532     -2.85841330737039      0.00248018319869
H   -9.54144911125902     -1.17456346666430      0.00226083090216
H   9.52826186807155     -1.27691907390448      0.00197485379837
H   -8.31516504384864     -3.31814985321231      0.00729857188773
H   8.27915514249207     -3.40714078989363      0.00681973918158
C   -6.14499418870218     -4.92764727278338      0.00302254913999
C   -3.70678334799751     -4.94126171411716     -0.00679841894792
C   -4.95559005800169     -5.64349397349412      0.00116871569699
C   -2.48612132622665     -5.65478557440947      0.00614125209662
C   -1.25405833548005     -4.95612205000132     -0.00503435388927
C   1.20101257386816     -4.96928038819302     -0.00385322963129
C   -0.03033667441341     -5.66952030313900      0.00398997003238
C   3.65375010132847     -4.98074377541453     -0.00309522988330
C   2.42549269587528     -5.68117463552727      0.00628170066869
C   6.09196561781097     -4.99325796338655      0.00325918379042
C   4.89497644461045     -5.69634842095790      0.00202298796027
H   -7.08989238804069     -5.46699984223871      0.00742531082125
H   7.03105520920009     -5.54265853633254      0.00683896355417
C   -4.92354532219813     -7.07882109967734      0.00061394679214
C   -2.48534208823777     -7.08772807792913     -0.00189594564379
C   -3.75168589177895     -7.76394715763627     -0.00170126671874
C   -0.03794895698805     -7.09946487446944     -0.00168022049625
C   -1.27795610040136     -7.77290438466689     -0.00366491325785
C   2.40944432072629     -7.11402201200282     -0.00081701968533
C   1.19474993715296     -7.78618536556242     -0.00296931056689
C   4.84762105249800     -7.13126211057943      0.00168979497423
C   3.66847160587561     -7.80378799294376     -0.00065863938960
H   -5.86994035041618     -7.61383059804164      0.00215798365757
H   5.78824962538815     -7.67633218931421      0.00281691445618
H   -3.75352693944918     -8.85107156923607     -0.00353718114765
H   -1.28430440589466     -8.86087539249706     -0.00809229711623
H   1.18922157469537     -8.87416062058945     -0.00706194725726
H   3.65854661482387     -8.89086063405326     -0.00231318081200

    units angstrom      # Angstroms are the default
    no_reorient         # Geometry fixed, default
    symmetry c1         # C1 symmetry, default
}

set {
    scf_type DF         # Density fitting, faster than exact integrals
    freeze_core True    # Freeze core electrons
    basis jun-cc-pVDZ   # Jun-cc-pVDZ basis set, recommended for sSAPT0 in https://doi.org/10.1063/1.4867135
}

energy('ssapt0')        # Compute sSAPT0 energy, includes also SAPT0
--------------------------------------------------------------------------

  Memory set to  59.605 GiB by Python driver.

Scratch directory: /tmp/
   => Loading Basis Set <=

    Name: JUN-CC-PVDZ
    Role: ORBITAL
    Keyword: BASIS
    atoms 1                                                   entry B          line   130 file /opt/software/pc2/EB-SW/software/PSI4/1.9-foss-2022a/share/psi4/basis/jun-cc-pvdz.gbs 
    atoms 2-5                                                 entry F          line   266 file /opt/software/pc2/EB-SW/software/PSI4/1.9-foss-2022a/share/psi4/basis/jun-cc-pvdz.gbs 
    atoms 6-23, 30-42, 45-59, 62-78, 81-93, 98-108, 111-119   entry C          line   164 file /opt/software/pc2/EB-SW/software/PSI4/1.9-foss-2022a/share/psi4/basis/jun-cc-pvdz.gbs 
    atoms 24-29, 43-44, 60-61, 79-80, 94-97, 109-110, 120-125 entry H          line    36 file /opt/software/pc2/EB-SW/software/PSI4/1.9-foss-2022a/share/psi4/basis/jun-cc-pvdz.gbs 

   => Loading Basis Set <=

    Name: JUN-CC-PVDZ
    Role: ORBITAL
    Keyword: BASIS
    atoms 1                                                   entry B          line   130 file /opt/software/pc2/EB-SW/software/PSI4/1.9-foss-2022a/share/psi4/basis/jun-cc-pvdz.gbs 
    atoms 2-5                                                 entry F          line   266 file /opt/software/pc2/EB-SW/software/PSI4/1.9-foss-2022a/share/psi4/basis/jun-cc-pvdz.gbs 
    atoms 6-23, 30-42, 45-59, 62-78, 81-93, 98-108, 111-119   entry C          line   164 file /opt/software/pc2/EB-SW/software/PSI4/1.9-foss-2022a/share/psi4/basis/jun-cc-pvdz.gbs 
    atoms 24-29, 43-44, 60-61, 79-80, 94-97, 109-110, 120-125 entry H          line    36 file /opt/software/pc2/EB-SW/software/PSI4/1.9-foss-2022a/share/psi4/basis/jun-cc-pvdz.gbs 


  //>>>>>>>>>>>>>>>>>>>>>>>>>>>>>>>>>>>//
  //              Dimer HF             //
  //<<<<<<<<<<<<<<<<<<<<<<<<<<<<<<<<<<<//

   => Libint2 <=

    Primary   basis highest AM E, G, H:  5, 4, 3
    Auxiliary basis highest AM E, G, H:  6, 5, 4
    Onebody   basis highest AM E, G, H:  6, 5, 4
    Solid Harmonics ordering:            gaussian

*** tstart() called on n2cn0808.ab2021.local
*** at Sat Jan 27 11:51:55 2024

   => Loading Basis Set <=

    Name: JUN-CC-PVDZ
    Role: ORBITAL
    Keyword: BASIS
    atoms 1                                                   entry B          line   130 file /opt/software/pc2/EB-SW/software/PSI4/1.9-foss-2022a/share/psi4/basis/jun-cc-pvdz.gbs 
    atoms 2-5                                                 entry F          line   266 file /opt/software/pc2/EB-SW/software/PSI4/1.9-foss-2022a/share/psi4/basis/jun-cc-pvdz.gbs 
    atoms 6-23, 30-42, 45-59, 62-78, 81-93, 98-108, 111-119   entry C          line   164 file /opt/software/pc2/EB-SW/software/PSI4/1.9-foss-2022a/share/psi4/basis/jun-cc-pvdz.gbs 
    atoms 24-29, 43-44, 60-61, 79-80, 94-97, 109-110, 120-125 entry H          line    36 file /opt/software/pc2/EB-SW/software/PSI4/1.9-foss-2022a/share/psi4/basis/jun-cc-pvdz.gbs 


         ---------------------------------------------------------
                                   SCF
               by Justin Turney, Rob Parrish, Andy Simmonett
                          and Daniel G. A. Smith
                              RHF Reference
                       16 Threads,  61035 MiB Core
         ---------------------------------------------------------

  ==> Geometry <==

    Molecular point group: c1
    Full point group: C1

    Geometry (in Angstrom), charge = -1, multiplicity = 1:

       Center              X                  Y                   Z               Mass       
    ------------   -----------------  -----------------  -----------------  -----------------
         B           -0.000050191042     0.000351518223     6.890312048050    11.009305360000
         F           -1.153601191042     0.000062518223     7.705959048050    18.998403162730
         F            1.153656808958    -0.000566481777     7.705959048050    18.998403162730
         F           -0.000023191042    -1.153622481777     6.074678048050    18.998403162730
         F           -0.000023191042     1.153992518223     6.074678048050    18.998403162730
         C           -3.668445455062     7.803766688305    -0.507781910615    12.000000000000
         C           -4.847602910388     7.131256349563    -0.510148485547    12.000000000000
         C           -4.894963490217     5.696344921754    -0.510721396646    12.000000000000
         C           -3.653744869815     4.980744859182    -0.503060954916    12.000000000000
         C           -2.409429312536     7.113995554897    -0.507587568355    12.000000000000
         C           -2.425481535146     5.681136469126    -0.514592457225    12.000000000000
         C           -1.194748207477     7.786158712532    -0.506115387813    12.000000000000
         C            0.037954837895     7.099436163980    -0.508286092118    12.000000000000
         C            0.030328396378     5.669504077927    -0.513769477033    12.000000000000
         C           -1.200988698947     4.969284866138    -0.504799743100    12.000000000000
         C            1.277953634773     7.772873961417    -0.506910243557    12.000000000000
         C            2.485353893683     7.087711403460    -0.509184731462    12.000000000000
         C            2.486124493876     5.654785328463    -0.516122480450    12.000000000000
         C            1.254078728602     4.956092631887    -0.504494538861    12.000000000000
         C            3.751710400364     7.763926669203    -0.509057880081    12.000000000000
         C            4.923561865144     7.078795295213    -0.511114360789    12.000000000000
         C            4.955603080284     5.643461981592    -0.511274773596    12.000000000000
         C            3.706797343163     4.941224726556    -0.506183213427    12.000000000000
         H           -3.658525328800     8.890841937358    -0.506096922365     1.007825032230
         H           -1.189217520798     8.874135605583    -0.502143511372     1.007825032230
         H            1.284290047845     8.860847953711    -0.502751419416     1.007825032230
         H            3.753537895758     8.851049797195    -0.507535355766     1.007825032230
         H            5.869954512165     7.613809352878    -0.512039727832     1.007825032230
         H           -5.788235898544     7.676316731157    -0.511708332903     1.007825032230
         C           -6.091978149738     4.993274531866    -0.512593637136    12.000000000000
         C           -6.128665671359     3.582594687021    -0.511392460108    12.000000000000
         C           -3.664583931087     3.564196697967    -0.514317554725    12.000000000000
         C           -4.894302395740     2.861095294123    -0.505148569740    12.000000000000
         C           -2.437339185940     2.847626175307    -0.502485776189    12.000000000000
         C           -1.209232048638     3.547901453201    -0.516164802981    12.000000000000
         C            1.247137381121     3.534695269652    -0.516973409386    12.000000000000
         C            0.015171848527     2.833126357528    -0.505289226161    12.000000000000
         C            2.467640981399     2.821304495478    -0.505189168038    12.000000000000
         C            3.702545283538     3.524674672647    -0.518677128880    12.000000000000
         C            6.144976195342     4.927586884354    -0.512508218808    12.000000000000
         C            6.166584167820     3.516598994165    -0.510341665371    12.000000000000
         C            4.924605767418     2.808422443577    -0.503802919134    12.000000000000
         H            7.089901318599     5.466902284446    -0.516270099658     1.007825032230
         H           -7.031045942143     5.542702471080    -0.516826852088     1.007825032230
         C           -7.339702232165     2.858426052802    -0.513019627549    12.000000000000
         C           -7.364886149100     1.470337889806    -0.511254089422    12.000000000000
         C           -4.903508799989     1.444441330383    -0.515970353614    12.000000000000
         C           -6.132261343652     0.739953875277    -0.503680309631    12.000000000000
         C           -3.676878991558     0.726711660896    -0.505342637214    12.000000000000
         C           -2.445660777107     1.429655651485    -0.515652347415    12.000000000000
         C           -1.223604872343     0.715339019858    -0.504223082884    12.000000000000
         C            0.007633678272     1.417397667460    -0.505757429166    12.000000000000
         C            1.231215616705     0.702131208810    -0.524584014823    12.000000000000
         C            2.460816909489     1.403306554348    -0.505079505932    12.000000000000
         C            3.684426063155     0.687212946435    -0.505908292209    12.000000000000
         C            4.918704710497     1.391749079412    -0.518310113844    12.000000000000
         C            7.369797886919     2.779496721407    -0.512102085164    12.000000000000
         C            7.380158475080     1.391232026078    -0.510555402318    12.000000000000
         C            6.139795348081     0.674133141423    -0.504227060507    12.000000000000
         H           -8.279194990388     3.407132559347    -0.517317179671     1.007825032230
         H            8.315109280438     3.318132614846    -0.516312660963     1.007825032230
         C           -8.591760128623     0.724847071267    -0.510913661804    12.000000000000
         C           -8.599028794745    -0.632625288006    -0.508790537221    12.000000000000
         C           -6.139817330160    -0.674122118931    -0.515779878556    12.000000000000
         C           -7.380188303179    -1.391251671359    -0.508363817015    12.000000000000
         C           -4.918688671298    -1.391740499807    -0.503439380407    12.000000000000
         C           -3.684442486726    -0.687222797513    -0.514471620471    12.000000000000
         C           -2.460821231289    -1.403330660602    -0.503928534282    12.000000000000
         C           -1.231166203362    -0.702159346658    -0.516048913074    12.000000000000
         C           -0.007573816429    -1.417404331188    -0.508592388770    12.000000000000
         C            1.223643524847    -0.715260859041    -0.498586766822    12.000000000000
         C            2.445666458290    -1.429628770784    -0.510336779581    12.000000000000
         C            3.676862511805    -0.726692913333    -0.514477363976    12.000000000000
         C            6.132244655378    -0.739964321627    -0.516005338189    12.000000000000
         C            4.903514954462    -1.444443002318    -0.502164263649    12.000000000000
         C            8.599010657649     0.632618384891    -0.510693286174    12.000000000000
         C            8.591741297059    -0.724836348971    -0.508956905913    12.000000000000
         C            7.364858573348    -1.470318147383    -0.509187082606    12.000000000000
         H           -9.528310162860     1.276861967415    -0.512383588768     1.007825032230
         H            9.541406783565     1.174587006667    -0.511745318436     1.007825032230
         C           -7.369842100810    -2.779530627711    -0.506555608593    12.000000000000
         C           -4.924603300092    -2.808422739118    -0.514287241030    12.000000000000
         C           -6.166626686709    -3.516637674603    -0.507985400870    12.000000000000
         C           -3.702514550747    -3.524667030898    -0.503963171844    12.000000000000
         C           -2.467651176156    -2.821311444581    -0.516007810200    12.000000000000
         C           -0.015137665149    -2.833127127177    -0.515726221691    12.000000000000
         C           -1.247126032268    -3.534717657340    -0.504162268283    12.000000000000
         C            1.209240878602    -3.547900160421    -0.501623238492    12.000000000000
         C            2.437331831113    -2.847627219953    -0.515762996803    12.000000000000
         C            4.894298152729    -2.861108450063    -0.514942256731    12.000000000000
         C            3.664611063999    -3.564205327309    -0.502062836791    12.000000000000
         C            6.128634823704    -3.582569539495    -0.508716994833    12.000000000000
         C            7.339668473654    -2.858398789148    -0.507201768752    12.000000000000
         H           -9.541453302301    -1.174548948442    -0.507421121048     1.007825032230
         H            9.528257677030    -1.276904555682    -0.507707098152     1.007825032230
         H           -8.315169234890    -3.318135334990    -0.502383380063     1.007825032230
         H            8.279150951450    -3.407126271671    -0.502862212769     1.007825032230
         C           -6.144998379744    -4.927632754561    -0.506659402810    12.000000000000
         C           -3.706787539039    -4.941247195895    -0.516480370898    12.000000000000
         C           -4.955594249043    -5.643479455272    -0.508513236253    12.000000000000
         C           -2.486125517268    -5.654771056187    -0.503540699854    12.000000000000
         C           -1.254062526522    -4.956107531779    -0.514716305840    12.000000000000
         C            1.201008382827    -4.969265869970    -0.513535181582    12.000000000000
         C           -0.030340865455    -5.669505784916    -0.505691981918    12.000000000000
         C            3.653745910287    -4.980729257192    -0.512777181834    12.000000000000
         C            2.425488504834    -5.681160117305    -0.503400251282    12.000000000000
         C            6.091961426769    -4.993243445164    -0.506422768160    12.000000000000
         C            4.894972253569    -5.696333902735    -0.507658963990    12.000000000000
         H           -7.089896579082    -5.466985324016    -0.502256641129     1.007825032230
         H            7.031051018158    -5.542644018110    -0.502842988396     1.007825032230
         C           -4.923549513240    -7.078806581455    -0.509068005158    12.000000000000
         C           -2.485346279279    -7.087713559707    -0.511577897594    12.000000000000
         C           -3.751690082821    -7.763932639414    -0.511383218669    12.000000000000
         C           -0.037953148030    -7.099450356247    -0.511362172447    12.000000000000
         C           -1.277960291443    -7.772889866444    -0.513346865208    12.000000000000
         C            2.409440129685    -7.114007493780    -0.510498971636    12.000000000000
         C            1.194745746111    -7.786170847340    -0.512651262517    12.000000000000
         C            4.847616861456    -7.131247592357    -0.507992156976    12.000000000000
         C            3.668467414834    -7.803773474721    -0.510340591340    12.000000000000
         H           -5.869944541458    -7.613816079819    -0.507523968293     1.007825032230
         H            5.788245434347    -7.676317671092    -0.506865037494     1.007825032230
         H           -3.753531130491    -8.851057051013    -0.513219133098     1.007825032230
         H           -1.284308596936    -8.860860874274    -0.517774249067     1.007825032230
         H            1.189217383654    -8.874146102367    -0.516743899208     1.007825032230
         H            3.658542423782    -8.890846115831    -0.511995132762     1.007825032230

  Running in c1 symmetry.

  Rotational constants: A =      0.00059  B =      0.00059  C =      0.00035 [cm^-1]
  Rotational constants: A =     17.77406  B =     17.77136  C =     10.55117 [MHz]
  Nuclear repulsion = 17150.587866825546371

  Charge       = -1
  Multiplicity = 1
  Electrons    = 642
  Nalpha       = 321
  Nbeta        = 321

  ==> Algorithm <==

  SCF Algorithm Type is DF.
  DIIS enabled.
  MOM disabled.
  Fractional occupation disabled.
  Guess Type is SAD.
  Energy threshold   = 1.00e-08
  Density threshold  = 1.00e-08
  Integral threshold = 1.00e-12

  ==> Primary Basis <==

  Basis Set: JUN-CC-PVDZ
    Blend: JUN-CC-PVDZ
    Number of shells: 880
    Number of basis functions: 1938
    Number of Cartesian functions: 2039
    Spherical Harmonics?: true
    Max angular momentum: 2

   => Loading Basis Set <=

    Name: (JUN-CC-PVDZ AUX)
    Role: JKFIT
    Keyword: DF_BASIS_SCF
    atoms 1                                                   entry B          line    90 file /opt/software/pc2/EB-SW/software/PSI4/1.9-foss-2022a/share/psi4/basis/jun-cc-pvdz-jkfit.gbs 
    atoms 2-5                                                 entry F          line   314 file /opt/software/pc2/EB-SW/software/PSI4/1.9-foss-2022a/share/psi4/basis/jun-cc-pvdz-jkfit.gbs 
    atoms 6-23, 30-42, 45-59, 62-78, 81-93, 98-108, 111-119   entry C          line   146 file /opt/software/pc2/EB-SW/software/PSI4/1.9-foss-2022a/share/psi4/basis/jun-cc-pvdz-jkfit.gbs 
    atoms 24-29, 43-44, 60-61, 79-80, 94-97, 109-110, 120-125 entry H          line    70 file /opt/software/pc2/EB-SW/software/PSI4/1.9-foss-2022a/share/psi4/basis/jun-cc-pvdz-jkfit.gbs 

  ==> Integral Setup <==

  ==> DiskDFJK: Density-Fitted J/K Matrices <==

    J tasked:                  Yes
    K tasked:                  Yes
    wK tasked:                  No
    OpenMP threads:             16
    Integrals threads:          16
    Memory [MiB]:            45776
    Algorithm:                Disk
    Integral Cache:           SAVE
    Schwarz Cutoff:          1E-12
    Fitting Condition:       1E-10

   => Auxiliary Basis Set <=

  Basis Set: (JUN-CC-PVDZ AUX)
    Blend: JUN-CC-PVDZ-JKFIT
    Number of shells: 2943
    Number of basis functions: 8531
    Number of Cartesian functions: 9791
    Spherical Harmonics?: true
    Max angular momentum: 3

  Minimum eigenvalue in the overlap matrix is 9.0463550218E-11.
  Reciprocal condition number of the overlap matrix is 3.9671784076E-12.
    Using canonical orthogonalization.
  Overall, 38 of 1938 possible MOs eliminated.


  ==> Pre-Iterations <==

  SCF Guess: Superposition of Atomic Densities via on-the-fly atomic UHF (no occupation information).

   -------------------------
    Irrep   Nso     Nmo    
   -------------------------
     A       1938    1900 
   -------------------------
    Total    1938    1900
   -------------------------

  ==> Iterations <==

                           Total Energy        Delta E     RMS |[F,P]|

   @DF-RHF iter SAD: -4084.99854947458789   -4.08500e+03   0.00000e+00 
   @DF-RHF iter   1: -4071.52646499373714    1.34721e+01   7.87848e-04 DIIS/ADIIS
   @DF-RHF iter   2: -4072.91741672953412   -1.39095e+00   3.06940e-04 DIIS/ADIIS
   @DF-RHF iter   3: -4073.07855892600401   -1.61142e-01   1.01626e-04 DIIS/ADIIS
   @DF-RHF iter   4: -4073.10002024764026   -2.14613e-02   3.67308e-05 DIIS
   @DF-RHF iter   5: -4073.10319158109087   -3.17133e-03   1.07555e-05 DIIS
   @DF-RHF iter   6: -4073.10361286373154   -4.21283e-04   4.19336e-06 DIIS
   @DF-RHF iter   7: -4073.10378869279566   -1.75829e-04   2.16566e-06 DIIS
   @DF-RHF iter   8: -4073.10384111481926   -5.24220e-05   1.17027e-06 DIIS
   @DF-RHF iter   9: -4073.10385708833110   -1.59735e-05   3.64403e-07 DIIS
   @DF-RHF iter  10: -4073.10385808420233   -9.95871e-07   1.70785e-07 DIIS
   @DF-RHF iter  11: -4073.10385825536923   -1.71167e-07   6.17300e-08 DIIS
   @DF-RHF iter  12: -4073.10385828912331   -3.37541e-08   3.13650e-08 DIIS
   @DF-RHF iter  13: -4073.10385829650022   -7.37691e-09   1.04276e-08 DIIS
   @DF-RHF iter  14: -4073.10385829709958   -5.99357e-10   4.49339e-09 DIIS
  Energy and wave function converged.


  ==> Post-Iterations <==

    Orbital Energies [Eh]
    ---------------------

    Doubly Occupied:                                                      

       1A    -26.064733     2A    -26.064699     3A    -26.064640  
       4A    -26.064460     5A    -11.211853     6A    -11.211844  
       7A    -11.211832     8A    -11.211825     9A    -11.211807  
      10A    -11.211805    11A    -11.211804    12A    -11.211798  
      13A    -11.211787    14A    -11.211784    15A    -11.211775  
      16A    -11.211768    17A    -11.211660    18A    -11.211652  
      19A    -11.211650    20A    -11.211641    21A    -11.211621  
      22A    -11.211612    23A    -11.210621    24A    -11.210606  
      25A    -11.210570    26A    -11.210515    27A    -11.210508  
      28A    -11.210422    29A    -11.210409    30A    -11.210318  
      31A    -11.210310    32A    -11.210244    33A    -11.210207  
      34A    -11.210185    35A    -11.209868    36A    -11.209794  
      37A    -11.209761    38A    -11.209613    39A    -11.209601  
      40A    -11.209436    41A    -11.209322    42A    -11.209296  
      43A    -11.209122    44A    -11.209114    45A    -11.209075  
      46A    -11.209054    47A    -11.208972    48A    -11.208905  
      49A    -11.208875    50A    -11.208802    51A    -11.208781  
      52A    -11.208775    53A    -11.208494    54A    -11.208469  
      55A    -11.208413    56A    -11.208259    57A    -11.208235  
      58A    -11.208207    59A    -11.208113    60A    -11.208111  
      61A    -11.208088    62A    -11.208085    63A    -11.208075  
      64A    -11.208006    65A    -11.207925    66A    -11.207918  
      67A    -11.207913    68A    -11.207898    69A    -11.207787  
      70A    -11.207754    71A    -11.207732    72A    -11.207724  
      73A    -11.207686    74A    -11.207304    75A    -11.207285  
      76A    -11.206897    77A    -11.206837    78A    -11.206830  
      79A    -11.206792    80A    -11.206790    81A    -11.206787  
      82A    -11.206786    83A    -11.205377    84A    -11.205369  
      85A    -11.205331    86A    -11.205329    87A    -11.205326  
      88A    -11.205325    89A    -11.204173    90A    -11.204159  
      91A    -11.204134    92A    -11.204109    93A    -11.204106  
      94A    -11.204076    95A    -11.204075    96A    -11.204064  
      97A    -11.204043    98A    -11.204012    99A    -11.204010  
     100A    -11.203986   101A     -7.536921   102A     -1.408586  
     103A     -1.348897   104A     -1.348841   105A     -1.348641  
     106A     -1.200963   107A     -1.187136   108A     -1.187092  
     109A     -1.169274   110A     -1.169271   111A     -1.163346  
     112A     -1.150494   113A     -1.144688   114A     -1.136349  
     115A     -1.136314   116A     -1.123394   117A     -1.123389  
     118A     -1.104077   119A     -1.104069   120A     -1.101097  
     121A     -1.094553   122A     -1.094553   123A     -1.077627  
     124A     -1.063235   125A     -1.063052   126A     -1.061625  
     127A     -1.061026   128A     -1.061012   129A     -1.037611  
     130A     -1.037605   131A     -1.026951   132A     -1.026948  
     133A     -1.016425   134A     -1.016409   135A     -1.013525  
     136A     -0.996204   137A     -0.996195   138A     -0.989907  
     139A     -0.988722   140A     -0.988715   141A     -0.973793  
     142A     -0.969249   143A     -0.969219   144A     -0.956914  
     145A     -0.955687   146A     -0.953129   147A     -0.949415  
     148A     -0.949379   149A     -0.941342   150A     -0.920059  
     151A     -0.920025   152A     -0.905623   153A     -0.905577  
     154A     -0.855949   155A     -0.855906   156A     -0.853879  
     157A     -0.853830   158A     -0.852258   159A     -0.840521  
     160A     -0.840453   161A     -0.838904   162A     -0.838834  
     163A     -0.838335   164A     -0.822253   165A     -0.819988  
     166A     -0.801469   167A     -0.796694   168A     -0.796655  
     169A     -0.794176   170A     -0.792019   171A     -0.784139  
     172A     -0.784123   173A     -0.778491   174A     -0.778488  
     175A     -0.734893   176A     -0.734880   177A     -0.732408  
     178A     -0.732361   179A     -0.731684   180A     -0.731656  
     181A     -0.730884   182A     -0.716366   183A     -0.709325  
     184A     -0.699623   185A     -0.683830   186A     -0.676528  
     187A     -0.676512   188A     -0.674480   189A     -0.673952  
     190A     -0.673951   191A     -0.667207   192A     -0.662775  
     193A     -0.662762   194A     -0.649562   195A     -0.649560  
     196A     -0.635920   197A     -0.635915   198A     -0.635088  
     199A     -0.631834   200A     -0.631822   201A     -0.628428  
     202A     -0.603781   203A     -0.600765   204A     -0.600738  
     205A     -0.599866   206A     -0.599608   207A     -0.598847  
     208A     -0.598818   209A     -0.590153   210A     -0.590147  
     211A     -0.589902   212A     -0.589078   213A     -0.585416  
     214A     -0.585395   215A     -0.578714   216A     -0.565561  
     217A     -0.565545   218A     -0.563907   219A     -0.558688  
     220A     -0.558683   221A     -0.548449   222A     -0.547715  
     223A     -0.547690   224A     -0.547438   225A     -0.546860  
     226A     -0.546756   227A     -0.545140   228A     -0.545128  
     229A     -0.544648   230A     -0.542558   231A     -0.541400  
     232A     -0.541392   233A     -0.536028   234A     -0.528610  
     235A     -0.528607   236A     -0.526077   237A     -0.526055  
     238A     -0.525975   239A     -0.524324   240A     -0.524319  
     241A     -0.523309   242A     -0.517595   243A     -0.517570  
     244A     -0.516874   245A     -0.516218   246A     -0.516190  
     247A     -0.511744   248A     -0.508958   249A     -0.508054  
     250A     -0.508044   251A     -0.503767   252A     -0.500016  
     253A     -0.498631   254A     -0.493290   255A     -0.483544  
     256A     -0.483532   257A     -0.482712   258A     -0.482667  
     259A     -0.478020   260A     -0.478009   261A     -0.476587  
     262A     -0.466801   263A     -0.466751   264A     -0.465053  
     265A     -0.465049   266A     -0.459888   267A     -0.459871  
     268A     -0.447598   269A     -0.445842   270A     -0.445837  
     271A     -0.444926   272A     -0.444892   273A     -0.441950  
     274A     -0.441930   275A     -0.437336   276A     -0.431696  
     277A     -0.427392   278A     -0.427392   279A     -0.423858  
     280A     -0.418262   281A     -0.415881   282A     -0.415871  
     283A     -0.407744   284A     -0.406089   285A     -0.406062  
     286A     -0.405991   287A     -0.394949   288A     -0.394877  
     289A     -0.389303   290A     -0.388936   291A     -0.388867  
     292A     -0.384924   293A     -0.383975   294A     -0.382643  
     295A     -0.382549   296A     -0.382532   297A     -0.356407  
     298A     -0.356392   299A     -0.335996   300A     -0.335992  
     301A     -0.334766   302A     -0.334738   303A     -0.331875  
     304A     -0.303542   305A     -0.303524   306A     -0.299825  
     307A     -0.285225   308A     -0.282975   309A     -0.282951  
     310A     -0.282336   311A     -0.282288   312A     -0.255225  
     313A     -0.250365   314A     -0.250176   315A     -0.250124  
     316A     -0.235638   317A     -0.207367   318A     -0.201834  
     319A     -0.201797   320A     -0.153605   321A     -0.153536  

    Virtual:                                                              

     322A      0.039031   323A      0.039134   324A      0.086644  
     325A      0.086672   326A      0.086751   327A      0.086847  
     328A      0.086898   329A      0.088431   330A      0.089381  
     331A      0.089397   332A      0.094787   333A      0.097374  
     334A      0.102826   335A      0.102846   336A      0.114104  
     337A      0.114110   338A      0.116958   339A      0.117603  
     340A      0.121571   341A      0.121632   342A      0.123267  
     343A      0.125023   344A      0.125249   345A      0.125402  
     346A      0.127269   347A      0.127569   348A      0.127714  
     349A      0.129455   350A      0.133465   351A      0.133571  
     352A      0.133729   353A      0.138100   354A      0.138112  
     355A      0.139313   356A      0.141540   357A      0.141564  
     358A      0.145493   359A      0.149650   360A      0.149722  
     361A      0.151097   362A      0.152235   363A      0.154226  
     364A      0.155954   365A      0.156078   366A      0.156334  
     367A      0.156419   368A      0.159388   369A      0.161153  
     370A      0.161514   371A      0.161579   372A      0.162090  
     373A      0.162112   374A      0.167633   375A      0.169013  
     376A      0.169309   377A      0.169326   378A      0.172066  
     379A      0.172904   380A      0.176323   381A      0.176570  
     382A      0.181698   383A      0.183265   384A      0.183432  
     385A      0.188004   386A      0.188400   387A      0.188739  
     388A      0.189026   389A      0.189055   390A      0.195322  
     391A      0.195530   392A      0.198940   393A      0.199103  
     394A      0.201003   395A      0.201798   396A      0.202332  
     397A      0.202570   398A      0.204034   399A      0.204237  
     400A      0.204939   401A      0.207315   402A      0.207561  
     403A      0.208114   404A      0.208398   405A      0.210230  
     406A      0.212585   407A      0.212913   408A      0.213907  
     409A      0.214019   410A      0.215100   411A      0.216839  
     412A      0.216908   413A      0.221846   414A      0.222802  
     415A      0.225732   416A      0.225744   417A      0.231341  
     418A      0.231456   419A      0.234187   420A      0.234404  
     421A      0.234729   422A      0.236004   423A      0.236862  
     424A      0.238065   425A      0.240559   426A      0.240906  
     427A      0.241854   428A      0.241890   429A      0.246469  
     430A      0.247566   431A      0.247620   432A      0.248502  
     433A      0.248760   434A      0.248936   435A      0.249574  
     436A      0.249659   437A      0.253113   438A      0.253545  
     439A      0.258127   440A      0.258163   441A      0.258835  
     442A      0.258890   443A      0.259552   444A      0.259924  
     445A      0.261215   446A      0.263004   447A      0.263475  
     448A      0.263519   449A      0.264587   450A      0.264692  
     451A      0.266646   452A      0.266686   453A      0.267235  
     454A      0.267274   455A      0.269813   456A      0.270158  
     457A      0.272016   458A      0.274150   459A      0.274521  
     460A      0.275402   461A      0.278394   462A      0.280519  
     463A      0.281777   464A      0.281841   465A      0.282558  
     466A      0.284106   467A      0.285142   468A      0.285255  
     469A      0.287008   470A      0.287370   471A      0.290146  
     472A      0.291747   473A      0.295098   474A      0.297346  
     475A      0.297792   476A      0.298815   477A      0.300804  
     478A      0.301036   479A      0.301590   480A      0.303395  
     481A      0.304257   482A      0.305875   483A      0.306619  
     484A      0.306678   485A      0.307034   486A      0.307845  
     487A      0.309655   488A      0.309683   489A      0.313858  
     490A      0.314121   491A      0.314714   492A      0.315025  
     493A      0.315337   494A      0.319118   495A      0.319164  
     496A      0.325017   497A      0.326410   498A      0.326460  
     499A      0.328206   500A      0.328643   501A      0.329918  
     502A      0.330379   503A      0.331881   504A      0.332149  
     505A      0.332779   506A      0.333885   507A      0.335554  
     508A      0.335679   509A      0.336763   510A      0.340253  
     511A      0.340338   512A      0.343425   513A      0.343567  
     514A      0.345500   515A      0.346961   516A      0.347328  
     517A      0.347369   518A      0.351419   519A      0.352347  
     520A      0.352480   521A      0.353566   522A      0.353858  
     523A      0.355522   524A      0.355927   525A      0.356159  
     526A      0.356641   527A      0.357166   528A      0.359152  
     529A      0.359264   530A      0.360588   531A      0.360746  
     532A      0.363152   533A      0.363247   534A      0.364125  
     535A      0.368268   536A      0.368606   537A      0.368862  
     538A      0.370688   539A      0.372919   540A      0.374815  
     541A      0.374894   542A      0.374947   543A      0.376426  
     544A      0.376704   545A      0.376715   546A      0.376983  
     547A      0.378024   548A      0.378497   549A      0.378808  
     550A      0.378977   551A      0.381691   552A      0.384669  
     553A      0.386730   554A      0.386809   555A      0.387099  
     556A      0.389767   557A      0.389782   558A      0.390626  
     559A      0.392587   560A      0.393177   561A      0.393400  
     562A      0.395551   563A      0.398745   564A      0.399638  
     565A      0.399840   566A      0.401037   567A      0.401212  
     568A      0.401916   569A      0.403655   570A      0.403943  
     571A      0.404310   572A      0.405790   573A      0.406423  
     574A      0.407970   575A      0.409698   576A      0.411485  
     577A      0.411567   578A      0.413290   579A      0.414633  
     580A      0.415328   581A      0.415356   582A      0.418510  
     583A      0.418812   584A      0.419638   585A      0.425646  
     586A      0.425981   587A      0.426415   588A      0.427439  
     589A      0.428449   590A      0.429730   591A      0.430490  
     592A      0.433716   593A      0.434779   594A      0.435081  
     595A      0.435573   596A      0.435690   597A      0.435929  
     598A      0.439731   599A      0.440389   600A      0.440595  
     601A      0.441268   602A      0.441781   603A      0.443096  
     604A      0.444516   605A      0.445335   606A      0.445699  
     607A      0.446584   608A      0.447169   609A      0.447222  
     610A      0.448682   611A      0.449199   612A      0.450101  
     613A      0.450761   614A      0.451181   615A      0.452231  
     616A      0.455333   617A      0.455437   618A      0.455522  
     619A      0.455614   620A      0.456482   621A      0.458145  
     622A      0.459590   623A      0.459767   624A      0.459825  
     625A      0.460681   626A      0.461608   627A      0.463840  
     628A      0.463895   629A      0.463943   630A      0.464605  
     631A      0.464734   632A      0.466384   633A      0.466883  
     634A      0.467485   635A      0.468003   636A      0.468131  
     637A      0.469077   638A      0.470757   639A      0.471259  
     640A      0.471600   641A      0.472596   642A      0.473353  
     643A      0.475106   644A      0.475930   645A      0.477110  
     646A      0.477404   647A      0.479295   648A      0.480165  
     649A      0.480558   650A      0.482192   651A      0.483239  
     652A      0.483386   653A      0.483963   654A      0.484526  
     655A      0.486275   656A      0.487197   657A      0.488079  
     658A      0.488355   659A      0.490035   660A      0.490315  
     661A      0.491047   662A      0.491586   663A      0.493233  
     664A      0.494213   665A      0.494752   666A      0.497296  
     667A      0.498626   668A      0.502151   669A      0.502819  
     670A      0.503590   671A      0.503879   672A      0.504188  
     673A      0.504829   674A      0.505023   675A      0.505239  
     676A      0.508458   677A      0.509100   678A      0.510763  
     679A      0.511609   680A      0.511801   681A      0.512027  
     682A      0.512602   683A      0.516351   684A      0.516488  
     685A      0.516749   686A      0.518288   687A      0.522953  
     688A      0.523401   689A      0.523548   690A      0.525250  
     691A      0.525409   692A      0.526229   693A      0.526567  
     694A      0.526742   695A      0.529153   696A      0.530708  
     697A      0.531926   698A      0.532640   699A      0.532863  
     700A      0.533751   701A      0.534814   702A      0.535857  
     703A      0.536104   704A      0.536664   705A      0.537553  
     706A      0.538095   707A      0.538483   708A      0.539117  
     709A      0.540536   710A      0.541929   711A      0.543180  
     712A      0.544393   713A      0.544431   714A      0.545422  
     715A      0.546287   716A      0.547291   717A      0.548406  
     718A      0.550019   719A      0.550972   720A      0.552493  
     721A      0.552626   722A      0.553763   723A      0.556730  
     724A      0.557439   725A      0.559043   726A      0.559774  
     727A      0.560084   728A      0.560804   729A      0.562922  
     730A      0.564544   731A      0.567175   732A      0.567898  
     733A      0.568313   734A      0.568673   735A      0.569396  
     736A      0.571494   737A      0.575174   738A      0.575275  
     739A      0.575780   740A      0.577014   741A      0.577534  
     742A      0.580155   743A      0.583759   744A      0.585348  
     745A      0.587258   746A      0.587354   747A      0.587564  
     748A      0.587777   749A      0.593947   750A      0.596102  
     751A      0.600115   752A      0.600593   753A      0.603898  
     754A      0.609217   755A      0.609525   756A      0.610541  
     757A      0.613330   758A      0.613754   759A      0.614646  
     760A      0.615152   761A      0.617699   762A      0.617814  
     763A      0.622706   764A      0.624566   765A      0.625361  
     766A      0.627157   767A      0.628943   768A      0.630140  
     769A      0.633062   770A      0.633261   771A      0.635470  
     772A      0.636212   773A      0.636536   774A      0.637142  
     775A      0.637819   776A      0.638362   777A      0.639213  
     778A      0.641833   779A      0.642479   780A      0.647436  
     781A      0.648388   782A      0.649052   783A      0.652301  
     784A      0.654684   785A      0.655831   786A      0.655849  
     787A      0.656981   788A      0.657655   789A      0.658074  
     790A      0.667018   791A      0.668819   792A      0.670286  
     793A      0.671096   794A      0.671432   795A      0.671867  
     796A      0.676419   797A      0.677520   798A      0.679122  
     799A      0.683175   800A      0.685386   801A      0.686077  
     802A      0.688318   803A      0.693290   804A      0.694645  
     805A      0.696878   806A      0.700507   807A      0.700836  
     808A      0.704092   809A      0.708944   810A      0.709146  
     811A      0.711375   812A      0.711585   813A      0.711736  
     814A      0.714367   815A      0.715055   816A      0.716873  
     817A      0.723202   818A      0.723856   819A      0.727296  
     820A      0.729957   821A      0.735563   822A      0.736372  
     823A      0.739279   824A      0.740854   825A      0.741060  
     826A      0.741993   827A      0.742645   828A      0.744183  
     829A      0.744554   830A      0.744743   831A      0.744960  
     832A      0.751982   833A      0.753713   834A      0.755649  
     835A      0.755734   836A      0.761808   837A      0.762876  
     838A      0.763100   839A      0.764842   840A      0.773019  
     841A      0.774558   842A      0.780594   843A      0.782783  
     844A      0.784018   845A      0.789899   846A      0.792415  
     847A      0.792959   848A      0.794938   849A      0.798763  
     850A      0.798984   851A      0.802404   852A      0.803079  
     853A      0.805510   854A      0.823235   855A      0.827090  
     856A      0.833533   857A      0.834009   858A      0.838947  
     859A      0.838991   860A      0.843074   861A      0.844673  
     862A      0.846437   863A      0.849384   864A      0.851638  
     865A      0.852557   866A      0.855212   867A      0.856067  
     868A      0.857684   869A      0.858564   870A      0.864058  
     871A      0.864318   872A      0.864958   873A      0.866365  
     874A      0.867088   875A      0.867925   876A      0.876738  
     877A      0.877757   878A      0.878040   879A      0.882067  
     880A      0.885715   881A      0.886640   882A      0.887156  
     883A      0.887623   884A      0.888630   885A      0.889134  
     886A      0.893093   887A      0.894102   888A      0.895028  
     889A      0.896420   890A      0.899691   891A      0.902243  
     892A      0.904352   893A      0.907426   894A      0.909076  
     895A      0.910693   896A      0.911286   897A      0.912530  
     898A      0.914696   899A      0.917280   900A      0.917706  
     901A      0.918152   902A      0.920170   903A      0.921287  
     904A      0.921521   905A      0.922851   906A      0.924442  
     907A      0.925364   908A      0.927371   909A      0.928211  
     910A      0.929445   911A      0.931455   912A      0.932908  
     913A      0.934852   914A      0.936506   915A      0.937820  
     916A      0.939513   917A      0.941126   918A      0.943025  
     919A      0.943459   920A      0.944618   921A      0.944846  
     922A      0.947214   923A      0.948439   924A      0.950361  
     925A      0.951698   926A      0.954908   927A      0.955447  
     928A      0.957241   929A      0.962182   930A      0.963872  
     931A      0.969012   932A      0.969389   933A      0.969573  
     934A      0.970304   935A      0.970881   936A      0.971033  
     937A      0.971478   938A      0.971777   939A      0.976961  
     940A      0.978233   941A      0.981005   942A      0.982682  
     943A      0.982821   944A      0.983307   945A      0.984753  
     946A      0.987828   947A      0.989125   948A      0.990365  
     949A      0.994631   950A      0.998296   951A      0.998591  
     952A      0.999389   953A      0.999897   954A      1.000705  
     955A      1.001233   956A      1.001316   957A      1.003490  
     958A      1.005866   959A      1.006042   960A      1.006283  
     961A      1.006493   962A      1.007693   963A      1.014434  
     964A      1.015282   965A      1.017571   966A      1.017980  
     967A      1.022224   968A      1.025410   969A      1.032052  
     970A      1.032652   971A      1.033700   972A      1.034340  
     973A      1.041773   974A      1.042529   975A      1.043649  
     976A      1.043772   977A      1.049790   978A      1.052581  
     979A      1.052720   980A      1.054946   981A      1.055011  
     982A      1.055532   983A      1.056078   984A      1.056394  
     985A      1.064175   986A      1.064441   987A      1.066153  
     988A      1.068808   989A      1.068892   990A      1.071379  
     991A      1.071515   992A      1.071696   993A      1.079611  
     994A      1.081260   995A      1.081472   996A      1.081732  
     997A      1.086509   998A      1.086673   999A      1.092192  
    1000A      1.095382  1001A      1.095607  1002A      1.096995  
    1003A      1.097594  1004A      1.098013  1005A      1.099193  
    1006A      1.099707  1007A      1.100014  1008A      1.101163  
    1009A      1.103517  1010A      1.103888  1011A      1.107714  
    1012A      1.107746  1013A      1.111099  1014A      1.111544  
    1015A      1.111649  1016A      1.113586  1017A      1.115471  
    1018A      1.118242  1019A      1.119174  1020A      1.119479  
    1021A      1.119656  1022A      1.120491  1023A      1.121071  
    1024A      1.121562  1025A      1.122986  1026A      1.123783  
    1027A      1.123992  1028A      1.124597  1029A      1.124916  
    1030A      1.125074  1031A      1.125647  1032A      1.126544  
    1033A      1.128050  1034A      1.128286  1035A      1.129176  
    1036A      1.129817  1037A      1.130928  1038A      1.131553  
    1039A      1.132209  1040A      1.132600  1041A      1.132984  
    1042A      1.133138  1043A      1.134234  1044A      1.135193  
    1045A      1.135616  1046A      1.135757  1047A      1.136399  
    1048A      1.136461  1049A      1.137438  1050A      1.138449  
    1051A      1.139352  1052A      1.140434  1053A      1.146111  
    1054A      1.147092  1055A      1.148063  1056A      1.148663  
    1057A      1.149368  1058A      1.151720  1059A      1.152150  
    1060A      1.153060  1061A      1.153125  1062A      1.153735  
    1063A      1.154917  1064A      1.161623  1065A      1.162490  
    1066A      1.165952  1067A      1.172599  1068A      1.173740  
    1069A      1.174331  1070A      1.175197  1071A      1.180617  
    1072A      1.181615  1073A      1.181956  1074A      1.183305  
    1075A      1.183999  1076A      1.184953  1077A      1.187313  
    1078A      1.189503  1079A      1.190003  1080A      1.192554  
    1081A      1.193397  1082A      1.194444  1083A      1.196466  
    1084A      1.199849  1085A      1.200951  1086A      1.202415  
    1087A      1.202558  1088A      1.203940  1089A      1.205210  
    1090A      1.208195  1091A      1.208312  1092A      1.213133  
    1093A      1.216263  1094A      1.217405  1095A      1.220115  
    1096A      1.221938  1097A      1.222706  1098A      1.227778  
    1099A      1.228120  1100A      1.232191  1101A      1.236207  
    1102A      1.238067  1103A      1.239294  1104A      1.239802  
    1105A      1.240252  1106A      1.244389  1107A      1.245502  
    1108A      1.253872  1109A      1.254446  1110A      1.254626  
    1111A      1.255092  1112A      1.255153  1113A      1.261474  
    1114A      1.262027  1115A      1.263374  1116A      1.263806  
    1117A      1.264879  1118A      1.266439  1119A      1.268961  
    1120A      1.269402  1121A      1.269822  1122A      1.273520  
    1123A      1.276023  1124A      1.284325  1125A      1.284864  
    1126A      1.297083  1127A      1.301319  1128A      1.301677  
    1129A      1.302171  1130A      1.303155  1131A      1.303400  
    1132A      1.309635  1133A      1.312052  1134A      1.312287  
    1135A      1.315315  1136A      1.317571  1137A      1.318839  
    1138A      1.319850  1139A      1.320086  1140A      1.327864  
    1141A      1.332749  1142A      1.332911  1143A      1.338728  
    1144A      1.340239  1145A      1.341530  1146A      1.344180  
    1147A      1.344261  1148A      1.344972  1149A      1.346818  
    1150A      1.347199  1151A      1.347616  1152A      1.351060  
    1153A      1.353752  1154A      1.354301  1155A      1.354749  
    1156A      1.359396  1157A      1.361999  1158A      1.362203  
    1159A      1.364542  1160A      1.366932  1161A      1.367990  
    1162A      1.368246  1163A      1.369656  1164A      1.370903  
    1165A      1.371530  1166A      1.373395  1167A      1.376432  
    1168A      1.377058  1169A      1.380056  1170A      1.380309  
    1171A      1.382971  1172A      1.384875  1173A      1.385039  
    1174A      1.388670  1175A      1.391295  1176A      1.391520  
    1177A      1.398963  1178A      1.400433  1179A      1.403166  
    1180A      1.407152  1181A      1.407307  1182A      1.409234  
    1183A      1.409460  1184A      1.411198  1185A      1.413333  
    1186A      1.413699  1187A      1.418834  1188A      1.420334  
    1189A      1.420917  1190A      1.425231  1191A      1.425546  
    1192A      1.426087  1193A      1.437988  1194A      1.438066  
    1195A      1.439252  1196A      1.442989  1197A      1.443229  
    1198A      1.444825  1199A      1.444914  1200A      1.453631  
    1201A      1.457384  1202A      1.458173  1203A      1.458427  
    1204A      1.459461  1205A      1.460243  1206A      1.460603  
    1207A      1.461882  1208A      1.464979  1209A      1.465073  
    1210A      1.470622  1211A      1.472575  1212A      1.474002  
    1213A      1.474618  1214A      1.477199  1215A      1.478585  
    1216A      1.478726  1217A      1.478849  1218A      1.481558  
    1219A      1.482677  1220A      1.484292  1221A      1.484572  
    1222A      1.486170  1223A      1.490577  1224A      1.491100  
    1225A      1.493943  1226A      1.500829  1227A      1.501495  
    1228A      1.502182  1229A      1.502759  1230A      1.502929  
    1231A      1.503061  1232A      1.503915  1233A      1.515256  
    1234A      1.517364  1235A      1.519652  1236A      1.520453  
    1237A      1.521202  1238A      1.522353  1239A      1.523650  
    1240A      1.530051  1241A      1.534536  1242A      1.534856  
    1243A      1.535595  1244A      1.542944  1245A      1.548896  
    1246A      1.549283  1247A      1.553136  1248A      1.553616  
    1249A      1.556480  1250A      1.556967  1251A      1.567806  
    1252A      1.568610  1253A      1.588639  1254A      1.589155  
    1255A      1.591202  1256A      1.594617  1257A      1.605263  
    1258A      1.605297  1259A      1.634716  1260A      1.636116  
    1261A      1.638437  1262A      1.638882  1263A      1.645668  
    1264A      1.649416  1265A      1.653041  1266A      1.655180  
    1267A      1.657926  1268A      1.658716  1269A      1.659085  
    1270A      1.659468  1271A      1.659824  1272A      1.662190  
    1273A      1.662992  1274A      1.665506  1275A      1.667321  
    1276A      1.667898  1277A      1.668006  1278A      1.670327  
    1279A      1.670746  1280A      1.671956  1281A      1.673185  
    1282A      1.673670  1283A      1.674940  1284A      1.678026  
    1285A      1.678191  1286A      1.679427  1287A      1.683028  
    1288A      1.683531  1289A      1.686432  1290A      1.686707  
    1291A      1.687101  1292A      1.688637  1293A      1.689207  
    1294A      1.690113  1295A      1.690731  1296A      1.692002  
    1297A      1.692254  1298A      1.692667  1299A      1.694774  
    1300A      1.697604  1301A      1.701826  1302A      1.701996  
    1303A      1.706088  1304A      1.706426  1305A      1.706640  
    1306A      1.706736  1307A      1.715793  1308A      1.716585  
    1309A      1.720388  1310A      1.720519  1311A      1.720582  
    1312A      1.720632  1313A      1.721162  1314A      1.723801  
    1315A      1.726417  1316A      1.727267  1317A      1.729694  
    1318A      1.730250  1319A      1.738173  1320A      1.739625  
    1321A      1.744039  1322A      1.745639  1323A      1.747585  
    1324A      1.747840  1325A      1.748746  1326A      1.750466  
    1327A      1.758955  1328A      1.759049  1329A      1.761130  
    1330A      1.765744  1331A      1.765811  1332A      1.766178  
    1333A      1.769440  1334A      1.771265  1335A      1.774571  
    1336A      1.775195  1337A      1.775324  1338A      1.775414  
    1339A      1.782859  1340A      1.788225  1341A      1.797713  
    1342A      1.798774  1343A      1.799104  1344A      1.799295  
    1345A      1.800082  1346A      1.814841  1347A      1.816490  
    1348A      1.818325  1349A      1.830831  1350A      1.833716  
    1351A      1.835485  1352A      1.836160  1353A      1.855492  
    1354A      1.855690  1355A      1.860103  1356A      1.867115  
    1357A      1.873564  1358A      1.874913  1359A      1.876858  
    1360A      1.876981  1361A      1.877279  1362A      1.878856  
    1363A      1.882763  1364A      1.883065  1365A      1.883627  
    1366A      1.887875  1367A      1.888295  1368A      1.888855  
    1369A      1.889594  1370A      1.897133  1371A      1.898394  
    1372A      1.904880  1373A      1.904960  1374A      1.910841  
    1375A      1.911345  1376A      1.914644  1377A      1.914724  
    1378A      1.916428  1379A      1.916492  1380A      1.920430  
    1381A      1.921168  1382A      1.921838  1383A      1.922034  
    1384A      1.923882  1385A      1.930151  1386A      1.930616  
    1387A      1.931528  1388A      1.933578  1389A      1.933987  
    1390A      1.934415  1391A      1.934943  1392A      1.935869  
    1393A      1.937378  1394A      1.940813  1395A      1.942501  
    1396A      1.953025  1397A      1.953542  1398A      1.953771  
    1399A      1.954604  1400A      1.955158  1401A      1.961977  
    1402A      1.962353  1403A      1.967234  1404A      1.968303  
    1405A      1.972277  1406A      1.974148  1407A      1.974396  
    1408A      1.976660  1409A      1.977403  1410A      1.977638  
    1411A      1.985012  1412A      1.986052  1413A      1.986273  
    1414A      1.987480  1415A      1.988649  1416A      1.989285  
    1417A      1.991298  1418A      1.993885  1419A      1.994374  
    1420A      1.995707  1421A      1.996262  1422A      2.001233  
    1423A      2.001633  1424A      2.003515  1425A      2.004791  
    1426A      2.005230  1427A      2.005845  1428A      2.009663  
    1429A      2.010168  1430A      2.010518  1431A      2.010976  
    1432A      2.012583  1433A      2.016834  1434A      2.019672  
    1435A      2.020544  1436A      2.021225  1437A      2.022314  
    1438A      2.025282  1439A      2.032012  1440A      2.032218  
    1441A      2.033642  1442A      2.033815  1443A      2.037699  
    1444A      2.038707  1445A      2.038968  1446A      2.040121  
    1447A      2.040778  1448A      2.045039  1449A      2.045759  
    1450A      2.046263  1451A      2.054891  1452A      2.057720  
    1453A      2.061854  1454A      2.062883  1455A      2.063759  
    1456A      2.066504  1457A      2.066682  1458A      2.067323  
    1459A      2.068853  1460A      2.070558  1461A      2.071188  
    1462A      2.072562  1463A      2.073336  1464A      2.073432  
    1465A      2.079445  1466A      2.081605  1467A      2.083528  
    1468A      2.084039  1469A      2.085966  1470A      2.087909  
    1471A      2.089488  1472A      2.090468  1473A      2.098713  
    1474A      2.100040  1475A      2.102862  1476A      2.104695  
    1477A      2.107204  1478A      2.107985  1479A      2.109720  
    1480A      2.110297  1481A      2.111159  1482A      2.111840  
    1483A      2.117734  1484A      2.118991  1485A      2.120181  
    1486A      2.120726  1487A      2.124243  1488A      2.126718  
    1489A      2.127771  1490A      2.129548  1491A      2.130130  
    1492A      2.131832  1493A      2.132685  1494A      2.133051  
    1495A      2.133906  1496A      2.134247  1497A      2.136146  
    1498A      2.137736  1499A      2.138268  1500A      2.139357  
    1501A      2.139522  1502A      2.140097  1503A      2.140210  
    1504A      2.140955  1505A      2.142989  1506A      2.144151  
    1507A      2.144614  1508A      2.148062  1509A      2.148832  
    1510A      2.148893  1511A      2.149811  1512A      2.150987  
    1513A      2.151677  1514A      2.154626  1515A      2.157764  
    1516A      2.158985  1517A      2.161087  1518A      2.162582  
    1519A      2.163528  1520A      2.163649  1521A      2.165481  
    1522A      2.165714  1523A      2.167035  1524A      2.169040  
    1525A      2.170886  1526A      2.176600  1527A      2.177029  
    1528A      2.177588  1529A      2.177887  1530A      2.178425  
    1531A      2.178860  1532A      2.180912  1533A      2.181995  
    1534A      2.186320  1535A      2.186802  1536A      2.189245  
    1537A      2.189553  1538A      2.193070  1539A      2.193499  
    1540A      2.193985  1541A      2.194700  1542A      2.195223  
    1543A      2.205029  1544A      2.206191  1545A      2.208638  
    1546A      2.209140  1547A      2.209944  1548A      2.210543  
    1549A      2.210842  1550A      2.210875  1551A      2.211931  
    1552A      2.212400  1553A      2.221685  1554A      2.221972  
    1555A      2.230296  1556A      2.230969  1557A      2.231614  
    1558A      2.232547  1559A      2.238735  1560A      2.239874  
    1561A      2.241933  1562A      2.243782  1563A      2.244586  
    1564A      2.246950  1565A      2.248050  1566A      2.249556  
    1567A      2.250925  1568A      2.251725  1569A      2.252668  
    1570A      2.253287  1571A      2.254071  1572A      2.254817  
    1573A      2.255668  1574A      2.259788  1575A      2.264283  
    1576A      2.264691  1577A      2.271383  1578A      2.271518  
    1579A      2.272425  1580A      2.273605  1581A      2.276381  
    1582A      2.276524  1583A      2.279355  1584A      2.280491  
    1585A      2.282007  1586A      2.282647  1587A      2.290345  
    1588A      2.290778  1589A      2.291342  1590A      2.292911  
    1591A      2.296859  1592A      2.297394  1593A      2.300290  
    1594A      2.300876  1595A      2.308939  1596A      2.310181  
    1597A      2.312909  1598A      2.314244  1599A      2.316215  
    1600A      2.318060  1601A      2.326725  1602A      2.332999  
    1603A      2.334626  1604A      2.339874  1605A      2.340540  
    1606A      2.345776  1607A      2.348353  1608A      2.353786  
    1609A      2.354185  1610A      2.359402  1611A      2.366948  
    1612A      2.375231  1613A      2.375644  1614A      2.376089  
    1615A      2.377786  1616A      2.380009  1617A      2.380647  
    1618A      2.382048  1619A      2.384431  1620A      2.385610  
    1621A      2.386296  1622A      2.390963  1623A      2.392375  
    1624A      2.393042  1625A      2.393077  1626A      2.395647  
    1627A      2.396396  1628A      2.396662  1629A      2.401529  
    1630A      2.401767  1631A      2.420844  1632A      2.424940  
    1633A      2.425514  1634A      2.433617  1635A      2.438623  
    1636A      2.441973  1637A      2.443055  1638A      2.444237  
    1639A      2.448690  1640A      2.468728  1641A      2.470082  
    1642A      2.474468  1643A      2.477878  1644A      2.483458  
    1645A      2.492212  1646A      2.493694  1647A      2.503197  
    1648A      2.504204  1649A      2.514625  1650A      2.514674  
    1651A      2.518069  1652A      2.518359  1653A      2.522054  
    1654A      2.522336  1655A      2.540533  1656A      2.540913  
    1657A      2.545828  1658A      2.551354  1659A      2.555533  
    1660A      2.556499  1661A      2.560833  1662A      2.566173  
    1663A      2.589818  1664A      2.589990  1665A      2.590222  
    1666A      2.592045  1667A      2.592898  1668A      2.596002  
    1669A      2.596849  1670A      2.598478  1671A      2.599710  
    1672A      2.601357  1673A      2.608377  1674A      2.608576  
    1675A      2.615000  1676A      2.620609  1677A      2.621464  
    1678A      2.628826  1679A      2.632301  1680A      2.632742  
    1681A      2.635248  1682A      2.636343  1683A      2.637154  
    1684A      2.637235  1685A      2.641877  1686A      2.643552  
    1687A      2.651294  1688A      2.651476  1689A      2.662855  
    1690A      2.663001  1691A      2.663296  1692A      2.663911  
    1693A      2.666335  1694A      2.667628  1695A      2.683256  
    1696A      2.691141  1697A      2.691852  1698A      2.694045  
    1699A      2.696178  1700A      2.697176  1701A      2.699354  
    1702A      2.700229  1703A      2.702079  1704A      2.705395  
    1705A      2.705808  1706A      2.716857  1707A      2.717168  
    1708A      2.717953  1709A      2.719630  1710A      2.719813  
    1711A      2.725255  1712A      2.726608  1713A      2.726802  
    1714A      2.734723  1715A      2.736460  1716A      2.737878  
    1717A      2.741385  1718A      2.742041  1719A      2.742406  
    1720A      2.742974  1721A      2.746834  1722A      2.747991  
    1723A      2.755234  1724A      2.770355  1725A      2.780182  
    1726A      2.780375  1727A      2.781191  1728A      2.781314  
    1729A      2.781412  1730A      2.802874  1731A      2.812199  
    1732A      2.812964  1733A      2.825060  1734A      2.828028  
    1735A      2.831135  1736A      2.831220  1737A      2.850917  
    1738A      2.851441  1739A      2.853520  1740A      2.853719  
    1741A      2.853885  1742A      2.861014  1743A      2.863527  
    1744A      2.866018  1745A      2.866191  1746A      2.866784  
    1747A      2.868721  1748A      2.879996  1749A      2.880330  
    1750A      2.891200  1751A      2.891561  1752A      2.892282  
    1753A      2.892637  1754A      2.896192  1755A      2.911281  
    1756A      2.916115  1757A      2.916731  1758A      2.920097  
    1759A      2.921546  1760A      2.924928  1761A      2.946150  
    1762A      2.948686  1763A      2.949526  1764A      2.949840  
    1765A      2.952925  1766A      2.966148  1767A      2.966855  
    1768A      2.967063  1769A      2.976549  1770A      2.978829  
    1771A      2.984568  1772A      2.984741  1773A      3.013239  
    1774A      3.014298  1775A      3.014826  1776A      3.025966  
    1777A      3.041775  1778A      3.042584  1779A      3.079750  
    1780A      3.080638  1781A      3.084878  1782A      3.088138  
    1783A      3.097297  1784A      3.097726  1785A      3.098352  
    1786A      3.108555  1787A      3.108656  1788A      3.111291  
    1789A      3.123497  1790A      3.157624  1791A      3.162005  
    1792A      3.162452  1793A      3.172638  1794A      3.177980  
    1795A      3.178135  1796A      3.182930  1797A      3.184529  
    1798A      3.191582  1799A      3.192397  1800A      3.198671  
    1801A      3.199116  1802A      3.199441  1803A      3.200054  
    1804A      3.202775  1805A      3.211148  1806A      3.219552  
    1807A      3.222442  1808A      3.224051  1809A      3.224468  
    1810A      3.242475  1811A      3.243037  1812A      3.269076  
    1813A      3.269762  1814A      3.302985  1815A      3.308455  
    1816A      3.311581  1817A      3.311871  1818A      3.312895  
    1819A      3.314734  1820A      3.318330  1821A      3.321220  
    1822A      3.324714  1823A      3.325513  1824A      3.342859  
    1825A      3.344525  1826A      3.346164  1827A      3.352544  
    1828A      3.412689  1829A      3.413596  1830A      3.421661  
    1831A      3.467319  1832A      3.481173  1833A      3.484357  
    1834A      3.491496  1835A      3.498455  1836A      3.501311  
    1837A      3.513541  1838A      3.516175  1839A      3.517590  
    1840A      3.522722  1841A      3.525638  1842A      3.532908  
    1843A      3.536835  1844A      3.545724  1845A      3.560912  
    1846A      3.591001  1847A      3.625856  1848A      3.627587  
    1849A      3.633782  1850A      3.640518  1851A      3.686623  
    1852A      3.690354  1853A      3.715762  1854A      3.717825  
    1855A      3.756522  1856A      3.799235  1857A      3.799683  
    1858A      3.801672  1859A      3.815427  1860A      3.828886  
    1861A      3.831272  1862A      3.892256  1863A      3.893922  
    1864A      3.922098  1865A      3.925268  1866A      3.955521  
    1867A      3.964109  1868A      3.990242  1869A      3.992228  
    1870A      3.999065  1871A      4.000006  1872A      4.010011  
    1873A      4.017327  1874A      4.023140  1875A      4.076671  
    1876A      4.079668  1877A      4.123786  1878A      4.174813  
    1879A      4.174907  1880A      4.175062  1881A      4.202584  
    1882A      4.202761  1883A      4.203175  1884A      4.203275  
    1885A      4.203551  1886A      4.235382  1887A      4.235953  
    1888A      4.236165  1889A      4.282656  1890A      4.355656  
    1891A      4.447125  1892A      4.449963  1893A      4.450128  
    1894A      4.450477  1895A      4.649982  1896A      4.650864  
    1897A      4.651378  1898A      4.751379  1899A      4.786879  
    1900A      4.787684  

    Final Occupation by Irrep:
              A 
    DOCC [   321 ]
    NA   [   321 ]
    NB   [   321 ]

  @DF-RHF Final Energy: -4073.10385829709958

   => Energetics <=

    Nuclear Repulsion Energy =          17150.5878668255463708
    One-Electron Energy =              -39781.1332191649489687
    Two-Electron Energy =               18557.4414940423012013
    Total Energy =                      -4073.1038582971013966

Computation Completed


Properties will be evaluated at   0.000000,   0.000000,   0.000000 [a0]

Properties computed using the SCF density matrix


 Multipole Moments:

 ------------------------------------------------------------------------------------
     Multipole            Electronic (a.u.)      Nuclear  (a.u.)        Total (a.u.)
 ------------------------------------------------------------------------------------

 L = 1.  Multiply by 2.5417464519 to convert [e a0] to [Debye]
 Dipole X            :         -0.0003874           -0.0001188           -0.0005062
 Dipole Y            :          0.0012204           -0.0002727            0.0009477
 Dipole Z            :         31.9336322          -44.0388358          -12.1052036
 Magnitude           :                                                   12.1052036

 ------------------------------------------------------------------------------------

*** tstop() called on n2cn0808.ab2021.local at Sat Jan 27 16:00:26 2024
Module time:
	user time   =   24816.16 seconds =     413.60 minutes
	system time =    1396.63 seconds =      23.28 minutes
	total time  =      14911 seconds =     248.52 minutes
Total time:
	user time   =   24816.16 seconds =     413.60 minutes
	system time =    1396.63 seconds =      23.28 minutes
	total time  =      14911 seconds =     248.52 minutes

  //>>>>>>>>>>>>>>>>>>>>>>>>>>>>>>>>>>>//
  //            Monomer A HF           //
  //<<<<<<<<<<<<<<<<<<<<<<<<<<<<<<<<<<<//

   => Libint2 <=

    Primary   basis highest AM E, G, H:  5, 4, 3
    Auxiliary basis highest AM E, G, H:  6, 5, 4
    Onebody   basis highest AM E, G, H:  6, 5, 4
    Solid Harmonics ordering:            gaussian

*** tstart() called on n2cn0808.ab2021.local
*** at Sat Jan 27 16:00:27 2024

   => Loading Basis Set <=

    Name: JUN-CC-PVDZ
    Role: ORBITAL
    Keyword: BASIS
    atoms 1                                                   entry B          line   130 file /opt/software/pc2/EB-SW/software/PSI4/1.9-foss-2022a/share/psi4/basis/jun-cc-pvdz.gbs 
    atoms 2-5                                                 entry F          line   266 file /opt/software/pc2/EB-SW/software/PSI4/1.9-foss-2022a/share/psi4/basis/jun-cc-pvdz.gbs 
    atoms 6-23, 30-42, 45-59, 62-78, 81-93, 98-108, 111-119   entry C          line   164 file /opt/software/pc2/EB-SW/software/PSI4/1.9-foss-2022a/share/psi4/basis/jun-cc-pvdz.gbs 
    atoms 24-29, 43-44, 60-61, 79-80, 94-97, 109-110, 120-125 entry H          line    36 file /opt/software/pc2/EB-SW/software/PSI4/1.9-foss-2022a/share/psi4/basis/jun-cc-pvdz.gbs 


         ---------------------------------------------------------
                                   SCF
               by Justin Turney, Rob Parrish, Andy Simmonett
                          and Daniel G. A. Smith
                              RHF Reference
                       16 Threads,  61035 MiB Core
         ---------------------------------------------------------

  ==> Geometry <==

    Molecular point group: c1
    Full point group: C1

    Geometry (in Angstrom), charge = -1, multiplicity = 1:

       Center              X                  Y                   Z               Mass       
    ------------   -----------------  -----------------  -----------------  -----------------
         B           -0.000050191042     0.000351518223     6.890312048050    11.009305360000
         F           -1.153601191042     0.000062518223     7.705959048050    18.998403162730
         F            1.153656808958    -0.000566481777     7.705959048050    18.998403162730
         F           -0.000023191042    -1.153622481777     6.074678048050    18.998403162730
         F           -0.000023191042     1.153992518223     6.074678048050    18.998403162730
      Gh(C)          -3.668445455062     7.803766688305    -0.507781910615    12.000000000000
      Gh(C)          -4.847602910388     7.131256349563    -0.510148485547    12.000000000000
      Gh(C)          -4.894963490217     5.696344921754    -0.510721396646    12.000000000000
      Gh(C)          -3.653744869815     4.980744859182    -0.503060954916    12.000000000000
      Gh(C)          -2.409429312536     7.113995554897    -0.507587568355    12.000000000000
      Gh(C)          -2.425481535146     5.681136469126    -0.514592457225    12.000000000000
      Gh(C)          -1.194748207477     7.786158712532    -0.506115387813    12.000000000000
      Gh(C)           0.037954837895     7.099436163980    -0.508286092118    12.000000000000
      Gh(C)           0.030328396378     5.669504077927    -0.513769477033    12.000000000000
      Gh(C)          -1.200988698947     4.969284866138    -0.504799743100    12.000000000000
      Gh(C)           1.277953634773     7.772873961417    -0.506910243557    12.000000000000
      Gh(C)           2.485353893683     7.087711403460    -0.509184731462    12.000000000000
      Gh(C)           2.486124493876     5.654785328463    -0.516122480450    12.000000000000
      Gh(C)           1.254078728602     4.956092631887    -0.504494538861    12.000000000000
      Gh(C)           3.751710400364     7.763926669203    -0.509057880081    12.000000000000
      Gh(C)           4.923561865144     7.078795295213    -0.511114360789    12.000000000000
      Gh(C)           4.955603080284     5.643461981592    -0.511274773596    12.000000000000
      Gh(C)           3.706797343163     4.941224726556    -0.506183213427    12.000000000000
      Gh(H)          -3.658525328800     8.890841937358    -0.506096922365     1.007825032230
      Gh(H)          -1.189217520798     8.874135605583    -0.502143511372     1.007825032230
      Gh(H)           1.284290047845     8.860847953711    -0.502751419416     1.007825032230
      Gh(H)           3.753537895758     8.851049797195    -0.507535355766     1.007825032230
      Gh(H)           5.869954512165     7.613809352878    -0.512039727832     1.007825032230
      Gh(H)          -5.788235898544     7.676316731157    -0.511708332903     1.007825032230
[...]
    1498A      2.111508  1499A      2.111950  1500A      2.112332  
    1501A      2.112837  1502A      2.114241  1503A      2.116496  
    1504A      2.117819  1505A      2.119718  1506A      2.126025  
    1507A      2.126231  1508A      2.126655  1509A      2.126813  
    1510A      2.127163  1511A      2.127610  1512A      2.128893  
    1513A      2.130667  1514A      2.134835  1515A      2.135231  
    1516A      2.136851  1517A      2.137332  1518A      2.142936  
    1519A      2.143105  1520A      2.143154  1521A      2.143887  
    1522A      2.144123  1523A      2.154129  1524A      2.154884  
    1525A      2.157248  1526A      2.157257  1527A      2.158412  
    1528A      2.159182  1529A      2.159743  1530A      2.159933  
    1531A      2.162415  1532A      2.162685  1533A      2.171100  
    1534A      2.171404  1535A      2.179631  1536A      2.180748  
    1537A      2.181069  1538A      2.182207  1539A      2.187834  
    1540A      2.188753  1541A      2.190499  1542A      2.191478  
    1543A      2.192541  1544A      2.194945  1545A      2.196457  
    1546A      2.197946  1547A      2.200022  1548A      2.200477  
    1549A      2.200792  1550A      2.201208  1551A      2.203077  
    1552A      2.204126  1553A      2.205457  1554A      2.209023  
    1555A      2.213609  1556A      2.213898  1557A      2.220127  
    1558A      2.222093  1559A      2.222679  1560A      2.224163  
    1561A      2.224706  1562A      2.224721  1563A      2.228759  
    1564A      2.231986  1565A      2.232274  1566A      2.233014  
    1567A      2.238625  1568A      2.238826  1569A      2.239368  
    1570A      2.241242  1571A      2.247458  1572A      2.247752  
    1573A      2.248200  1574A      2.248605  1575A      2.260280  
    1576A      2.261430  1577A      2.263338  1578A      2.264835  
    1579A      2.266464  1580A      2.269489  1581A      2.275196  
    1582A      2.282778  1583A      2.284213  1584A      2.290159  
    1585A      2.290981  1586A      2.296247  1587A      2.296739  
    1588A      2.303696  1589A      2.304106  1590A      2.309026  
    1591A      2.314142  1592A      2.324429  1593A      2.324847  
    1594A      2.325162  1595A      2.327046  1596A      2.329359  
    1597A      2.330526  1598A      2.331055  1599A      2.332912  
    1600A      2.334244  1601A      2.334987  1602A      2.339630  
    1603A      2.341352  1604A      2.342130  1605A      2.342302  
    1606A      2.344768  1607A      2.345765  1608A      2.346262  
    1609A      2.349032  1610A      2.349381  1611A      2.367961  
    1612A      2.372158  1613A      2.372776  1614A      2.383569  
    1615A      2.387911  1616A      2.390219  1617A      2.391547  
    1618A      2.392466  1619A      2.396916  1620A      2.418273  
    1621A      2.419454  1622A      2.423410  1623A      2.427490  
    1624A      2.431817  1625A      2.441543  1626A      2.443029  
    1627A      2.451843  1628A      2.453041  1629A      2.464254  
    1630A      2.464302  1631A      2.467698  1632A      2.467951  
    1633A      2.471884  1634A      2.472145  1635A      2.490932  
    1636A      2.491292  1637A      2.494434  1638A      2.501508  
    1639A      2.505872  1640A      2.507016  1641A      2.511426  
    1642A      2.516145  1643A      2.539037  1644A      2.539081  
    1645A      2.539960  1646A      2.541743  1647A      2.542639  
    1648A      2.544715  1649A      2.547440  1650A      2.548436  
    1651A      2.549112  1652A      2.551018  1653A      2.556492  
    1654A      2.556647  1655A      2.564175  1656A      2.571070  
    1657A      2.571450  1658A      2.579939  1659A      2.583624  
    1660A      2.584091  1661A      2.585035  1662A      2.586211  
    1663A      2.588445  1664A      2.588499  1665A      2.593181  
    1666A      2.593469  1667A      2.601251  1668A      2.601395  
    1669A      2.612674  1670A      2.612828  1671A      2.613199  
    1672A      2.613665  1673A      2.616040  1674A      2.617348  
    1675A      2.632506  1676A      2.640515  1677A      2.641404  
    1678A      2.643580  1679A      2.645367  1680A      2.647270  
    1681A      2.648548  1682A      2.649141  1683A      2.652727  
    1684A      2.655657  1685A      2.656047  1686A      2.665944  
    1687A      2.666027  1688A      2.667534  1689A      2.670320  
    1690A      2.670492  1691A      2.673528  1692A      2.677068  
    1693A      2.677508  1694A      2.684180  1695A      2.685461  
    1696A      2.687004  1697A      2.690945  1698A      2.691196  
    1699A      2.691509  1700A      2.692323  1701A      2.696003  
    1702A      2.697254  1703A      2.703928  1704A      2.720567  
    1705A      2.730653  1706A      2.730738  1707A      2.730839  
    1708A      2.730955  1709A      2.731844  1710A      2.752488  
    1711A      2.759916  1712A      2.760634  1713A      2.772284  
    1714A      2.775785  1715A      2.779632  1716A      2.779886  
    1717A      2.799024  1718A      2.799831  1719A      2.801394  
    1720A      2.802150  1721A      2.802184  1722A      2.808098  
    1723A      2.810486  1724A      2.810964  1725A      2.811351  
    1726A      2.813013  1727A      2.814749  1728A      2.815593  
    1729A      2.815688  1730A      2.816274  1731A      2.827873  
    1732A      2.828166  1733A      2.840082  1734A      2.840408  
    1735A      2.841226  1736A      2.841579  1737A      2.845272  
    1738A      2.859906  1739A      2.864749  1740A      2.865335  
    1741A      2.869586  1742A      2.870955  1743A      2.874133  
    1744A      2.895867  1745A      2.896754  1746A      2.912596  
    1747A      2.917598  1748A      2.917730  1749A      2.927389  
    1750A      2.929519  1751A      2.934766  1752A      2.934840  
    1753A      2.962991  1754A      2.964656  1755A      2.965229  
    1756A      2.976070  1757A      2.991598  1758A      2.992422  
    1759A      3.029175  1760A      3.029927  1761A      3.035287  
    1762A      3.038478  1763A      3.046770  1764A      3.047429  
    1765A      3.047944  1766A      3.057437  1767A      3.057495  
    1768A      3.063132  1769A      3.072805  1770A      3.108365  
    1771A      3.112570  1772A      3.112931  1773A      3.122227  
    1774A      3.127039  1775A      3.127346  1776A      3.132329  
    1777A      3.133924  1778A      3.141881  1779A      3.142810  
    1780A      3.148030  1781A      3.148611  1782A      3.149357  
    1783A      3.150016  1784A      3.153466  1785A      3.162057  
    1786A      3.167577  1787A      3.173103  1788A      3.174604  
    1789A      3.175060  1790A      3.192981  1791A      3.193590  
    1792A      3.219979  1793A      3.252782  1794A      3.259333  
    1795A      3.260530  1796A      3.261298  1797A      3.262000  
    1798A      3.264246  1799A      3.268084  1800A      3.271003  
    1801A      3.274381  1802A      3.275230  1803A      3.292061  
    1804A      3.293721  1805A      3.295090  1806A      3.302035  
    1807A      3.361045  1808A      3.361976  1809A      3.369774  
    1810A      3.415462  1811A      3.429478  1812A      3.431949  
    1813A      3.436907  1814A      3.445411  1815A      3.448270  
    1816A      3.460726  1817A      3.464423  1818A      3.465141  
    1819A      3.470815  1820A      3.473682  1821A      3.480883  
    1822A      3.484110  1823A      3.493350  1824A      3.509046  
    1825A      3.538545  1826A      3.574245  1827A      3.575912  
    1828A      3.582108  1829A      3.589830  1830A      3.634790  
    1831A      3.638408  1832A      3.664484  1833A      3.666637  
    1834A      3.704935  1835A      3.747122  1836A      3.749120  
    1837A      3.750329  1838A      3.762909  1839A      3.778519  
    1840A      3.778565  1841A      3.841834  1842A      3.843095  
    1843A      3.871412  1844A      3.874551  1845A      3.904514  
    1846A      3.912841  1847A      3.937582  1848A      3.939352  
    1849A      3.948185  1850A      3.949099  1851A      3.958327  
    1852A      3.964347  1853A      3.970668  1854A      4.024580  
    1855A      4.027393  1856A      4.070724  1857A      4.181539  
    1858A      4.185869  1859A      4.186966  1860A      4.228638  
    1861A      4.301349  1862A      4.321503  1863A      4.392862  
    1864A      5.747396  1865A      5.747635  1866A      5.748474  
    1867A      5.751743  1868A      5.751876  1869A      5.757442  
    1870A      5.757985  1871A      5.758900  1872A      5.777383  
    1873A      5.777687  1874A      5.778235  1875A      6.018481  
    1876A      6.019065  1877A      6.019436  1878A      6.191288  
    1879A      6.325544  1880A      6.325856  1881A      6.371456  
    1882A      6.373086  1883A      6.373655  1884A      7.140828  
    1885A      7.160396  1886A      7.221227  1887A      7.223760  
    1888A      7.226235  1889A      7.242265  1890A      7.243333  
    1891A      7.250349  1892A      7.453285  1893A      7.453601  
    1894A      7.458879  1895A      7.588570  1896A     12.591054  
    1897A     42.906219  1898A     42.907925  1899A     42.908888  
    1900A     42.936129  

    Final Occupation by Irrep:
              A 
    DOCC [   300 ]
    NA   [   300 ]
    NB   [   300 ]

  @DF-RHF Final Energy: -3650.33752436290888

   => Energetics <=

    Nuclear Repulsion Energy =          15611.4211649754324753
    One-Electron Energy =              -36072.0716683495047619
    Two-Electron Energy =               16810.3129790111634065
    Total Energy =                      -3650.3375243629088800

Computation Completed


Properties will be evaluated at   0.000000,   0.000000,   0.000000 [a0]

Properties computed using the SCF density matrix


 Multipole Moments:

 ------------------------------------------------------------------------------------
     Multipole            Electronic (a.u.)      Nuclear  (a.u.)        Total (a.u.)
 ------------------------------------------------------------------------------------

 L = 1.  Multiply by 2.5417464519 to convert [e a0] to [Debye]
 Dipole X            :         -0.0009221            0.0001983           -0.0007237
 Dipole Y            :          0.0010956           -0.0013163           -0.0002207
 Dipole Z            :        577.8911829         -577.8921883           -0.0010053
 Magnitude           :                                                    0.0012582

 ------------------------------------------------------------------------------------

*** tstop() called on n2cn0808.ab2021.local at Sat Jan 27 18:40:28 2024
Module time:
	user time   =   17558.18 seconds =     292.64 minutes
	system time =     967.50 seconds =      16.13 minutes
	total time  =       6101 seconds =     101.68 minutes
Total time:
	user time   =   46696.07 seconds =     778.27 minutes
	system time =    2647.70 seconds =      44.13 minutes
	total time  =      24513 seconds =     408.55 minutes
  Constructing Basis Sets for SAPT...

   => Loading Basis Set <=

    Name: (JUN-CC-PVDZ AUX)
    Role: RIFIT
    Keyword: DF_BASIS_SAPT
    atoms 1                                                   entry B          line    56 file /opt/software/pc2/EB-SW/software/PSI4/1.9-foss-2022a/share/psi4/basis/jun-cc-pvdz-ri.gbs 
    atoms 2-5                                                 entry F          line   232 file /opt/software/pc2/EB-SW/software/PSI4/1.9-foss-2022a/share/psi4/basis/jun-cc-pvdz-ri.gbs 
    atoms 6-23, 30-42, 45-59, 62-78, 81-93, 98-108, 111-119   entry C          line   100 file /opt/software/pc2/EB-SW/software/PSI4/1.9-foss-2022a/share/psi4/basis/jun-cc-pvdz-ri.gbs 
    atoms 24-29, 43-44, 60-61, 79-80, 94-97, 109-110, 120-125 entry H          line    30 file /opt/software/pc2/EB-SW/software/PSI4/1.9-foss-2022a/share/psi4/basis/jun-cc-pvdz-ri.gbs 

   => Loading Basis Set <=

    Name: (JUN-CC-PVDZ AUX)
    Role: JKFIT
    Keyword: DF_BASIS_ELST
    atoms 1                                                   entry B          line    90 file /opt/software/pc2/EB-SW/software/PSI4/1.9-foss-2022a/share/psi4/basis/jun-cc-pvdz-jkfit.gbs 
    atoms 2-5                                                 entry F          line   314 file /opt/software/pc2/EB-SW/software/PSI4/1.9-foss-2022a/share/psi4/basis/jun-cc-pvdz-jkfit.gbs 
    atoms 6-23, 30-42, 45-59, 62-78, 81-93, 98-108, 111-119   entry C          line   146 file /opt/software/pc2/EB-SW/software/PSI4/1.9-foss-2022a/share/psi4/basis/jun-cc-pvdz-jkfit.gbs 
    atoms 24-29, 43-44, 60-61, 79-80, 94-97, 109-110, 120-125 entry H          line    70 file /opt/software/pc2/EB-SW/software/PSI4/1.9-foss-2022a/share/psi4/basis/jun-cc-pvdz-jkfit.gbs 


  //>>>>>>>>>>>>>>>>>>>>>>>>>>>>>>>>>>>//
  //               SSAPT0              //
  //<<<<<<<<<<<<<<<<<<<<<<<<<<<<<<<<<<<//


*** tstart() called on n2cn0808.ab2021.local
*** at Sat Jan 27 18:40:29 2024

        SAPT0  
    Ed Hohenstein
     6 June 2009

      Orbital Information
  --------------------------
    NSO        =      1938
    NMO        =      1900
    NRI        =      6901
    NRI (Elst) =      8531
    NOCC A     =        21
    NOCC B     =       300
    FOCC A     =         5
    FOCC B     =        96
    NVIR A     =      1879
    NVIR B     =      1600

    Elst10,r            =     0.007834315949 [Eh]
    Exch10              =    -0.000000131565 [Eh]
    Exch10 (S^2)        =    -0.000000131565 [Eh]

    Iter     Energy [mEh]          dE [mEh]         Residual      Time [s]
       1      -0.00298431       0.002984313       0.400419802           608
       2      -0.00350386       0.000519546       0.208970067          1258
       3      -0.00372074       0.000216878       0.039450385          1888
       4      -0.00372495       0.000004209       0.008265727          2520
       5      -0.00371882      -0.000006127       0.001126839          3100
       6      -0.00371957       0.000000748       0.000215532          3802
       7      -0.00371954      -0.000000026       0.000053457          4535
       8      -0.00371953      -0.000000011       0.000013764          5212
       9      -0.00371953      -0.000000001       0.000002594          5826
      10      -0.00371953       0.000000001       0.000000413          6383

    CHF Iterations converged


    Iter     Energy [mEh]          dE [mEh]         Residual      Time [s]
       1      -4.19635834       4.196358341      35.581666264           684
       2      -2.70245566      -1.493902685       4.134588629          1345
       3      -2.69087431      -0.011581346       1.401549869          2026
       4      -2.73954429       0.048669974       0.431108982          2590
       5      -2.74572693       0.006182648       0.147709739          3448
       6      -2.74518865      -0.000538287       0.095685461          4474
       7      -2.74381104      -0.001377607       0.042588428          5884
       8      -2.74393230       0.000121258       0.023850594          6978
       9      -2.74426620       0.000333900       0.014487803          8035
      10      -2.74417338      -0.000092813       0.011880502          9210
      11      -2.74411569      -0.000057698       0.004948043         10417
      12      -2.74412202       0.000006336       0.002171204         11600
      13      -2.74413353       0.000011504       0.000824492         12786
      14      -2.74413611       0.000002585       0.000311933         14053
      15      -2.74413474      -0.000001375       0.000200644         15468
      16      -2.74413321      -0.000001528       0.000117106         16778
      17      -2.74413407       0.000000863       0.000053870         18115
      18      -2.74413426       0.000000191       0.000018870         19635
      19      -2.74413417      -0.000000094       0.000009861         21063
      20      -2.74413413      -0.000000043       0.000004082         22402
      21      -2.74413414       0.000000011       0.000001891         23651
      22      -2.74413415       0.000000009       0.000000965         25001

    CHF Iterations converged

    Ind20,r (A<-B)      =    -0.000003719530 [Eh]
    Ind20,r (B<-A)      =    -0.002744134146 [Eh]
    Ind20,r             =    -0.002747853676 [Eh]
    Exch-Ind20,r (A<-B) =     0.000000026993 [Eh]
    Exch-Ind20,r (B<-A) =     0.000000059662 [Eh]
    Exch-Ind20,r        =     0.000000086655 [Eh]
    Disp20              =    -0.000360768313 [Eh]
    Disp20 (SS)         =    -0.000180384156 [Eh]
    Disp20 (OS)         =    -0.000180384156 [Eh]
    Exch-Disp20         =     0.000000047308 [Eh]
    Exch-Disp20 (SS)    =     0.000000036609 [Eh]
    Exch-Disp20 (OS)    =     0.000000010700 [Eh]

    SAPT Results 
  --------------------------------------------------------------------------------------------------------
    Electrostatics                  7.83431595 [mEh]       4.91610748 [kcal/mol]      20.56899369 [kJ/mol]
      Elst10,r                      7.83431595 [mEh]       4.91610748 [kcal/mol]      20.56899369 [kJ/mol]

    Exchange                       -0.00013156 [mEh]      -0.00008256 [kcal/mol]      -0.00034542 [kJ/mol]
      Exch10                       -0.00013156 [mEh]      -0.00008256 [kcal/mol]      -0.00034542 [kJ/mol]
      Exch10(S^2)                  -0.00013156 [mEh]      -0.00008256 [kcal/mol]      -0.00034542 [kJ/mol]

    Induction                      -2.73507257 [mEh]      -1.71628395 [kcal/mol]      -7.18093204 [kJ/mol]
      Ind20,r                      -2.74785368 [mEh]      -1.72430421 [kcal/mol]      -7.21448883 [kJ/mol]
      Exch-Ind20,r                  0.00008666 [mEh]       0.00005438 [kcal/mol]       0.00022751 [kJ/mol]
      delta HF,r (2)                0.01269445 [mEh]       0.00796589 [kcal/mol]       0.03332928 [kJ/mol]

    Dispersion                     -0.36072100 [mEh]      -0.22635585 [kcal/mol]      -0.94707287 [kJ/mol]
      Disp20                       -0.36076831 [mEh]      -0.22638553 [kcal/mol]      -0.94719707 [kJ/mol]
      Exch-Disp20                   0.00004731 [mEh]       0.00002969 [kcal/mol]       0.00012421 [kJ/mol]
      Disp20 (SS)                  -0.18038416 [mEh]      -0.11319277 [kcal/mol]      -0.47359854 [kJ/mol]
      Disp20 (OS)                  -0.18038416 [mEh]      -0.11319277 [kcal/mol]      -0.47359854 [kJ/mol]
      Exch-Disp20 (SS)              0.00003661 [mEh]       0.00002297 [kcal/mol]       0.00009612 [kJ/mol]
      Exch-Disp20 (OS)              0.00001070 [mEh]       0.00000671 [kcal/mol]       0.00002809 [kJ/mol]

  Total HF                          5.09911182 [mEh]       3.19974097 [kcal/mol]      13.38771623 [kJ/mol]
  Total SAPT0                       4.73839081 [mEh]       2.97338512 [kcal/mol]      12.44064336 [kJ/mol]

  Special recipe for scaled SAPT0 (see Manual):
    Electrostatics sSAPT0           7.83431595 [mEh]       4.91610748 [kcal/mol]      20.56899369 [kJ/mol]
    Exchange sSAPT0                -0.00013156 [mEh]      -0.00008256 [kcal/mol]      -0.00034542 [kJ/mol]
    Induction sSAPT0               -2.73507257 [mEh]      -1.71628395 [kcal/mol]      -7.18093204 [kJ/mol]
    Dispersion sSAPT0              -0.36072100 [mEh]      -0.22635585 [kcal/mol]      -0.94707287 [kJ/mol]
  Total sSAPT0                      4.73839081 [mEh]       2.97338512 [kcal/mol]      12.44064336 [kJ/mol]
  --------------------------------------------------------------------------------------------------------

*** tstop() called on n2cn0808.ab2021.local at Mon Jan 29 12:39:44 2024
Module time:
	user time   =   67527.11 seconds =    1125.45 minutes
	system time =    3266.04 seconds =      54.43 minutes
	total time  =     151155 seconds =    2519.25 minutes
Total time:
	user time   =  114224.68 seconds =    1903.74 minutes
	system time =    5913.74 seconds =      98.56 minutes
	total time  =     175669 seconds =    2927.82 minutes

    Psi4 stopped on: Monday, 29 January 2024 12:39PM
    Psi4 wall time for execution: 2 days, 0:47:51.35

*** Psi4 exiting successfully. Buy a developer a beer!
