
    -----------------------------------------------------------------------
          Psi4: An Open-Source Ab Initio Electronic Structure Package
                               Psi4 1.9 release

                         Git: Rev {} zzzzzzz 


    D. G. A. Smith, L. A. Burns, A. C. Simmonett, R. M. Parrish,
    M. C. Schieber, R. Galvelis, P. Kraus, H. Kruse, R. Di Remigio,
    A. Alenaizan, A. M. James, S. Lehtola, J. P. Misiewicz, M. Scheurer,
    R. A. Shaw, J. B. Schriber, Y. Xie, Z. L. Glick, D. A. Sirianni,
    J. S. O'Brien, J. M. Waldrop, A. Kumar, E. G. Hohenstein,
    B. P. Pritchard, B. R. Brooks, H. F. Schaefer III, A. Yu. Sokolov,
    K. Patkowski, A. E. DePrince III, U. Bozkaya, R. A. King,
    F. A. Evangelista, J. M. Turney, T. D. Crawford, C. D. Sherrill,
    J. Chem. Phys. 152(18) 184108 (2020). https://doi.org/10.1063/5.0006002

                            Additional Code Authors
    E. T. Seidl, C. L. Janssen, E. F. Valeev, M. L. Leininger,
    J. F. Gonthier, R. M. Richard, H. R. McAlexander, M. Saitow, X. Wang,
    P. Verma, M. H. Lechner, A. Jiang, S. Behnle, A. G. Heide,
    M. F. Herbst, and D. L. Poole

             Previous Authors, Complete List of Code Contributors,
                       and Citations for Specific Modules
    https://github.com/psi4/psi4/blob/master/codemeta.json
    https://github.com/psi4/psi4/graphs/contributors
    http://psicode.org/psi4manual/master/introduction.html#citing-psifour

    -----------------------------------------------------------------------


    Psi4 started on: Saturday, 10 February 2024 01:00PM

    Process ID: 925802
    Host:       n2cn0350
    PSIDATADIR: /opt/software/pc2/EB-SW/software/PSI4/1.9-foss-2022a/share/psi4
    Memory:     500.0 MiB
    Threads:    16
    
  ==> Input File <==

--------------------------------------------------------------------------
memory 48 GB # how much memory is available ! Depends on the nodes/cores !

molecule dimer {
# monomer A
+1 1    # Charge and multiplicity
C  0.680067 1.417258 -5.515929
C -0.680504 1.419286 -5.515545
N -1.085635 1.420284 -4.197221
C  0.000108 1.423560 -3.415820
C -2.477365 1.469690 -3.729242
N  1.085222 1.420284 -4.197221
H  1.385146 1.409430 -6.333368
H -1.385302 1.419096 -6.333214
H -0.000009 1.425307 -2.334731
C  2.478117 1.403392 -3.732123
H  2.490592 1.430737 -2.641870
H  2.967028 0.489946 -4.079299
H  3.001428 2.278875 -4.123595
H -2.857359 2.491761 -3.809201
H -3.082679 0.799606 -4.342306
H -2.518128 1.142706 -2.689294
--
# monomer B
0 1     # Charge and multiplicity
C   1.22531237526482      0.70753866091955      0.00613762728373
C   1.22532433589282     -0.70753852257020     -0.00619318228664
C   -0.00000567409046      1.41496628609039     -0.00672680580738
C   2.45644923379077      1.41832825917820      0.00902448468363
C   0.00001130712078     -1.41497612663474      0.00347275151708
C   -1.22530046906674      0.70754574598412      0.00838914760619
C   2.45643823516184     -1.41832293188077     -0.00843833914343
C   -0.00000085313587      2.83680140328112     -0.00913035594137
C   3.68182717731192      0.70931832800114     -0.00808954934571
C   2.45512052870677      2.83422403348893     -0.00819210630633
C   3.68182158506039     -0.70933346742900      0.00798293467272
C   -1.22531311884624     -0.70752714354401     -0.00512042085974
C   1.22670006104402      3.54346985599427      0.00816696660346
C   0.00000526469929     -2.83678176723568      0.00832091913869
C   -2.45643555300670      1.41831729028492      0.00842454345199
C   2.45512389762097     -2.83422965658853      0.00783102630520
C   -1.22671388474763      3.54346943575023      0.00827029982280
C   4.91451777504333      1.42717324448953     -0.00160886631602
C   3.69315067131765      3.54279566454522     -0.00155906667985
C   -2.45643712022637     -1.41831290883911     -0.00846337726810
C   1.22670532178455     -3.54347386990643     -0.00780316414624
C   -2.45512491866593      2.83421703463423     -0.00818572995999
C   4.91452486062398     -1.42718653794377      0.00136387641845
C   1.22142509354026      4.97013443726031      0.00150231067809
C   4.89300870916237      2.82518837202648     -0.00039219795739
C   -1.22669652864725     -3.54347062507680     -0.00753595973677
C   -3.68181849668397      0.70932533873199     -0.00807686886569
C   3.69314758099218     -3.54280096939050      0.00148176697923
C   -1.22143177215231      4.97012866986289      0.00168580605083
C   6.13477145276790      0.68054831910577     -0.00083909176631
C   3.65678936045204      4.97295361556775     -0.00065042889723
C   -2.45512642789169     -2.83421472106065      0.00758666850712
C   -3.68181869921921     -0.70932533146830      0.00810055625144
C   4.89301309775526     -2.82519973363176      0.00021895393805
C   -0.00000059327114      5.65044773803267      0.00045449734393
C   6.13477559217374     -0.68055448207492      0.00042622874941
C   2.47813196269732      5.65357712333155      0.00063835075260
C   1.22142288457925     -4.97012668293268     -0.00129718634452
C   -3.69316190412301      3.54279732619245     -0.00139355922051
C   -1.22142804110313     -4.97011793159564     -0.00140994817719
C   -4.91452132810043      1.42717581899491     -0.00153192130862
C   3.65678749952045     -4.97295485423912      0.00080007163680
C   -2.47813805026426      5.65357479452875      0.00092287576113
C   -3.69314125872231     -3.54278984697859      0.00136564082345
C   -4.91451200321153     -1.42718062802730      0.00139857359209
C   -0.00000552908399     -5.65043791501335      0.00005899322272
C   -4.89302000425900      2.82518897091939     -0.00040227981744
C   2.47812647313991     -5.65357317188818     -0.00029052915548
C   -3.65679823041642      4.97295655404175     -0.00047374852278
C   -4.89299899901461     -2.82519139505969      0.00006491824035
C   -2.47812801824129     -5.65356579800621     -0.00056571680280
C   -6.13477002348955      0.68054913825639     -0.00086464346868
C   -3.65678835334731     -4.97294365097028      0.00058578382008
C   -6.13476456307132     -0.68055354348201      0.00040575295444
H   5.83528897565761      3.36927626695423      0.00396712770529
H   7.07385965258860      1.22821762089947     -0.00037744837300
H   4.60066374401555      5.51238117445323     -0.00014522814529
H   5.83528386714679     -3.36930568472863     -0.00423551337640
H   -0.00001167146422      6.73853104613662     -0.00389474766392
H   7.07386165167227     -1.22822657074368     -0.00008250934481
H   2.47331421164041      6.74068466339473      0.00017162982210
H   4.60066897122302     -5.51237575717576      0.00039007446835
H   -2.47331820069565      6.74068209160650      0.00047297644710
H   -0.00000978838621     -6.73852780445195      0.00458867820736
H   -5.83530143450167      3.36927132229595      0.00410314985360
H   2.47330840367253     -6.74068500242887      0.00027980126949
H   -4.60067436136587      5.51237839860371      0.00002010017831
H   -5.83527902699321     -3.36928859177951     -0.00451481925734
H   -2.47329986759855     -6.74067870613986     -0.00016951527498
H   -7.07385728692578      1.22822084484047     -0.00046143985387
H   -4.60067330624313     -5.51236229778631      0.00021776644566
H   -7.07385645456741     -1.22822025997701     -0.00017736581114

    units angstrom      # Angstroms are the default
    no_reorient         # Geometry fixed, default
    symmetry c1         # C1 symmetry, default
}

set {
    scf_type DF         # Density fitting, faster than exact integrals
    freeze_core True    # Freeze core electrons
    basis jun-cc-pVDZ   # Jun-cc-pVDZ basis set, recommended for sSAPT0 in https://doi.org/10.1063/1.4867135
}

energy('ssapt0')        # Compute sSAPT0 energy, includes also SAPT0
--------------------------------------------------------------------------

  Memory set to  44.703 GiB by Python driver.

Scratch directory: /tmp/
   => Loading Basis Set <=

    Name: JUN-CC-PVDZ
    Role: ORBITAL
    Keyword: BASIS
    atoms 1-2, 4-5, 10, 17-70 entry C          line   164 file /opt/software/pc2/EB-SW/software/PSI4/1.9-foss-2022a/share/psi4/basis/jun-cc-pvdz.gbs 
    atoms 3, 6                entry N          line   198 file /opt/software/pc2/EB-SW/software/PSI4/1.9-foss-2022a/share/psi4/basis/jun-cc-pvdz.gbs 
    atoms 7-9, 11-16, 71-88   entry H          line    36 file /opt/software/pc2/EB-SW/software/PSI4/1.9-foss-2022a/share/psi4/basis/jun-cc-pvdz.gbs 

   => Loading Basis Set <=

    Name: JUN-CC-PVDZ
    Role: ORBITAL
    Keyword: BASIS
    atoms 1-2, 4-5, 10, 17-70 entry C          line   164 file /opt/software/pc2/EB-SW/software/PSI4/1.9-foss-2022a/share/psi4/basis/jun-cc-pvdz.gbs 
    atoms 3, 6                entry N          line   198 file /opt/software/pc2/EB-SW/software/PSI4/1.9-foss-2022a/share/psi4/basis/jun-cc-pvdz.gbs 
    atoms 7-9, 11-16, 71-88   entry H          line    36 file /opt/software/pc2/EB-SW/software/PSI4/1.9-foss-2022a/share/psi4/basis/jun-cc-pvdz.gbs 


  //>>>>>>>>>>>>>>>>>>>>>>>>>>>>>>>>>>>//
  //              Dimer HF             //
  //<<<<<<<<<<<<<<<<<<<<<<<<<<<<<<<<<<<//

   => Libint2 <=

    Primary   basis highest AM E, G, H:  5, 4, 3
    Auxiliary basis highest AM E, G, H:  6, 5, 4
    Onebody   basis highest AM E, G, H:  6, 5, 4
    Solid Harmonics ordering:            gaussian

*** tstart() called on n2cn0350
*** at Sat Feb 10 13:00:52 2024

   => Loading Basis Set <=

    Name: JUN-CC-PVDZ
    Role: ORBITAL
    Keyword: BASIS
    atoms 1-2, 4-5, 10, 17-70 entry C          line   164 file /opt/software/pc2/EB-SW/software/PSI4/1.9-foss-2022a/share/psi4/basis/jun-cc-pvdz.gbs 
    atoms 3, 6                entry N          line   198 file /opt/software/pc2/EB-SW/software/PSI4/1.9-foss-2022a/share/psi4/basis/jun-cc-pvdz.gbs 
    atoms 7-9, 11-16, 71-88   entry H          line    36 file /opt/software/pc2/EB-SW/software/PSI4/1.9-foss-2022a/share/psi4/basis/jun-cc-pvdz.gbs 


         ---------------------------------------------------------
                                   SCF
               by Justin Turney, Rob Parrish, Andy Simmonett
                          and Daniel G. A. Smith
                              RHF Reference
                       16 Threads,  45776 MiB Core
         ---------------------------------------------------------

  ==> Geometry <==

    Molecular point group: c1
    Full point group: C1

    Geometry (in Angstrom), charge = 1, multiplicity = 1:

       Center              X                  Y                   Z               Mass       
    ------------   -----------------  -----------------  -----------------  -----------------
         C            0.680066520158     1.235968212970    -4.968997653585    12.000000000000
         C           -0.680504479842     1.237996212970    -4.968613653585    12.000000000000
         N           -1.085635479842     1.238994212970    -3.650289653585    14.003074004430
         C            0.000107520158     1.242270212970    -2.868888653585    12.000000000000
         C           -2.477365479842     1.288400212970    -3.182310653585    12.000000000000
         N            1.085221520158     1.238994212970    -3.650289653585    14.003074004430
         H            1.385145520158     1.228140212970    -5.786436653585     1.007825032230
         H           -1.385302479842     1.237806212970    -5.786282653585     1.007825032230
         H           -0.000009479842     1.244017212970    -1.787799653585     1.007825032230
         C            2.478116520158     1.222102212970    -3.185191653585    12.000000000000
         H            2.490591520158     1.249447212970    -2.094938653585     1.007825032230
         H            2.967027520158     0.308656212970    -3.532367653585     1.007825032230
         H            3.001427520158     2.097585212970    -3.576663653585     1.007825032230
         H           -2.857359479842     2.310471212970    -3.262269653585     1.007825032230
         H           -3.082679479842     0.618316212970    -3.795374653585     1.007825032230
         H           -2.518128479842     0.961416212970    -2.142362653585     1.007825032230
         C            1.225311895423     0.526248873889     0.553068973699    12.000000000000
         C            1.225323856051    -0.888828309601     0.540738164129    12.000000000000
         C           -0.000006153932     1.233676499060     0.540204540608    12.000000000000
         C            2.456448753949     1.237038472148     0.555955831099    12.000000000000
         C            0.000010827279    -1.596265913665     0.550404097933    12.000000000000
         C           -1.225300948908     0.526255958954     0.555320494022    12.000000000000
         C            2.456437755320    -1.599612718911     0.538493007272    12.000000000000
         C           -0.000001332978     2.655511616251     0.537800990474    12.000000000000
         C            3.681826697470     0.528028540971     0.538841797070    12.000000000000
         C            2.455120048865     2.652934246459     0.538739240109    12.000000000000
         C            3.681821105219    -0.890623254459     0.554914281088    12.000000000000
         C           -1.225313598688    -0.888816930574     0.541810925556    12.000000000000
         C            1.226699581202     3.362180068964     0.555098313019    12.000000000000
         C            0.000004784858    -3.018071554266     0.555252265554    12.000000000000
         C           -2.456436032848     1.237027503255     0.555355889867    12.000000000000
         C            2.455123417779    -3.015519443619     0.554762372721    12.000000000000
         C           -1.226714364589     3.362179648720     0.555201646238    12.000000000000
         C            4.914517295202     1.245883457459     0.545322480099    12.000000000000
         C            3.693150191476     3.361505877515     0.545372279736    12.000000000000
         C           -2.456437600068    -1.599602695869     0.538467969147    12.000000000000
         C            1.226704841943    -3.724763656937     0.539128182269    12.000000000000
         C           -2.455125398508     2.652927247604     0.538745616455    12.000000000000
         C            4.914524380782    -1.608476324974     0.548295222834    12.000000000000
         C            1.221424613699     4.788844650230     0.548433657094    12.000000000000
         C            4.893008229321     2.643898584996     0.546539148458    12.000000000000
         C           -1.226697008489    -3.724760412107     0.539395386679    12.000000000000
         C           -3.681818976526     0.528035551702     0.538854477550    12.000000000000
         C            3.693147101150    -3.724090756421     0.548413113395    12.000000000000
         C           -1.221432251994     4.788838882833     0.548617152466    12.000000000000
         C            6.134770972926     0.499258532075     0.546092254649    12.000000000000
         C            3.656788880610     4.791663828537     0.546280917518    12.000000000000
         C           -2.455126907733    -3.015504508091     0.554518014923    12.000000000000
         C           -3.681819179061    -0.890615118499     0.555031902667    12.000000000000
         C            4.893012617914    -3.006489520662     0.547150300353    12.000000000000
         C           -0.000001073113     5.469157951002     0.547385843759    12.000000000000
         C            6.134775112332    -0.861844269105     0.547357575165    12.000000000000
         C            2.478131482856     5.472287336301     0.547569697168    12.000000000000
         C            1.221422404738    -5.151416469963     0.545634160071    12.000000000000
         C           -3.693162383965     3.361507539162     0.545537787195    12.000000000000
         C           -1.221428520945    -5.151407718626     0.545521398238    12.000000000000
         C           -4.914521807942     1.245886031965     0.545399425107    12.000000000000
         C            3.656787019679    -5.154244641269     0.547731418052    12.000000000000
         C           -2.478138530106     5.472285007498     0.547854222177    12.000000000000
         C           -3.693141738564    -3.724079634009     0.548296987239    12.000000000000
         C           -4.914512483053    -1.608470415058     0.548329920008    12.000000000000
         C           -0.000006008926    -5.831727702044     0.546990339638    12.000000000000
         C           -4.893020484101     2.643899183889     0.546529066598    12.000000000000
         C            2.478125993298    -5.834862958919     0.546640817260    12.000000000000
         C           -3.656798710258     4.791666767011     0.546457597893    12.000000000000
         C           -4.892999478856    -3.006481182090     0.546996264656    12.000000000000
         C           -2.478128498083    -5.834855585037     0.546365629613    12.000000000000
         C           -6.134770503331     0.499259351226     0.546066702947    12.000000000000
         C           -3.656788833189    -5.154233438001     0.547517130236    12.000000000000
         C           -6.134765042913    -0.861843330512     0.547337099370    12.000000000000
         H            5.835288495816     3.187986479924     0.550898474121     1.007825032230
         H            7.073859172747     1.046927833869     0.546553898042     1.007825032230
         H            4.600663264174     5.331091387423     0.546786118270     1.007825032230
         H            5.835283387305    -3.550595471759     0.542695833039     1.007825032230
         H           -0.000012151306     6.557241259106     0.543036598752     1.007825032230
         H            7.073861171831    -1.409516357774     0.546848837071     1.007825032230
         H            2.473313731799     6.559394876364     0.547102976238     1.007825032230
         H            4.600668491381    -5.693665544206     0.547321420884     1.007825032230
         H           -2.473318680537     6.559392304576     0.547404322863     1.007825032230
         H           -0.000010268228    -6.919817591482     0.551520024623     1.007825032230
         H           -5.835301914343     3.187981535266     0.551034496269     1.007825032230
         H            2.473307923831    -6.921974789459     0.547211147685     1.007825032230
         H           -4.600674841208     5.331088611573     0.546951446594     1.007825032230
         H           -5.835279506835    -3.550578378810     0.542416527158     1.007825032230
         H           -2.473300347440    -6.921968493170     0.546761831140     1.007825032230
         H           -7.073857766768     1.046931057810     0.546469906562     1.007825032230
         H           -4.600673786085    -5.693652084817     0.547149112861     1.007825032230
         H           -7.073856934409    -1.409510047007     0.546753980604     1.007825032230

  Running in c1 symmetry.

  Rotational constants: A =      0.00179  B =      0.00179  C =      0.00108 [cm^-1]
  Rotational constants: A =     53.67998  B =     53.54259  C =     32.26050 [MHz]
  Nuclear repulsion = 8278.776348317209340

  Charge       = 1
  Multiplicity = 1
  Electrons    = 394
  Nalpha       = 197
  Nbeta        = 197

  ==> Algorithm <==

  SCF Algorithm Type is DF.
  DIIS enabled.
  MOM disabled.
  Fractional occupation disabled.
  Guess Type is SAD.
  Energy threshold   = 1.00e-08
  Density threshold  = 1.00e-08
  Integral threshold = 1.00e-12

  ==> Primary Basis <==

  Basis Set: JUN-CC-PVDZ
    Blend: JUN-CC-PVDZ
    Number of shells: 569
    Number of basis functions: 1233
    Number of Cartesian functions: 1294
    Spherical Harmonics?: true
    Max angular momentum: 2

   => Loading Basis Set <=

    Name: (JUN-CC-PVDZ AUX)
    Role: JKFIT
    Keyword: DF_BASIS_SCF
    atoms 1-2, 4-5, 10, 17-70 entry C          line   146 file /opt/software/pc2/EB-SW/software/PSI4/1.9-foss-2022a/share/psi4/basis/jun-cc-pvdz-jkfit.gbs 
    atoms 3, 6                entry N          line   202 file /opt/software/pc2/EB-SW/software/PSI4/1.9-foss-2022a/share/psi4/basis/jun-cc-pvdz-jkfit.gbs 
    atoms 7-9, 11-16, 71-88   entry H          line    70 file /opt/software/pc2/EB-SW/software/PSI4/1.9-foss-2022a/share/psi4/basis/jun-cc-pvdz-jkfit.gbs 

  ==> Integral Setup <==

  ==> DiskDFJK: Density-Fitted J/K Matrices <==

    J tasked:                  Yes
    K tasked:                  Yes
    wK tasked:                  No
    OpenMP threads:             16
    Integrals threads:          16
    Memory [MiB]:            34332
    Algorithm:                Core
    Integral Cache:           SAVE
    Schwarz Cutoff:          1E-12
    Fitting Condition:       1E-10

   => Auxiliary Basis Set <=

  Basis Set: (JUN-CC-PVDZ AUX)
    Blend: JUN-CC-PVDZ-JKFIT
    Number of shells: 1890
    Number of basis functions: 5440
    Number of Cartesian functions: 6226
    Spherical Harmonics?: true
    Max angular momentum: 3

  Minimum eigenvalue in the overlap matrix is 6.9136687890E-10.
  Reciprocal condition number of the overlap matrix is 2.8706297281E-11.
    Using canonical orthogonalization.
  Overall, 14 of 1233 possible MOs eliminated.


  ==> Pre-Iterations <==

  SCF Guess: Superposition of Atomic Densities via on-the-fly atomic UHF (no occupation information).

   -------------------------
    Irrep   Nso     Nmo    
   -------------------------
     A       1233    1219 
   -------------------------
    Total    1233    1219
   -------------------------

  ==> Iterations <==

                           Total Energy        Delta E     RMS |[F,P]|

   @DF-RHF iter SAD: -2365.72235564765515   -2.36572e+03   0.00000e+00 
   @DF-RHF iter   1: -2358.21567085271772    7.50668e+00   9.42602e-04 DIIS/ADIIS
   @DF-RHF iter   2: -2359.10696399901872   -8.91293e-01   3.18303e-04 DIIS/ADIIS
   @DF-RHF iter   3: -2359.19513602659208   -8.81720e-02   1.20258e-04 DIIS/ADIIS
   @DF-RHF iter   4: -2359.20829162540167   -1.31556e-02   4.54698e-05 DIIS
   @DF-RHF iter   5: -2359.21024312642658   -1.95150e-03   1.04765e-05 DIIS
   @DF-RHF iter   6: -2359.21042916650867   -1.86040e-04   5.52520e-06 DIIS
   @DF-RHF iter   7: -2359.21050340325246   -7.42367e-05   2.35931e-06 DIIS
   @DF-RHF iter   8: -2359.21052561745091   -2.22142e-05   1.14772e-06 DIIS
   @DF-RHF iter   9: -2359.21053098142920   -5.36398e-06   3.07762e-07 DIIS
   @DF-RHF iter  10: -2359.21053124585978   -2.64431e-07   1.30422e-07 DIIS
   @DF-RHF iter  11: -2359.21053127495998   -2.91002e-08   5.56791e-08 DIIS
   @DF-RHF iter  12: -2359.21053128241601   -7.45604e-09   2.71908e-08 DIIS
   @DF-RHF iter  13: -2359.21053128505673   -2.64072e-09   1.31960e-08 DIIS
   @DF-RHF iter  14: -2359.21053128601670   -9.59972e-10   8.83068e-09 DIIS
  Energy and wave function converged.


  ==> Post-Iterations <==

    Orbital Energies [Eh]
    ---------------------

    Doubly Occupied:                                                      

       1A    -15.796578     2A    -15.796182     3A    -11.487475  
       4A    -11.426730     5A    -11.425172     6A    -11.411741  
       7A    -11.411391     8A    -11.348911     9A    -11.347938  
      10A    -11.347440    11A    -11.346293    12A    -11.345448  
      13A    -11.345129    14A    -11.344569    15A    -11.344478  
      16A    -11.343469    17A    -11.342873    18A    -11.342705  
      19A    -11.341625    20A    -11.341455    21A    -11.339977  
      22A    -11.339909    23A    -11.339605    24A    -11.339522  
      25A    -11.339339    26A    -11.339216    27A    -11.339006  
      28A    -11.338962    29A    -11.338364    30A    -11.338276  
      31A    -11.337002    32A    -11.336930    33A    -11.336291  
      34A    -11.334721    35A    -11.334688    36A    -11.334415  
      37A    -11.334392    38A    -11.333212    39A    -11.333079  
      40A    -11.332793    41A    -11.332750    42A    -11.332158  
      43A    -11.331388    44A    -11.331276    45A    -11.331243  
      46A    -11.331193    47A    -11.329683    48A    -11.329637  
      49A    -11.328243    50A    -11.328197    51A    -11.326811  
      52A    -11.326756    53A    -11.326619    54A    -11.326597  
      55A    -11.325022    56A    -11.324973    57A    -11.324427  
      58A    -11.322081    59A    -11.322051    60A    -11.320576  
      61A    -11.320549    62A     -1.541008    63A     -1.396512  
      64A     -1.328821    65A     -1.301469    66A     -1.300597  
      67A     -1.269003    68A     -1.268973    69A     -1.263066  
      70A     -1.235282    71A     -1.228011    72A     -1.216865  
      73A     -1.216634    74A     -1.202799    75A     -1.190714  
      76A     -1.190689    77A     -1.162643    78A     -1.162615  
      79A     -1.159126    80A     -1.151911    81A     -1.143056  
      82A     -1.142991    83A     -1.117654    84A     -1.105608  
      85A     -1.103539    86A     -1.103329    87A     -1.094851  
      88A     -1.089446    89A     -1.082222    90A     -1.066539  
      91A     -1.066346    92A     -1.039460    93A     -1.039408  
      94A     -0.986566    95A     -0.973287    96A     -0.973177  
      97A     -0.969547    98A     -0.966735    99A     -0.966687  
     100A     -0.960787   101A     -0.960627   102A     -0.959716  
     103A     -0.939385   104A     -0.912916   105A     -0.896927  
     106A     -0.896721   107A     -0.891493   108A     -0.891065  
     109A     -0.880614   110A     -0.871402   111A     -0.871367  
     112A     -0.826944   113A     -0.824677   114A     -0.813806  
     115A     -0.813445   116A     -0.813203   117A     -0.809117  
     118A     -0.808857   119A     -0.795076   120A     -0.781842  
     121A     -0.777047   122A     -0.776471   123A     -0.776316  
     124A     -0.772130   125A     -0.771752   126A     -0.754459  
     127A     -0.750149   128A     -0.748120   129A     -0.738059  
     130A     -0.732337   131A     -0.731047   132A     -0.726749  
     133A     -0.726672   134A     -0.716582   135A     -0.716567  
     136A     -0.708450   137A     -0.706327   138A     -0.706314  
     139A     -0.703937   140A     -0.691977   141A     -0.681715  
     142A     -0.680707   143A     -0.680624   144A     -0.679442  
     145A     -0.677372   146A     -0.677144   147A     -0.672837  
     148A     -0.670662   149A     -0.670637   150A     -0.660465  
     151A     -0.656744   152A     -0.656136   153A     -0.645557  
     154A     -0.645158   155A     -0.643155   156A     -0.643046  
     157A     -0.637846   158A     -0.631159   159A     -0.631061  
     160A     -0.617611   161A     -0.617370   162A     -0.615425  
     163A     -0.614878   164A     -0.610664   165A     -0.606877  
     166A     -0.600384   167A     -0.600200   168A     -0.576780  
     169A     -0.573058   170A     -0.570038   171A     -0.566522  
     172A     -0.563681   173A     -0.560628   174A     -0.559713  
     175A     -0.559380   176A     -0.552303   177A     -0.551704  
     178A     -0.531087   179A     -0.530769   180A     -0.516039  
     181A     -0.515929   182A     -0.490482   183A     -0.485539  
     184A     -0.485297   185A     -0.483549   186A     -0.451644  
     187A     -0.451623   188A     -0.427641   189A     -0.421507  
     190A     -0.420851   191A     -0.420465   192A     -0.388319  
     193A     -0.373252   194A     -0.365519   195A     -0.365200  
     196A     -0.303355   197A     -0.303240  

    Virtual:                                                              

     198A     -0.064857   199A     -0.064668   200A     -0.038178  
     201A     -0.032485   202A     -0.031763   203A     -0.018825  
     204A     -0.016685   205A     -0.016139   206A     -0.012343  
     207A     -0.012041   208A     -0.009628   209A     -0.007854  
     210A     -0.004260   211A     -0.002087   212A      0.001155  
     213A      0.003710   214A      0.005407   215A      0.005954  
     216A      0.006530   217A      0.008911   218A      0.010587  
     219A      0.013066   220A      0.014252   221A      0.014581  
     222A      0.017592   223A      0.018087   224A      0.018524  
     225A      0.021687   226A      0.024931   227A      0.030141  
     228A      0.030829   229A      0.032603   230A      0.033792  
     231A      0.033945   232A      0.036340   233A      0.036819  
     234A      0.043978   235A      0.044682   236A      0.045230  
     237A      0.046946   238A      0.049313   239A      0.049710  
     240A      0.052736   241A      0.053974   242A      0.058307  
     243A      0.059987   244A      0.064531   245A      0.065730  
     246A      0.066815   247A      0.068261   248A      0.071776  
     249A      0.072294   250A      0.075923   251A      0.076143  
     252A      0.076557   253A      0.081237   254A      0.081892  
     255A      0.085495   256A      0.086741   257A      0.087397  
     258A      0.088461   259A      0.091162   260A      0.097810  
     261A      0.098157   262A      0.099292   263A      0.100976  
     264A      0.101562   265A      0.103623   266A      0.103837  
     267A      0.108245   268A      0.108799   269A      0.110425  
     270A      0.112026   271A      0.112732   272A      0.116409  
     273A      0.118390   274A      0.118821   275A      0.120009  
     276A      0.120716   277A      0.122018   278A      0.126455  
     279A      0.127253   280A      0.128332   281A      0.131935  
     282A      0.134437   283A      0.137154   284A      0.138370  
     285A      0.141820   286A      0.143210   287A      0.145429  
     288A      0.145841   289A      0.148435   290A      0.149013  
     291A      0.149907   292A      0.150378   293A      0.150849  
     294A      0.151358   295A      0.151666   296A      0.153376  
     297A      0.155388   298A      0.159231   299A      0.160465  
     300A      0.160987   301A      0.161495   302A      0.162611  
     303A      0.164584   304A      0.167301   305A      0.168439  
     306A      0.169821   307A      0.170083   308A      0.170835  
     309A      0.173264   310A      0.174754   311A      0.179288  
     312A      0.179751   313A      0.182594   314A      0.183679  
     315A      0.185953   316A      0.188266   317A      0.188464  
     318A      0.188543   319A      0.189853   320A      0.190295  
     321A      0.191708   322A      0.192445   323A      0.194465  
     324A      0.196823   325A      0.196996   326A      0.198501  
     327A      0.200686   328A      0.203004   329A      0.203348  
     330A      0.204997   331A      0.206134   332A      0.206928  
     333A      0.208449   334A      0.211969   335A      0.214575  
     336A      0.215282   337A      0.217922   338A      0.218521  
     339A      0.219629   340A      0.225796   341A      0.229172  
     342A      0.230937   343A      0.233204   344A      0.235447  
     345A      0.235648   346A      0.237376   347A      0.238320  
     348A      0.239260   349A      0.239863   350A      0.241457  
     351A      0.241995   352A      0.242984   353A      0.243313  
     354A      0.244510   355A      0.245174   356A      0.246864  
     357A      0.247048   358A      0.247906   359A      0.249330  
     360A      0.249924   361A      0.251233   362A      0.251969  
     363A      0.253444   364A      0.255592   365A      0.258074  
     366A      0.259203   367A      0.262430   368A      0.263278  
     369A      0.264578   370A      0.266043   371A      0.267561  
     372A      0.268814   373A      0.269527   374A      0.273665  
     375A      0.275932   376A      0.278546   377A      0.279050  
     378A      0.280536   379A      0.282871   380A      0.283964  
     381A      0.284776   382A      0.286011   383A      0.286715  
     384A      0.289601   385A      0.290126   386A      0.291436  
     387A      0.295229   388A      0.296073   389A      0.297970  
     390A      0.299130   391A      0.300112   392A      0.301283  
     393A      0.303737   394A      0.304894   395A      0.307139  
     396A      0.308068   397A      0.309422   398A      0.310107  
     399A      0.311517   400A      0.312965   401A      0.314056  
     402A      0.317895   403A      0.318493   404A      0.319643  
     405A      0.321298   406A      0.321546   407A      0.323595  
     408A      0.326700   409A      0.327077   410A      0.327633  
     411A      0.328418   412A      0.329934   413A      0.332888  
     414A      0.333628   415A      0.336092   416A      0.337565  
     417A      0.337846   418A      0.338163   419A      0.338870  
     420A      0.340358   421A      0.341342   422A      0.341715  
     423A      0.342286   424A      0.344056   425A      0.344929  
     426A      0.346548   427A      0.347865   428A      0.348706  
     429A      0.350880   430A      0.352112   431A      0.353880  
     432A      0.360286   433A      0.360908   434A      0.363414  
     435A      0.364180   436A      0.366376   437A      0.369436  
     438A      0.369945   439A      0.371268   440A      0.373348  
     441A      0.373883   442A      0.375637   443A      0.376948  
     444A      0.380557   445A      0.381370   446A      0.383138  
     447A      0.385206   448A      0.386589   449A      0.387993  
     450A      0.388971   451A      0.390317   452A      0.391314  
     453A      0.394225   454A      0.398007   455A      0.399742  
     456A      0.400090   457A      0.401803   458A      0.405107  
     459A      0.405506   460A      0.409665   461A      0.410278  
     462A      0.413057   463A      0.414059   464A      0.417168  
     465A      0.419073   466A      0.420974   467A      0.422003  
     468A      0.423355   469A      0.424631   470A      0.426467  
     471A      0.427564   472A      0.432288   473A      0.433326  
     474A      0.436143   475A      0.437826   476A      0.440941  
     477A      0.442077   478A      0.442290   479A      0.446812  
     480A      0.447751   481A      0.448710   482A      0.450434  
     483A      0.455183   484A      0.456390   485A      0.462426  
     486A      0.464960   487A      0.465930   488A      0.468219  
     489A      0.472024   490A      0.474131   491A      0.475245  
     492A      0.476467   493A      0.476966   494A      0.479970  
     495A      0.481154   496A      0.482911   497A      0.483338  
     498A      0.485262   499A      0.487969   500A      0.488234  
     501A      0.490198   502A      0.494731   503A      0.496242  
     504A      0.503248   505A      0.508434   506A      0.512438  
     507A      0.515355   508A      0.518598   509A      0.520102  
     510A      0.520824   511A      0.524340   512A      0.526996  
     513A      0.534142   514A      0.538408   515A      0.543954  
     516A      0.545129   517A      0.547219   518A      0.551221  
     519A      0.552646   520A      0.553816   521A      0.561236  
     522A      0.564848   523A      0.572334   524A      0.578251  
     525A      0.579503   526A      0.585676   527A      0.592888  
     528A      0.593859   529A      0.594373   530A      0.600645  
     531A      0.600777   532A      0.609973   533A      0.639224  
     534A      0.639402   535A      0.657601   536A      0.664828  
     537A      0.666809   538A      0.667268   539A      0.668635  
     540A      0.669162   541A      0.680391   542A      0.681116  
     543A      0.687553   544A      0.691294   545A      0.709929  
     546A      0.712149   547A      0.714047   548A      0.720287  
     549A      0.721685   550A      0.732991   551A      0.734883  
     552A      0.736921   553A      0.739697   554A      0.741915  
     555A      0.746724   556A      0.750956   557A      0.751802  
     558A      0.752934   559A      0.754317   560A      0.756053  
     561A      0.763979   562A      0.768110   563A      0.771895  
     564A      0.773878   565A      0.777509   566A      0.779503  
     567A      0.785889   568A      0.787412   569A      0.788649  
     570A      0.790151   571A      0.793194   572A      0.796325  
     573A      0.798193   574A      0.802518   575A      0.803854  
     576A      0.804407   577A      0.807244   578A      0.811018  
     579A      0.814221   580A      0.815477   581A      0.816161  
     582A      0.817148   583A      0.823021   584A      0.825686  
     585A      0.827659   586A      0.829536   587A      0.833828  
     588A      0.837310   589A      0.838180   590A      0.839680  
     591A      0.841256   592A      0.842981   593A      0.843669  
     594A      0.844449   595A      0.845680   596A      0.848543  
     597A      0.849570   598A      0.852940   599A      0.854757  
     600A      0.857633   601A      0.858297   602A      0.861698  
     603A      0.863016   604A      0.865235   605A      0.869226  
     606A      0.870901   607A      0.871702   608A      0.875678  
     609A      0.875914   610A      0.883000   611A      0.885057  
     612A      0.888806   613A      0.891049   614A      0.892251  
     615A      0.894746   616A      0.897286   617A      0.899449  
     618A      0.899984   619A      0.901584   620A      0.902663  
     621A      0.904615   622A      0.907391   623A      0.910180  
     624A      0.912279   625A      0.914050   626A      0.916622  
     627A      0.919669   628A      0.922345   629A      0.928917  
     630A      0.932090   631A      0.933687   632A      0.938406  
     633A      0.940610   634A      0.941716   635A      0.945235  
     636A      0.947221   637A      0.947893   638A      0.948677  
     639A      0.950359   640A      0.951511   641A      0.956084  
     642A      0.957700   643A      0.961813   644A      0.963029  
     645A      0.965330   646A      0.966337   647A      0.967538  
     648A      0.968248   649A      0.970004   650A      0.971724  
     651A      0.972382   652A      0.974197   653A      0.975266  
     654A      0.976212   655A      0.981028   656A      0.982832  
     657A      0.983669   658A      0.986051   659A      0.988424  
     660A      0.992997   661A      0.995993   662A      0.998364  
     663A      0.999381   664A      1.000509   665A      1.004839  
     666A      1.005390   667A      1.007034   668A      1.008377  
     669A      1.010450   670A      1.012806   671A      1.014324  
     672A      1.015861   673A      1.018364   674A      1.020366  
     675A      1.024573   676A      1.026090   677A      1.030840  
     678A      1.032365   679A      1.034420   680A      1.035639  
     681A      1.036402   682A      1.037467   683A      1.040732  
     684A      1.042321   685A      1.043869   686A      1.045820  
     687A      1.052401   688A      1.053564   689A      1.057034  
     690A      1.057474   691A      1.060696   692A      1.061134  
     693A      1.063792   694A      1.067458   695A      1.070008  
     696A      1.072134   697A      1.075993   698A      1.077180  
     699A      1.081359   700A      1.085765   701A      1.088715  
     702A      1.089178   703A      1.093797   704A      1.094404  
     705A      1.098092   706A      1.099787   707A      1.103484  
     708A      1.104186   709A      1.109625   710A      1.112867  
     711A      1.113805   712A      1.118533   713A      1.125302  
     714A      1.127496   715A      1.133251   716A      1.134436  
     717A      1.140112   718A      1.143912   719A      1.144416  
     720A      1.145701   721A      1.147584   722A      1.151469  
     723A      1.153408   724A      1.159701   725A      1.163737  
     726A      1.167982   727A      1.170960   728A      1.175412  
     729A      1.177628   730A      1.182840   731A      1.184965  
     732A      1.187402   733A      1.188025   734A      1.189361  
     735A      1.191323   736A      1.193827   737A      1.196866  
     738A      1.198786   739A      1.199416   740A      1.202610  
     741A      1.208277   742A      1.212447   743A      1.215299  
     744A      1.217478   745A      1.220277   746A      1.222287  
     747A      1.225279   748A      1.228635   749A      1.232635  
     750A      1.236057   751A      1.237733   752A      1.241012  
     753A      1.247248   754A      1.248165   755A      1.250848  
     756A      1.252146   757A      1.253020   758A      1.253684  
     759A      1.257163   760A      1.259276   761A      1.265481  
     762A      1.268910   763A      1.271588   764A      1.273649  
     765A      1.274979   766A      1.275861   767A      1.278978  
     768A      1.283829   769A      1.286818   770A      1.288686  
     771A      1.292772   772A      1.301683   773A      1.304012  
     774A      1.308432   775A      1.309991   776A      1.314579  
     777A      1.316828   778A      1.329257   779A      1.329853  
     780A      1.332173   781A      1.332326   782A      1.334725  
     783A      1.339912   784A      1.342848   785A      1.345294  
     786A      1.346858   787A      1.352168   788A      1.354932  
     789A      1.356660   790A      1.359004   791A      1.361483  
     792A      1.364520   793A      1.369143   794A      1.369832  
     795A      1.371196   796A      1.373088   797A      1.376672  
     798A      1.379172   799A      1.380295   800A      1.386796  
     801A      1.395174   802A      1.400855   803A      1.410117  
     804A      1.416828   805A      1.437843   806A      1.440051  
     807A      1.442604   808A      1.442727   809A      1.450229  
     810A      1.458300   811A      1.462801   812A      1.471217  
     813A      1.484089   814A      1.500771   815A      1.504479  
     816A      1.515459   817A      1.516012   818A      1.518159  
     819A      1.523243   820A      1.527328   821A      1.529439  
     822A      1.533318   823A      1.535285   824A      1.535535  
     825A      1.538684   826A      1.546216   827A      1.548151  
     828A      1.552841   829A      1.558546   830A      1.561432  
     831A      1.562520   832A      1.564205   833A      1.567785  
     834A      1.568639   835A      1.573085   836A      1.576261  
     837A      1.578578   838A      1.582656   839A      1.585717  
     840A      1.591289   841A      1.592487   842A      1.593828  
     843A      1.597251   844A      1.599615   845A      1.601796  
     846A      1.602972   847A      1.606543   848A      1.607557  
     849A      1.610782   850A      1.615024   851A      1.619374  
     852A      1.621686   853A      1.622286   854A      1.623730  
     855A      1.625133   856A      1.629174   857A      1.630056  
     858A      1.637645   859A      1.643352   860A      1.646265  
     861A      1.657220   862A      1.662440   863A      1.669036  
     864A      1.672453   865A      1.680199   866A      1.686253  
     867A      1.686968   868A      1.691436   869A      1.693201  
     870A      1.699419   871A      1.703027   872A      1.711549  
     873A      1.716713   874A      1.720687   875A      1.726201  
     876A      1.741485   877A      1.743313   878A      1.744434  
     879A      1.746176   880A      1.748177   881A      1.750114  
     882A      1.750997   883A      1.760851   884A      1.763434  
     885A      1.767514   886A      1.770965   887A      1.774063  
     888A      1.778189   889A      1.782799   890A      1.787530  
     891A      1.788421   892A      1.790846   893A      1.793231  
     894A      1.795118   895A      1.796521   896A      1.799070  
     897A      1.803691   898A      1.807161   899A      1.816819  
     900A      1.819326   901A      1.821528   902A      1.828139  
     903A      1.829696   904A      1.831176   905A      1.831515  
     906A      1.835708   907A      1.836548   908A      1.838825  
     909A      1.839944   910A      1.841858   911A      1.842551  
     912A      1.844164   913A      1.847024   914A      1.847830  
     915A      1.849327   916A      1.863133   917A      1.866629  
     918A      1.869552   919A      1.869909   920A      1.871854  
     921A      1.874387   922A      1.876872   923A      1.876982  
     924A      1.879975   925A      1.880165   926A      1.881851  
     927A      1.884843   928A      1.888669   929A      1.890374  
     930A      1.903314   931A      1.906532   932A      1.908071  
     933A      1.915026   934A      1.915777   935A      1.920173  
     936A      1.925225   937A      1.926992   938A      1.929566  
     939A      1.929889   940A      1.933967   941A      1.936342  
     942A      1.937884   943A      1.938957   944A      1.942407  
     945A      1.952263   946A      1.954224   947A      1.955871  
     948A      1.956828   949A      1.959126   950A      1.965333  
     951A      1.968044   952A      1.971484   953A      1.977737  
     954A      1.979404   955A      1.981223   956A      1.983625  
     957A      1.983974   958A      1.986509   959A      1.989778  
     960A      1.993572   961A      1.995493   962A      1.996571  
     963A      1.999638   964A      2.003354   965A      2.004991  
     966A      2.009840   967A      2.011782   968A      2.014273  
     969A      2.020228   970A      2.020967   971A      2.023146  
     972A      2.023872   973A      2.025374   974A      2.025957  
     975A      2.027983   976A      2.032767   977A      2.034946  
     978A      2.035822   979A      2.039163   980A      2.040795  
     981A      2.041860   982A      2.042324   983A      2.043701  
     984A      2.044917   985A      2.049806   986A      2.050332  
     987A      2.051748   988A      2.057412   989A      2.058625  
     990A      2.060001   991A      2.060647   992A      2.063315  
     993A      2.066030   994A      2.066963   995A      2.074376  
     996A      2.075646   997A      2.080346   998A      2.081044  
     999A      2.085024  1000A      2.088519  1001A      2.090652  
    1002A      2.094699  1003A      2.097915  1004A      2.106632  
    1005A      2.107398  1006A      2.110120  1007A      2.112625  
    1008A      2.114532  1009A      2.119718  1010A      2.122032  
    1011A      2.123962  1012A      2.128694  1013A      2.131600  
    1014A      2.139773  1015A      2.141367  1016A      2.142315  
    1017A      2.149255  1018A      2.150745  1019A      2.154634  
    1020A      2.158779  1021A      2.165087  1022A      2.169686  
    1023A      2.171096  1024A      2.173043  1025A      2.174134  
    1026A      2.176025  1027A      2.185547  1028A      2.187996  
    1029A      2.188735  1030A      2.195577  1031A      2.196548  
    1032A      2.198183  1033A      2.199605  1034A      2.205962  
    1035A      2.208236  1036A      2.224842  1037A      2.229491  
    1038A      2.232675  1039A      2.236514  1040A      2.238488  
    1041A      2.240316  1042A      2.247601  1043A      2.249509  
    1044A      2.250820  1045A      2.251821  1046A      2.255999  
    1047A      2.261257  1048A      2.263011  1049A      2.273692  
    1050A      2.275731  1051A      2.277473  1052A      2.279157  
    1053A      2.283753  1054A      2.288880  1055A      2.296778  
    1056A      2.300155  1057A      2.302766  1058A      2.311281  
    1059A      2.339873  1060A      2.342179  1061A      2.345699  
    1062A      2.346881  1063A      2.347320  1064A      2.360145  
    1065A      2.363166  1066A      2.365633  1067A      2.375611  
    1068A      2.392322  1069A      2.401293  1070A      2.402557  
    1071A      2.408754  1072A      2.410851  1073A      2.412992  
    1074A      2.424792  1075A      2.428895  1076A      2.445457  
    1077A      2.454117  1078A      2.456352  1079A      2.470828  
    1080A      2.472883  1081A      2.473398  1082A      2.475008  
    1083A      2.481140  1084A      2.482488  1085A      2.482909  
    1086A      2.483309  1087A      2.495028  1088A      2.495555  
    1089A      2.502691  1090A      2.503335  1091A      2.503582  
    1092A      2.512060  1093A      2.512518  1094A      2.515648  
    1095A      2.517716  1096A      2.520450  1097A      2.541799  
    1098A      2.543628  1099A      2.550615  1100A      2.551255  
    1101A      2.555452  1102A      2.556867  1103A      2.563133  
    1104A      2.568145  1105A      2.570074  1106A      2.571425  
    1107A      2.580199  1108A      2.581492  1109A      2.583288  
    1110A      2.607426  1111A      2.610520  1112A      2.612150  
    1113A      2.617458  1114A      2.624264  1115A      2.632662  
    1116A      2.633883  1117A      2.634200  1118A      2.639986  
    1119A      2.640173  1120A      2.641979  1121A      2.647310  
    1122A      2.650337  1123A      2.663132  1124A      2.678261  
    1125A      2.681594  1126A      2.685430  1127A      2.702861  
    1128A      2.717050  1129A      2.717413  1130A      2.732246  
    1131A      2.734063  1132A      2.739849  1133A      2.750606  
    1134A      2.753294  1135A      2.762043  1136A      2.771405  
    1137A      2.773777  1138A      2.776077  1139A      2.777491  
    1140A      2.778435  1141A      2.782474  1142A      2.791466  
    1143A      2.794176  1144A      2.797307  1145A      2.805223  
    1146A      2.825763  1147A      2.840097  1148A      2.846076  
    1149A      2.846747  1150A      2.859284  1151A      2.866600  
    1152A      2.873211  1153A      2.879840  1154A      2.888531  
    1155A      2.894013  1156A      2.905500  1157A      2.939205  
    1158A      2.939407  1159A      2.953499  1160A      2.960540  
    1161A      2.968466  1162A      2.984813  1163A      2.985039  
    1164A      2.995405  1165A      3.000041  1166A      3.036344  
    1167A      3.043737  1168A      3.046321  1169A      3.056746  
    1170A      3.058373  1171A      3.062630  1172A      3.064123  
    1173A      3.070380  1174A      3.071915  1175A      3.073868  
    1176A      3.076427  1177A      3.081062  1178A      3.088281  
    1179A      3.091891  1180A      3.094921  1181A      3.098040  
    1182A      3.105440  1183A      3.117915  1184A      3.131800  
    1185A      3.138774  1186A      3.152791  1187A      3.168539  
    1188A      3.201690  1189A      3.209011  1190A      3.210898  
    1191A      3.219933  1192A      3.229126  1193A      3.341338  
    1194A      3.341736  1195A      3.409290  1196A      3.412886  
    1197A      3.427810  1198A      3.470035  1199A      3.477779  
    1200A      3.520197  1201A      3.531646  1202A      3.553915  
    1203A      3.560908  1204A      3.580928  1205A      3.587405  
    1206A      3.593169  1207A      3.632084  1208A      3.699529  
    1209A      3.715608  1210A      3.780218  1211A      3.794923  
    1212A      3.795090  1213A      3.837055  1214A      3.838388  
    1215A      3.897714  1216A      3.931144  1217A      3.999279  
    1218A      4.012847  1219A      4.053658  

    Final Occupation by Irrep:
              A 
    DOCC [   197 ]
    NA   [   197 ]
    NB   [   197 ]

  @DF-RHF Final Energy: -2359.21053128601670

   => Energetics <=

    Nuclear Repulsion Energy =           8278.7763483172093402
    One-Electron Energy =              -19657.1574596239552193
    Two-Electron Energy =                9019.1705800207291759
    Total Energy =                      -2359.2105312860167032

Computation Completed


Properties will be evaluated at   0.000000,   0.000000,   0.000000 [a0]

Properties computed using the SCF density matrix


 Multipole Moments:

 ------------------------------------------------------------------------------------
     Multipole            Electronic (a.u.)      Nuclear  (a.u.)        Total (a.u.)
 ------------------------------------------------------------------------------------

 L = 1.  Multiply by 2.5417464519 to convert [e a0] to [Debye]
 Dipole X            :         -0.0015948            0.0006313           -0.0009635
 Dipole Y            :         -6.0986860            7.4856329            1.3869470
 Dipole Z            :         15.5552605          -20.5277316           -4.9724712
 Magnitude           :                                                    5.1622759

 ------------------------------------------------------------------------------------

*** tstop() called on n2cn0350 at Sat Feb 10 13:09:06 2024
Module time:
	user time   =    5563.55 seconds =      92.73 minutes
	system time =     274.23 seconds =       4.57 minutes
	total time  =        494 seconds =       8.23 minutes
Total time:
	user time   =    5563.55 seconds =      92.73 minutes
	system time =     274.23 seconds =       4.57 minutes
	total time  =        494 seconds =       8.23 minutes

  //>>>>>>>>>>>>>>>>>>>>>>>>>>>>>>>>>>>//
  //            Monomer A HF           //
  //<<<<<<<<<<<<<<<<<<<<<<<<<<<<<<<<<<<//

   => Libint2 <=

    Primary   basis highest AM E, G, H:  5, 4, 3
    Auxiliary basis highest AM E, G, H:  6, 5, 4
    Onebody   basis highest AM E, G, H:  6, 5, 4
    Solid Harmonics ordering:            gaussian

*** tstart() called on n2cn0350
*** at Sat Feb 10 13:09:06 2024

   => Loading Basis Set <=

    Name: JUN-CC-PVDZ
    Role: ORBITAL
    Keyword: BASIS
    atoms 1-2, 4-5, 10, 17-70 entry C          line   164 file /opt/software/pc2/EB-SW/software/PSI4/1.9-foss-2022a/share/psi4/basis/jun-cc-pvdz.gbs 
    atoms 3, 6                entry N          line   198 file /opt/software/pc2/EB-SW/software/PSI4/1.9-foss-2022a/share/psi4/basis/jun-cc-pvdz.gbs 
    atoms 7-9, 11-16, 71-88   entry H          line    36 file /opt/software/pc2/EB-SW/software/PSI4/1.9-foss-2022a/share/psi4/basis/jun-cc-pvdz.gbs 


         ---------------------------------------------------------
                                   SCF
               by Justin Turney, Rob Parrish, Andy Simmonett
                          and Daniel G. A. Smith
                              RHF Reference
                       16 Threads,  45776 MiB Core
         ---------------------------------------------------------

  ==> Geometry <==

    Molecular point group: c1
    Full point group: C1

    Geometry (in Angstrom), charge = 1, multiplicity = 1:

       Center              X                  Y                   Z               Mass       
    ------------   -----------------  -----------------  -----------------  -----------------
         C            0.680066520158     1.235968212970    -4.968997653585    12.000000000000
         C           -0.680504479842     1.237996212970    -4.968613653585    12.000000000000
         N           -1.085635479842     1.238994212970    -3.650289653585    14.003074004430
         C            0.000107520158     1.242270212970    -2.868888653585    12.000000000000
         C           -2.477365479842     1.288400212970    -3.182310653585    12.000000000000
         N            1.085221520158     1.238994212970    -3.650289653585    14.003074004430
         H            1.385145520158     1.228140212970    -5.786436653585     1.007825032230
         H           -1.385302479842     1.237806212970    -5.786282653585     1.007825032230
         H           -0.000009479842     1.244017212970    -1.787799653585     1.007825032230
         C            2.478116520158     1.222102212970    -3.185191653585    12.000000000000
         H            2.490591520158     1.249447212970    -2.094938653585     1.007825032230
         H            2.967027520158     0.308656212970    -3.532367653585     1.007825032230
         H            3.001427520158     2.097585212970    -3.576663653585     1.007825032230
         H           -2.857359479842     2.310471212970    -3.262269653585     1.007825032230
         H           -3.082679479842     0.618316212970    -3.795374653585     1.007825032230
         H           -2.518128479842     0.961416212970    -2.142362653585     1.007825032230
      Gh(C)           1.225311895423     0.526248873889     0.553068973699    12.000000000000
      Gh(C)           1.225323856051    -0.888828309601     0.540738164129    12.000000000000
      Gh(C)          -0.000006153932     1.233676499060     0.540204540608    12.000000000000
      Gh(C)           2.456448753949     1.237038472148     0.555955831099    12.000000000000
      Gh(C)           0.000010827279    -1.596265913665     0.550404097933    12.000000000000
      Gh(C)          -1.225300948908     0.526255958954     0.555320494022    12.000000000000
      Gh(C)           2.456437755320    -1.599612718911     0.538493007272    12.000000000000
      Gh(C)          -0.000001332978     2.655511616251     0.537800990474    12.000000000000
      Gh(C)           3.681826697470     0.528028540971     0.538841797070    12.000000000000
      Gh(C)           2.455120048865     2.652934246459     0.538739240109    12.000000000000
      Gh(C)           3.681821105219    -0.890623254459     0.554914281088    12.000000000000
      Gh(C)          -1.225313598688    -0.888816930574     0.541810925556    12.000000000000
      Gh(C)           1.226699581202     3.362180068964     0.555098313019    12.000000000000
      Gh(C)           0.000004784858    -3.018071554266     0.555252265554    12.000000000000
      Gh(C)          -2.456436032848     1.237027503255     0.555355889867    12.000000000000
      Gh(C)           2.455123417779    -3.015519443619     0.554762372721    12.000000000000
      Gh(C)          -1.226714364589     3.362179648720     0.555201646238    12.000000000000
      Gh(C)           4.914517295202     1.245883457459     0.545322480099    12.000000000000
      Gh(C)           3.693150191476     3.361505877515     0.545372279736    12.000000000000
      Gh(C)          -2.456437600068    -1.599602695869     0.538467969147    12.000000000000
      Gh(C)           1.226704841943    -3.724763656937     0.539128182269    12.000000000000
      Gh(C)          -2.455125398508     2.652927247604     0.538745616455    12.000000000000
      Gh(C)           4.914524380782    -1.608476324974     0.548295222834    12.000000000000
      Gh(C)           1.221424613699     4.788844650230     0.548433657094    12.000000000000
      Gh(C)           4.893008229321     2.643898584996     0.546539148458    12.000000000000
      Gh(C)          -1.226697008489    -3.724760412107     0.539395386679    12.000000000000
      Gh(C)          -3.681818976526     0.528035551702     0.538854477550    12.000000000000
      Gh(C)           3.693147101150    -3.724090756421     0.548413113395    12.000000000000
      Gh(C)          -1.221432251994     4.788838882833     0.548617152466    12.000000000000
      Gh(C)           6.134770972926     0.499258532075     0.546092254649    12.000000000000
      Gh(C)           3.656788880610     4.791663828537     0.546280917518    12.000000000000
      Gh(C)          -2.455126907733    -3.015504508091     0.554518014923    12.000000000000
      Gh(C)          -3.681819179061    -0.890615118499     0.555031902667    12.000000000000
      Gh(C)           4.893012617914    -3.006489520662     0.547150300353    12.000000000000
      Gh(C)          -0.000001073113     5.469157951002     0.547385843759    12.000000000000
      Gh(C)           6.134775112332    -0.861844269105     0.547357575165    12.000000000000
      Gh(C)           2.478131482856     5.472287336301     0.547569697168    12.000000000000
      Gh(C)           1.221422404738    -5.151416469963     0.545634160071    12.000000000000
      Gh(C)          -3.693162383965     3.361507539162     0.545537787195    12.000000000000
      Gh(C)          -1.221428520945    -5.151407718626     0.545521398238    12.000000000000
      Gh(C)          -4.914521807942     1.245886031965     0.545399425107    12.000000000000
      Gh(C)           3.656787019679    -5.154244641269     0.547731418052    12.000000000000
      Gh(C)          -2.478138530106     5.472285007498     0.547854222177    12.000000000000
      Gh(C)          -3.693141738564    -3.724079634009     0.548296987239    12.000000000000
      Gh(C)          -4.914512483053    -1.608470415058     0.548329920008    12.000000000000
      Gh(C)          -0.000006008926    -5.831727702044     0.546990339638    12.000000000000
      Gh(C)          -4.893020484101     2.643899183889     0.546529066598    12.000000000000
      Gh(C)           2.478125993298    -5.834862958919     0.546640817260    12.000000000000
      Gh(C)          -3.656798710258     4.791666767011     0.546457597893    12.000000000000
      Gh(C)          -4.892999478856    -3.006481182090     0.546996264656    12.000000000000
      Gh(C)          -2.478128498083    -5.834855585037     0.546365629613    12.000000000000
      Gh(C)          -6.134770503331     0.499259351226     0.546066702947    12.000000000000
      Gh(C)          -3.656788833189    -5.154233438001     0.547517130236    12.000000000000
      Gh(C)          -6.134765042913    -0.861843330512     0.547337099370    12.000000000000
      Gh(H)           5.835288495816     3.187986479924     0.550898474121     1.007825032230
      Gh(H)           7.073859172747     1.046927833869     0.546553898042     1.007825032230
      Gh(H)           4.600663264174     5.331091387423     0.546786118270     1.007825032230
      Gh(H)           5.835283387305    -3.550595471759     0.542695833039     1.007825032230
      Gh(H)          -0.000012151306     6.557241259106     0.543036598752     1.007825032230
      Gh(H)           7.073861171831    -1.409516357774     0.546848837071     1.007825032230
      Gh(H)           2.473313731799     6.559394876364     0.547102976238     1.007825032230
      Gh(H)           4.600668491381    -5.693665544206     0.547321420884     1.007825032230
      Gh(H)          -2.473318680537     6.559392304576     0.547404322863     1.007825032230
      Gh(H)          -0.000010268228    -6.919817591482     0.551520024623     1.007825032230
      Gh(H)          -5.835301914343     3.187981535266     0.551034496269     1.007825032230
      Gh(H)           2.473307923831    -6.921974789459     0.547211147685     1.007825032230
      Gh(H)          -4.600674841208     5.331088611573     0.546951446594     1.007825032230
      Gh(H)          -5.835279506835    -3.550578378810     0.542416527158     1.007825032230
      Gh(H)          -2.473300347440    -6.921968493170     0.546761831140     1.007825032230
      Gh(H)          -7.073857766768     1.046931057810     0.546469906562     1.007825032230
      Gh(H)          -4.600673786085    -5.693652084817     0.547149112861     1.007825032230
      Gh(H)          -7.073856934409    -1.409510047007     0.546753980604     1.007825032230

  Running in c1 symmetry.

  Rotational constants: A =      0.00179  B =      0.00179  C =      0.00108 [cm^-1]
  Rotational constants: A =     53.67998  B =     53.54259  C =     32.26050 [MHz]
  Nuclear repulsion =  306.774908447733026

  Charge       = 1
  Multiplicity = 1
  Electrons    = 52
  Nalpha       = 26
  Nbeta        = 26

  ==> Algorithm <==

  SCF Algorithm Type is DF.
  DIIS enabled.
  MOM disabled.
  Fractional occupation disabled.
  Guess Type is SAD.
  Energy threshold   = 1.00e-08
  Density threshold  = 1.00e-08
  Integral threshold = 1.00e-12

  ==> Primary Basis <==

  Basis Set: JUN-CC-PVDZ
    Blend: JUN-CC-PVDZ
    Number of shells: 569
    Number of basis functions: 1233
    Number of Cartesian functions: 1294
    Spherical Harmonics?: true
    Max angular momentum: 2

   => Loading Basis Set <=

    Name: (JUN-CC-PVDZ AUX)
    Role: JKFIT
    Keyword: DF_BASIS_SCF
    atoms 1-2, 4-5, 10, 17-70 entry C          line   146 file /opt/software/pc2/EB-SW/software/PSI4/1.9-foss-2022a/share/psi4/basis/jun-cc-pvdz-jkfit.gbs 
    atoms 3, 6                entry N          line   202 file /opt/software/pc2/EB-SW/software/PSI4/1.9-foss-2022a/share/psi4/basis/jun-cc-pvdz-jkfit.gbs 
    atoms 7-9, 11-16, 71-88   entry H          line    70 file /opt/software/pc2/EB-SW/software/PSI4/1.9-foss-2022a/share/psi4/basis/jun-cc-pvdz-jkfit.gbs 

  ==> Integral Setup <==

  ==> DiskDFJK: Density-Fitted J/K Matrices <==

    J tasked:                  Yes
    K tasked:                  Yes
    wK tasked:                  No
    OpenMP threads:             16
    Integrals threads:          16
    Memory [MiB]:            34332
    Algorithm:                Core
    Integral Cache:           LOAD
    Schwarz Cutoff:          1E-12
    Fitting Condition:       1E-10

   => Auxiliary Basis Set <=

  Basis Set: (JUN-CC-PVDZ AUX)
    Blend: JUN-CC-PVDZ-JKFIT
    Number of shells: 1890
    Number of basis functions: 5440
    Number of Cartesian functions: 6226
    Spherical Harmonics?: true
    Max angular momentum: 3

  Minimum eigenvalue in the overlap matrix is 6.9136687890E-10.
  Reciprocal condition number of the overlap matrix is 2.8706297281E-11.
    Using canonical orthogonalization.
  Overall, 14 of 1233 possible MOs eliminated.


  ==> Pre-Iterations <==

  SCF Guess: Superposition of Atomic Densities via on-the-fly atomic UHF (no occupation information).

   -------------------------
    Irrep   Nso     Nmo    
   -------------------------
     A       1233    1219 
   -------------------------
    Total    1233    1219
   -------------------------

  ==> Iterations <==

                           Total Energy        Delta E     RMS |[F,P]|

   @DF-RHF iter SAD:  -303.36536434216913   -3.03365e+02   0.00000e+00 
   @DF-RHF iter   1:  -303.17022369595270    1.95141e-01   3.44742e-04 DIIS/ADIIS
   @DF-RHF iter   2:  -303.28466148912372   -1.14438e-01   1.16064e-04 DIIS/ADIIS
   @DF-RHF iter   3:  -303.29617002356690   -1.15085e-02   4.54861e-05 DIIS
   @DF-RHF iter   4:  -303.29809201201488   -1.92199e-03   9.96868e-06 DIIS
   @DF-RHF iter   5:  -303.29819988873192   -1.07877e-04   2.43795e-06 DIIS
   @DF-RHF iter   6:  -303.29820938249406   -9.49376e-06   6.57524e-07 DIIS
   @DF-RHF iter   7:  -303.29821047409069   -1.09160e-06   3.35395e-07 DIIS
   @DF-RHF iter   8:  -303.29821073349694   -2.59406e-07   1.35040e-07 DIIS
   @DF-RHF iter   9:  -303.29821078336778   -4.98708e-08   3.36803e-08 DIIS
   @DF-RHF iter  10:  -303.29821078619221   -2.82444e-09   1.24522e-08 DIIS
   @DF-RHF iter  11:  -303.29821078643283   -2.40618e-10   2.85944e-09 DIIS
  Energy and wave function converged.


  ==> Post-Iterations <==

    Orbital Energies [Eh]
    ---------------------

    Doubly Occupied:                                                      

       1A    -15.834522     2A    -15.834003     3A    -11.529261  
       4A    -11.459678     5A    -11.458123     6A    -11.449568  
       7A    -11.449471     8A     -1.577815     9A     -1.433437  
      10A     -1.238302    11A     -1.189038    12A     -1.118653  
      13A     -1.022176    14A     -0.996638    15A     -0.916760  
      16A     -0.850241    17A     -0.815960    18A     -0.812857  
      19A     -0.789817    20A     -0.786026    21A     -0.781459  
      22A     -0.729520    23A     -0.725612    24A     -0.716999  
      25A     -0.595983    26A     -0.523586  

    Virtual:                                                              

      27A     -0.079758    28A     -0.073393    29A     -0.062418  
      30A     -0.054696    31A     -0.042808    32A     -0.039832  
      33A     -0.039319    34A     -0.038884    35A     -0.037386  
      36A     -0.027117    37A     -0.026887    38A     -0.020130  
      39A     -0.019201    40A     -0.015006    41A     -0.013104  
      42A     -0.012699    43A     -0.010683    44A     -0.007960  
      45A     -0.003635    46A      0.002622    47A      0.004166  
      48A      0.006244    49A      0.006897    50A      0.007663  
      51A      0.012871    52A      0.013784    53A      0.014319  
      54A      0.018053    55A      0.022181    56A      0.023263  
      57A      0.024397    58A      0.029710    59A      0.030205  
      60A      0.031802    61A      0.038098    62A      0.038736  
      63A      0.040986    64A      0.041494    65A      0.043329  
      66A      0.044990    67A      0.049385    68A      0.050834  
      69A      0.053684    70A      0.054421    71A      0.055763  
      72A      0.057010    73A      0.058577    74A      0.060841  
      75A      0.064079    76A      0.065670    77A      0.066670  
      78A      0.067979    79A      0.069153    80A      0.070592  
      81A      0.071406    82A      0.074441    83A      0.074463  
      84A      0.075387    85A      0.079923    86A      0.081239  
      87A      0.081796    88A      0.082629    89A      0.083513  
      90A      0.086900    91A      0.087599    92A      0.089003  
      93A      0.092939    94A      0.093949    95A      0.094687  
      96A      0.098227    97A      0.102042    98A      0.102522  
      99A      0.103472   100A      0.106466   101A      0.107180  
     102A      0.108187   103A      0.108799   104A      0.111258  
     105A      0.112485   106A      0.113008   107A      0.114420  
     108A      0.114756   109A      0.115848   110A      0.116275  
     111A      0.118076   112A      0.120042   113A      0.123410  
     114A      0.124077   115A      0.125001   116A      0.126356  
     117A      0.128575   118A      0.131742   119A      0.133586  
     120A      0.134936   121A      0.136080   122A      0.136778  
     123A      0.140780   124A      0.140985   125A      0.143468  
     126A      0.144364   127A      0.147447   128A      0.148138  
     129A      0.149967   130A      0.151150   131A      0.152896  
     132A      0.153341   133A      0.154202   134A      0.156272  
     135A      0.158415   136A      0.158746   137A      0.159714  
     138A      0.160914   139A      0.164233   140A      0.166189  
     141A      0.167446   142A      0.167843   143A      0.171316  
     144A      0.174505   145A      0.174994   146A      0.175171  
     147A      0.175363   148A      0.178045   149A      0.178924  
     150A      0.179623   151A      0.179745   152A      0.181577  
     153A      0.184298   154A      0.184988   155A      0.187879  
     156A      0.190333   157A      0.194303   158A      0.195500  
     159A      0.199711   160A      0.201130   161A      0.202721  
     162A      0.203754   163A      0.204702   164A      0.205321  
     165A      0.206027   166A      0.207972   167A      0.209993  
     168A      0.212048   169A      0.212616   170A      0.213784  
     171A      0.215029   172A      0.220749   173A      0.221168  
     174A      0.221705   175A      0.222044   176A      0.224120  
     177A      0.224814   178A      0.226672   179A      0.228401  
     180A      0.228777   181A      0.229946   182A      0.230942  
     183A      0.232279   184A      0.235303   185A      0.236732  
     186A      0.238416   187A      0.239007   188A      0.240764  
     189A      0.243959   190A      0.245767   191A      0.247895  
     192A      0.251498   193A      0.254309   194A      0.257167  
     195A      0.259391   196A      0.261662   197A      0.263979  
     198A      0.264390   199A      0.267324   200A      0.268862  
     201A      0.271619   202A      0.272797   203A      0.275092  
     204A      0.275360   205A      0.277929   206A      0.278630  
     207A      0.282080   208A      0.283731   209A      0.284490  
     210A      0.286130   211A      0.286152   212A      0.287169  
     213A      0.289011   214A      0.291305   215A      0.294131  
     216A      0.295826   217A      0.296701   218A      0.298609  
     219A      0.300253   220A      0.303820   221A      0.304273  
     222A      0.305902   223A      0.310010   224A      0.311604  
     225A      0.312511   226A      0.313528   227A      0.315335  
     228A      0.316277   229A      0.317874   230A      0.321844  
     231A      0.324379   232A      0.325301   233A      0.328270  
     234A      0.332554   235A      0.338572   236A      0.340167  
     237A      0.340887   238A      0.345260   239A      0.347218  
     240A      0.350579   241A      0.354060   242A      0.354792  
     243A      0.356077   244A      0.357281   245A      0.357867  
     246A      0.359465   247A      0.360007   248A      0.364316  
     249A      0.365796   250A      0.369742   251A      0.372169  
     252A      0.374158   253A      0.375597   254A      0.376819  
     255A      0.380130   256A      0.381368   257A      0.381994  
     258A      0.382962   259A      0.385275   260A      0.386401  
     261A      0.388555   262A      0.391536   263A      0.392790  
     264A      0.394501   265A      0.394836   266A      0.396749  
     267A      0.398604   268A      0.399748   269A      0.402292  
     270A      0.403751   271A      0.407203   272A      0.408543  
     273A      0.409692   274A      0.410506   275A      0.411852  
     276A      0.415445   277A      0.417634   278A      0.419455  
     279A      0.420993   280A      0.424988   281A      0.427034  
     282A      0.429136   283A      0.432907   284A      0.436774  
     285A      0.436978   286A      0.439827   287A      0.441649  
     288A      0.443459   289A      0.444428   290A      0.445243  
     291A      0.447931   292A      0.448364   293A      0.451649  
     294A      0.452238   295A      0.454905   296A      0.456196  
     297A      0.457321   298A      0.459496   299A      0.460840  
     300A      0.462097   301A      0.466260   302A      0.469995  
     303A      0.471019   304A      0.472388   305A      0.473297  
     306A      0.475185   307A      0.478608   308A      0.480249  
     309A      0.486166   310A      0.487276   311A      0.489817  
     312A      0.494859   313A      0.495956   314A      0.498590  
     315A      0.499792   316A      0.502362   317A      0.503467  
     318A      0.505057   319A      0.507825   320A      0.508497  
     321A      0.511033   322A      0.512441   323A      0.515868  
     324A      0.521014   325A      0.523203   326A      0.524582  
     327A      0.529336   328A      0.531627   329A      0.533160  
     330A      0.534098   331A      0.538246   332A      0.539704  
     333A      0.541095   334A      0.543135   335A      0.546171  
     336A      0.547575   337A      0.550972   338A      0.552317  
     339A      0.553809   340A      0.557230   341A      0.558542  
     342A      0.560850   343A      0.565813   344A      0.567075  
     345A      0.569595   346A      0.570887   347A      0.572246  
     348A      0.573016   349A      0.575821   350A      0.577056  
     351A      0.584920   352A      0.587835   353A      0.590132  
     354A      0.591797   355A      0.594450   356A      0.597057  
     357A      0.599855   358A      0.602788   359A      0.604266  
     360A      0.605337   361A      0.605592   362A      0.608218  
     363A      0.610190   364A      0.610870   365A      0.615924  
     366A      0.616641   367A      0.618781   368A      0.620601  
     369A      0.624423   370A      0.628773   371A      0.630624  
     372A      0.633957   373A      0.637223   374A      0.641509  
     375A      0.644092   376A      0.646541   377A      0.647824  
     378A      0.652577   379A      0.658108   380A      0.664851  
     381A      0.670791   382A      0.673928   383A      0.674575  
     384A      0.678442   385A      0.680518   386A      0.681454  
     387A      0.683923   388A      0.685122   389A      0.687200  
     390A      0.688193   391A      0.689724   392A      0.690377  
     393A      0.691920   394A      0.695189   395A      0.695883  
     396A      0.700322   397A      0.706243   398A      0.708412  
     399A      0.711906   400A      0.713173   401A      0.714506  
     402A      0.716389   403A      0.719185   404A      0.720242  
     405A      0.726829   406A      0.728764   407A      0.730893  
     408A      0.732111   409A      0.745687   410A      0.749940  
     411A      0.755807   412A      0.760443   413A      0.765951  
     414A      0.767743   415A      0.769667   416A      0.770802  
     417A      0.774965   418A      0.775282   419A      0.780250  
     420A      0.781942   421A      0.788244   422A      0.791146  
     423A      0.796080   424A      0.800383   425A      0.804176  
     426A      0.805177   427A      0.806899   428A      0.809741  
     429A      0.817853   430A      0.817897   431A      0.818551  
     432A      0.821976   433A      0.826864   434A      0.827672  
     435A      0.832009   436A      0.837818   437A      0.839228  
     438A      0.851082   439A      0.859574   440A      0.868366  
     441A      0.875983   442A      0.878421   443A      0.880655  
     444A      0.888328   445A      0.889367   446A      0.895240  
     447A      0.898036   448A      0.903530   449A      0.908860  
     450A      0.916533   451A      0.918624   452A      0.922594  
     453A      0.925840   454A      0.926371   455A      0.928803  
     456A      0.939380   457A      0.940449   458A      0.947820  
     459A      0.951536   460A      0.955102   461A      0.965088  
     462A      0.968221   463A      0.980342   464A      0.981694  
     465A      0.983232   466A      0.988819   467A      0.989642  
     468A      0.991271   469A      0.997998   470A      1.017391  
     471A      1.022083   472A      1.025648   473A      1.027376  
     474A      1.032019   475A      1.045405   476A      1.050251  
     477A      1.068424   478A      1.070773   479A      1.077947  
     480A      1.079198   481A      1.080270   482A      1.084734  
     483A      1.094982   484A      1.103241   485A      1.103506  
     486A      1.103823   487A      1.113074   488A      1.115507  
     489A      1.116618   490A      1.131873   491A      1.134916  
     492A      1.137232   493A      1.142097   494A      1.144273  
     495A      1.149880   496A      1.160259   497A      1.166243  
     498A      1.175121   499A      1.177698   500A      1.200858  
     501A      1.208904   502A      1.211889   503A      1.215356  
     504A      1.222055   505A      1.222690   506A      1.224436  
     507A      1.243043   508A      1.243563   509A      1.244280  
     510A      1.244976   511A      1.285677   512A      1.286478  
     513A      1.289029   514A      1.307945   515A      1.341415  
     516A      1.355005   517A      1.357765   518A      1.367629  
     519A      1.376212   520A      1.378820   521A      1.380216  
     522A      1.381144   523A      1.383242   524A      1.403536  
     525A      1.406510   526A      1.408058   527A      1.411991  
     528A      1.443328   529A      1.456522   530A      1.460360  
     531A      1.467735   532A      1.471458   533A      1.479388  
     534A      1.486538   535A      1.490812   536A      1.494976  
     537A      1.504326   538A      1.515514   539A      1.528600  
     540A      1.540046   541A      1.546315   542A      1.559659  
     543A      1.571536   544A      1.575350   545A      1.577168  
     546A      1.577849   547A      1.586397   548A      1.588393  
     549A      1.592069   550A      1.603176   551A      1.607800  
     552A      1.611523   553A      1.619900   554A      1.635485  
     555A      1.640849   556A      1.660015   557A      1.663792  
     558A      1.666915   559A      1.674020   560A      1.674954  
     561A      1.677705   562A      1.681781   563A      1.683060  
     564A      1.685276   565A      1.689118   566A      1.690985  
     567A      1.693409   568A      1.704464   569A      1.710137  
     570A      1.711093   571A      1.711262   572A      1.714546  
     573A      1.719058   574A      1.719770   575A      1.726622  
     576A      1.729690   577A      1.732427   578A      1.740230  
     579A      1.740942   580A      1.743138   581A      1.744937  
     582A      1.747005   583A      1.754814   584A      1.756386  
     585A      1.756888   586A      1.760709   587A      1.762918  
     588A      1.766105   589A      1.771240   590A      1.771756  
     591A      1.777944   592A      1.778763   593A      1.782329  
     594A      1.783136   595A      1.791874   596A      1.793096  
     597A      1.797489   598A      1.798555   599A      1.800962  
     600A      1.804000   601A      1.804302   602A      1.809269  
     603A      1.813089   604A      1.818036   605A      1.818656  
     606A      1.822184   607A      1.823168   608A      1.823794  
[...]
     811A      1.719857   812A      1.726837   813A      1.738216  
     814A      1.742391   815A      1.751696   816A      1.756694  
     817A      1.761042   818A      1.762359   819A      1.762978  
     820A      1.770073   821A      1.777776   822A      1.778404  
     823A      1.786227   824A      1.792481   825A      1.793309  
     826A      1.805485   827A      1.812281   828A      1.815688  
     829A      1.818932   830A      1.819456   831A      1.822851  
     832A      1.825331   833A      1.825756   834A      1.835295  
     835A      1.839290   836A      1.841516   837A      1.842924  
     838A      1.844014   839A      1.854607   840A      1.861726  
     841A      1.862968   842A      1.863679   843A      1.867071  
     844A      1.867840   845A      1.872206   846A      1.878245  
     847A      1.880239   848A      1.883145   849A      1.895470  
     850A      1.896515   851A      1.901708   852A      1.902418  
     853A      1.904709   854A      1.909203   855A      1.910453  
     856A      1.914651   857A      1.917612   858A      1.918554  
     859A      1.918708   860A      1.919405   861A      1.920711  
     862A      1.922613   863A      1.926520   864A      1.928466  
     865A      1.935136   866A      1.944258   867A      1.944584  
     868A      1.945534   869A      1.948337   870A      1.949691  
     871A      1.952381   872A      1.953414   873A      1.956736  
     874A      1.958360   875A      1.959850   876A      1.966077  
     877A      1.967800   878A      1.973380   879A      1.978028  
     880A      1.981976   881A      1.987401   882A      1.987901  
     883A      1.994545   884A      1.997884   885A      1.998062  
     886A      2.002835   887A      2.003408   888A      2.009213  
     889A      2.010247   890A      2.016971   891A      2.017897  
     892A      2.024879   893A      2.030961   894A      2.032722  
     895A      2.033077   896A      2.035138   897A      2.037547  
     898A      2.040307   899A      2.043041   900A      2.047478  
     901A      2.048856   902A      2.053866   903A      2.056041  
     904A      2.060936   905A      2.063107   906A      2.063737  
     907A      2.067947   908A      2.070789   909A      2.073650  
     910A      2.074721   911A      2.077289   912A      2.077736  
     913A      2.082124   914A      2.085559   915A      2.086884  
     916A      2.088366   917A      2.092742   918A      2.095924  
     919A      2.097452   920A      2.100114   921A      2.100299  
     922A      2.102374   923A      2.103972   924A      2.109616  
     925A      2.110223   926A      2.110437   927A      2.112686  
     928A      2.113726   929A      2.115698   930A      2.118709  
     931A      2.119702   932A      2.120623   933A      2.121769  
     934A      2.122484   935A      2.124393   936A      2.129766  
     937A      2.130611   938A      2.132596   939A      2.135206  
     940A      2.138305   941A      2.139187   942A      2.140569  
     943A      2.143959   944A      2.145061   945A      2.147553  
     946A      2.153980   947A      2.157437   948A      2.161093  
     949A      2.161455   950A      2.163594   951A      2.170219  
     952A      2.171476   953A      2.178876   954A      2.181257  
     955A      2.184365   956A      2.186012   957A      2.190169  
     958A      2.191935   959A      2.192427   960A      2.196134  
     961A      2.198037   962A      2.203473   963A      2.211135  
     964A      2.214771   965A      2.215863   966A      2.218585  
     967A      2.220951   968A      2.228793   969A      2.231129  
     970A      2.234361   971A      2.237819   972A      2.238331  
     973A      2.241784   974A      2.245151   975A      2.245558  
     976A      2.248000   977A      2.249694   978A      2.251444  
     979A      2.256072   980A      2.260745   981A      2.262161  
     982A      2.267743   983A      2.269070   984A      2.270590  
     985A      2.272132   986A      2.273607   987A      2.275854  
     988A      2.281424   989A      2.300835   990A      2.302861  
     991A      2.306846   992A      2.311315   993A      2.313010  
     994A      2.315686   995A      2.322173   996A      2.327587  
     997A      2.328716   998A      2.331762   999A      2.333460  
    1000A      2.339436  1001A      2.341231  1002A      2.346892  
    1003A      2.354023  1004A      2.355963  1005A      2.357854  
    1006A      2.360504  1007A      2.363882  1008A      2.366569  
    1009A      2.372230  1010A      2.381094  1011A      2.388514  
    1012A      2.403769  1013A      2.414596  1014A      2.417771  
    1015A      2.420843  1016A      2.424398  1017A      2.424879  
    1018A      2.425307  1019A      2.436790  1020A      2.440227  
    1021A      2.443921  1022A      2.459227  1023A      2.464857  
    1024A      2.472852  1025A      2.474922  1026A      2.478111  
    1027A      2.489335  1028A      2.489805  1029A      2.492809  
    1030A      2.506300  1031A      2.509376  1032A      2.522824  
    1033A      2.527723  1034A      2.533101  1035A      2.534471  
    1036A      2.547424  1037A      2.548484  1038A      2.549721  
    1039A      2.553187  1040A      2.555671  1041A      2.556406  
    1042A      2.559241  1043A      2.561117  1044A      2.562921  
    1045A      2.565868  1046A      2.570487  1047A      2.574223  
    1048A      2.576225  1049A      2.578502  1050A      2.583447  
    1051A      2.588333  1052A      2.589376  1053A      2.592659  
    1054A      2.596272  1055A      2.599816  1056A      2.610735  
    1057A      2.621081  1058A      2.626887  1059A      2.628657  
    1060A      2.629578  1061A      2.636887  1062A      2.639794  
    1063A      2.643867  1064A      2.645823  1065A      2.653064  
    1066A      2.654502  1067A      2.657660  1068A      2.660384  
    1069A      2.676429  1070A      2.685763  1071A      2.688007  
    1072A      2.692169  1073A      2.693799  1074A      2.703864  
    1075A      2.712101  1076A      2.714029  1077A      2.714637  
    1078A      2.716825  1079A      2.719334  1080A      2.719409  
    1081A      2.722019  1082A      2.724033  1083A      2.731893  
    1084A      2.737426  1085A      2.740579  1086A      2.756587  
    1087A      2.758250  1088A      2.766578  1089A      2.779406  
    1090A      2.788034  1091A      2.795183  1092A      2.799832  
    1093A      2.804514  1094A      2.809339  1095A      2.829129  
    1096A      2.830923  1097A      2.832615  1098A      2.854920  
    1099A      2.856506  1100A      2.856886  1101A      2.858805  
    1102A      2.865191  1103A      2.866747  1104A      2.880011  
    1105A      2.915692  1106A      2.919383  1107A      2.925235  
    1108A      2.931120  1109A      2.932441  1110A      2.937410  
    1111A      2.940421  1112A      2.945728  1113A      2.955796  
    1114A      2.959394  1115A      2.964753  1116A      2.967253  
    1117A      2.980298  1118A      2.992999  1119A      3.012700  
    1120A      3.013620  1121A      3.021744  1122A      3.036083  
    1123A      3.046736  1124A      3.059162  1125A      3.065466  
    1126A      3.065897  1127A      3.074019  1128A      3.076313  
    1129A      3.086100  1130A      3.104453  1131A      3.113603  
    1132A      3.127193  1133A      3.134385  1134A      3.137391  
    1135A      3.138384  1136A      3.140968  1137A      3.146060  
    1138A      3.148830  1139A      3.149632  1140A      3.150501  
    1141A      3.154872  1142A      3.164572  1143A      3.167306  
    1144A      3.168856  1145A      3.170097  1146A      3.182369  
    1147A      3.191923  1148A      3.197355  1149A      3.213588  
    1150A      3.229330  1151A      3.245401  1152A      3.281391  
    1153A      3.285534  1154A      3.287306  1155A      3.298561  
    1156A      3.302575  1157A      3.312013  1158A      3.353766  
    1159A      3.401503  1160A      3.422094  1161A      3.423809  
    1162A      3.466304  1163A      3.493005  1164A      3.501180  
    1165A      3.524998  1166A      3.553539  1167A      3.560262  
    1168A      3.593813  1169A      3.608808  1170A      3.631240  
    1171A      3.632777  1172A      3.642236  1173A      3.657437  
    1174A      3.660168  1175A      3.665922  1176A      3.699065  
    1177A      3.764702  1178A      3.778810  1179A      3.790661  
    1180A      3.819525  1181A      3.840474  1182A      3.871284  
    1183A      3.872287  1184A      3.881511  1185A      3.915477  
    1186A      3.916795  1187A      3.978686  1188A      4.011495  
    1189A      4.018471  1190A      4.072859  1191A      4.104290  
    1192A      4.142799  1193A      4.232250  1194A      4.283757  
    1195A      4.415470  1196A      4.432963  1197A      4.517288  
    1198A      4.801153  1199A      4.852443  1200A      4.883316  
    1201A      4.914860  1202A      4.971409  1203A      5.084603  
    1204A      5.091757  1205A      5.102653  1206A      5.141160  
    1207A      5.217346  1208A      5.422064  1209A      5.442167  
    1210A      5.766842  1211A      5.799219  1212A      6.081543  
    1213A     18.206090  1214A     18.486297  1215A     18.508135  
    1216A     18.596533  1217A     18.855981  1218A     25.357193  
    1219A     25.392335  

    Final Occupation by Irrep:
              A 
    DOCC [   171 ]
    NA   [   171 ]
    NB   [   171 ]

  @DF-RHF Final Energy: -2055.89506627140963

   => Energetics <=

    Nuclear Repulsion Energy =           6452.5568002797781446
    One-Electron Energy =              -15636.5197724155914329
    Two-Electron Energy =                7128.0679058644045654
    Total Energy =                      -2055.8950662714096325

Computation Completed


Properties will be evaluated at   0.000000,   0.000000,   0.000000 [a0]

Properties computed using the SCF density matrix


 Multipole Moments:

 ------------------------------------------------------------------------------------
     Multipole            Electronic (a.u.)      Nuclear  (a.u.)        Total (a.u.)
 ------------------------------------------------------------------------------------

 L = 1.  Multiply by 2.5417464519 to convert [e a0] to [Debye]
 Dipole X            :          0.0000832           -0.0000085            0.0000747
 Dipole Y            :        117.1723089         -117.1648546            0.0074544
 Dipole Z            :       -353.4695560          353.4728124            0.0032563
 Magnitude           :                                                    0.0081349

 ------------------------------------------------------------------------------------

*** tstop() called on n2cn0350 at Sat Feb 10 13:15:39 2024
Module time:
	user time   =    3468.06 seconds =      57.80 minutes
	system time =     122.74 seconds =       2.05 minutes
	total time  =        257 seconds =       4.28 minutes
Total time:
	user time   =   10677.48 seconds =     177.96 minutes
	system time =     431.21 seconds =       7.19 minutes
	total time  =        887 seconds =      14.78 minutes
  Constructing Basis Sets for SAPT...

   => Loading Basis Set <=

    Name: (JUN-CC-PVDZ AUX)
    Role: RIFIT
    Keyword: DF_BASIS_SAPT
    atoms 1-2, 4-5, 10, 17-70 entry C          line   100 file /opt/software/pc2/EB-SW/software/PSI4/1.9-foss-2022a/share/psi4/basis/jun-cc-pvdz-ri.gbs 
    atoms 3, 6                entry N          line   144 file /opt/software/pc2/EB-SW/software/PSI4/1.9-foss-2022a/share/psi4/basis/jun-cc-pvdz-ri.gbs 
    atoms 7-9, 11-16, 71-88   entry H          line    30 file /opt/software/pc2/EB-SW/software/PSI4/1.9-foss-2022a/share/psi4/basis/jun-cc-pvdz-ri.gbs 

   => Loading Basis Set <=

    Name: (JUN-CC-PVDZ AUX)
    Role: JKFIT
    Keyword: DF_BASIS_ELST
    atoms 1-2, 4-5, 10, 17-70 entry C          line   146 file /opt/software/pc2/EB-SW/software/PSI4/1.9-foss-2022a/share/psi4/basis/jun-cc-pvdz-jkfit.gbs 
    atoms 3, 6                entry N          line   202 file /opt/software/pc2/EB-SW/software/PSI4/1.9-foss-2022a/share/psi4/basis/jun-cc-pvdz-jkfit.gbs 
    atoms 7-9, 11-16, 71-88   entry H          line    70 file /opt/software/pc2/EB-SW/software/PSI4/1.9-foss-2022a/share/psi4/basis/jun-cc-pvdz-jkfit.gbs 


  //>>>>>>>>>>>>>>>>>>>>>>>>>>>>>>>>>>>//
  //               SSAPT0              //
  //<<<<<<<<<<<<<<<<<<<<<<<<<<<<<<<<<<<//


*** tstart() called on n2cn0350
*** at Sat Feb 10 13:15:40 2024

        SAPT0  
    Ed Hohenstein
     6 June 2009

      Orbital Information
  --------------------------
    NSO        =      1233
    NMO        =      1219
    NRI        =      4343
    NRI (Elst) =      5440
    NOCC A     =        26
    NOCC B     =       171
    FOCC A     =         7
    FOCC B     =        54
    NVIR A     =      1193
    NVIR B     =      1048

    Elst10,r            =    -0.017325276667 [Eh]
    Exch10              =     0.016835506866 [Eh]
    Exch10 (S^2)        =     0.016750680368 [Eh]

    Iter     Energy [mEh]          dE [mEh]         Residual      Time [s]
       1      -1.04921052       1.049210518       4.888001591            21
       2      -1.21957373       0.170363216       1.858366156            37
       3      -1.26494939       0.045375652       0.224938058            50
       4      -1.26327249      -0.001676899       0.069580041            63
       5      -1.26282485      -0.000447643       0.017735852            77
       6      -1.26297369       0.000148842       0.006910187            90
       7      -1.26297344      -0.000000245       0.002963770           103
       8      -1.26296197      -0.000011475       0.001003882           116
       9      -1.26296001      -0.000001960       0.000271788           129
      10      -1.26296092       0.000000916       0.000105465           142
      11      -1.26296130       0.000000378       0.000029486           155
      12      -1.26296118      -0.000000117       0.000005523           168
      13      -1.26296118      -0.000000007       0.000001694           182
      14      -1.26296118       0.000000004       0.000000669           201

    CHF Iterations converged


    Iter     Energy [mEh]          dE [mEh]         Residual      Time [s]
       1     -21.09516394      21.095163943      71.466780769            21
       2     -15.48365424      -5.611509699      10.769002673            43
       3     -15.84895326       0.365299016       4.810734100            63
       4     -16.38154086       0.532587601       1.032750624            84
       5     -16.39682062       0.015279763       0.405704956           102
       6     -16.37812122      -0.018699402       0.189905891           119
       7     -16.37501812      -0.003103098       0.098381827           134
       8     -16.37799098       0.002972854       0.061051989           150
       9     -16.37916790       0.001176918       0.033386445           167
      10     -16.37850620      -0.000661699       0.025468782           186
      11     -16.37814028      -0.000365913       0.011954651           205
      12     -16.37832765       0.000187367       0.005224934           226
      13     -16.37838618       0.000058531       0.002284414           245
      14     -16.37837915      -0.000007038       0.001036723           266
      15     -16.37836208      -0.000017069       0.000512039           287
      16     -16.37836146      -0.000000614       0.000221893           308
      17     -16.37836540       0.000003942       0.000114988           326
      18     -16.37836595       0.000000546       0.000070702           343
      19     -16.37836498      -0.000000975       0.000038238           364
      20     -16.37836470      -0.000000275       0.000014236           385
      21     -16.37836489       0.000000189       0.000006823           406
      22     -16.37836496       0.000000067       0.000002741           425
      23     -16.37836492      -0.000000031       0.000001503           443
      24     -16.37836491      -0.000000015       0.000000727           463

    CHF Iterations converged

    Ind20,r (A<-B)      =    -0.001262961181 [Eh]
    Ind20,r (B<-A)      =    -0.016378364910 [Eh]
    Ind20,r             =    -0.017641326092 [Eh]
    Exch-Ind20,r (A<-B) =     0.001171383769 [Eh]
    Exch-Ind20,r (B<-A) =     0.003289661661 [Eh]
    Exch-Ind20,r        =     0.004461045430 [Eh]
    Disp20              =    -0.022520600090 [Eh]
    Disp20 (SS)         =    -0.011260300045 [Eh]
    Disp20 (OS)         =    -0.011260300045 [Eh]
    Exch-Disp20         =     0.001339954015 [Eh]
    Exch-Disp20 (SS)    =     0.000819790241 [Eh]
    Exch-Disp20 (OS)    =     0.000520163775 [Eh]

    SAPT Results 
  --------------------------------------------------------------------------------------------------------
    Electrostatics                -17.32527667 [mEh]     -10.87177524 [kcal/mol]     -45.48750762 [kJ/mol]
      Elst10,r                    -17.32527667 [mEh]     -10.87177524 [kcal/mol]     -45.48750762 [kJ/mol]

    Exchange                       16.83550687 [mEh]      10.56444005 [kcal/mol]      44.20161719 [kJ/mol]
      Exch10                       16.83550687 [mEh]      10.56444005 [kcal/mol]      44.20161719 [kJ/mol]
      Exch10(S^2)                  16.75068037 [mEh]      10.51121062 [kcal/mol]      43.97890525 [kJ/mol]

    Induction                     -16.76445837 [mEh]     -10.51985645 [kcal/mol]     -44.01507940 [kJ/mol]
      Ind20,r                     -17.64132609 [mEh]     -11.07009925 [kcal/mol]     -46.31729527 [kJ/mol]
      Exch-Ind20,r                  4.46104543 [mEh]       2.79934827 [kcal/mol]      11.71247316 [kJ/mol]
      delta HF,r (2)               -3.58417771 [mEh]      -2.24910547 [kcal/mol]      -9.41025729 [kJ/mol]

    Dispersion                    -21.18064607 [mEh]     -13.29105607 [kcal/mol]     -55.60977861 [kJ/mol]
      Disp20                      -22.52060009 [mEh]     -14.13188991 [kcal/mol]     -59.12782739 [kJ/mol]
      Exch-Disp20                   1.33995402 [mEh]       0.84083384 [kcal/mol]       3.51804878 [kJ/mol]
      Disp20 (SS)                 -11.26030005 [mEh]      -7.06594496 [kcal/mol]     -29.56391370 [kJ/mol]
      Disp20 (OS)                 -11.26030005 [mEh]      -7.06594496 [kcal/mol]     -29.56391370 [kJ/mol]
      Exch-Disp20 (SS)              0.81979024 [mEh]       0.51442614 [kcal/mol]       2.15235898 [kJ/mol]
      Exch-Disp20 (OS)              0.52016377 [mEh]       0.32640770 [kcal/mol]       1.36568980 [kJ/mol]

  Total HF                        -17.25422817 [mEh]     -10.82719164 [kcal/mol]     -45.30096983 [kJ/mol]
  Total SAPT0                     -38.43487425 [mEh]     -24.11824771 [kcal/mol]    -100.91074844 [kJ/mol]

  Special recipe for scaled SAPT0 (see Manual):
    Electrostatics sSAPT0         -17.32527667 [mEh]     -10.87177524 [kcal/mol]     -45.48750762 [kJ/mol]
    Exchange sSAPT0                16.83550687 [mEh]      10.56444005 [kcal/mol]      44.20161719 [kJ/mol]
    Induction sSAPT0              -16.69634154 [mEh]     -10.47711250 [kcal/mol]     -43.83623868 [kJ/mol]
    Dispersion sSAPT0             -21.16018598 [mEh]     -13.27821717 [kcal/mol]     -55.55606063 [kJ/mol]
  Total sSAPT0                    -38.34629732 [mEh]     -24.06266485 [kcal/mol]    -100.67818975 [kJ/mol]
  --------------------------------------------------------------------------------------------------------

*** tstop() called on n2cn0350 at Sat Feb 10 13:46:52 2024
Module time:
	user time   =   11667.66 seconds =     194.46 minutes
	system time =     830.76 seconds =      13.85 minutes
	total time  =       1872 seconds =      31.20 minutes
Total time:
	user time   =   22345.99 seconds =     372.43 minutes
	system time =    1261.98 seconds =      21.03 minutes
	total time  =       2760 seconds =      46.00 minutes

    Psi4 stopped on: Saturday, 10 February 2024 01:46PM
    Psi4 wall time for execution: 0:46:01.28

*** Psi4 exiting successfully. Buy a developer a beer!
