
    -----------------------------------------------------------------------
          Psi4: An Open-Source Ab Initio Electronic Structure Package
                               Psi4 1.9 release

                         Git: Rev {} zzzzzzz 


    D. G. A. Smith, L. A. Burns, A. C. Simmonett, R. M. Parrish,
    M. C. Schieber, R. Galvelis, P. Kraus, H. Kruse, R. Di Remigio,
    A. Alenaizan, A. M. James, S. Lehtola, J. P. Misiewicz, M. Scheurer,
    R. A. Shaw, J. B. Schriber, Y. Xie, Z. L. Glick, D. A. Sirianni,
    J. S. O'Brien, J. M. Waldrop, A. Kumar, E. G. Hohenstein,
    B. P. Pritchard, B. R. Brooks, H. F. Schaefer III, A. Yu. Sokolov,
    K. Patkowski, A. E. DePrince III, U. Bozkaya, R. A. King,
    F. A. Evangelista, J. M. Turney, T. D. Crawford, C. D. Sherrill,
    J. Chem. Phys. 152(18) 184108 (2020). https://doi.org/10.1063/5.0006002

                            Additional Code Authors
    E. T. Seidl, C. L. Janssen, E. F. Valeev, M. L. Leininger,
    J. F. Gonthier, R. M. Richard, H. R. McAlexander, M. Saitow, X. Wang,
    P. Verma, M. H. Lechner, A. Jiang, S. Behnle, A. G. Heide,
    M. F. Herbst, and D. L. Poole

             Previous Authors, Complete List of Code Contributors,
                       and Citations for Specific Modules
    https://github.com/psi4/psi4/blob/master/codemeta.json
    https://github.com/psi4/psi4/graphs/contributors
    http://psicode.org/psi4manual/master/introduction.html#citing-psifour

    -----------------------------------------------------------------------


    Psi4 started on: Wednesday, 07 February 2024 07:53PM

    Process ID: 102497
    Host:       n2cn0352
    PSIDATADIR: /opt/software/pc2/EB-SW/software/PSI4/1.9-foss-2022a/share/psi4
    Memory:     500.0 MiB
    Threads:    16
    
  ==> Input File <==

--------------------------------------------------------------------------
memory 80 GB # how much memory is available ! Depends on the nodes/cores !

molecule dimer {
# monomer A
-1 1    # Charge and multiplicity
B -0.000046  0.000337 3.699994
F -1.153597  0.000048 4.515641
F  1.153661 -0.000581 4.515641
F -0.000019 -1.153637 2.884360
F -0.000019  1.153978 2.884360
--
# monomer B
0 1     # Charge and multiplicity
C   -3.66844126402057      7.80375217008252      0.00190004133558
C   -4.84759871934653      7.13124183134024     -0.00046653359696
C   -4.89495929917518      5.69633040353158     -0.00103944469517
C   -3.65374067877320      4.98073034095895      0.00662099703436
C   -2.40942512149445      7.11398103667468      0.00209438359570
C   -2.42547734410473      5.68112195090346     -0.00491050527438
C   -1.19474401643570      7.78614419430947      0.00356656413763
C   0.03795902893699      7.09942164575698      0.00139585983271
C   0.03033258741920      5.66948955970466     -0.00408752508301
C   -1.20098450790502      4.96927034791531      0.00488220885047
C   1.27795782581485      7.77285944319479      0.00277170839332
C   2.48535808472416      7.08769688523756      0.00049722048857
C   2.48612868491717      5.65477081024076     -0.00644052849921
C   1.25408291964399      4.95607811366431      0.00518741308898
C   3.75171459140595      7.76391215098033      0.00062407186893
C   4.92356605618520      7.07878077698995     -0.00143240883900
C   4.95560727132542      5.64344746336949     -0.00159282164606
C   3.70680153420475      4.94121020833308      0.00349873852374
H   -3.65852113775815      8.89082741913536      0.00358502958574
H   -1.18921332975660      8.87412108735996      0.00753844057883
H   1.28429423888630      8.86083343548850      0.00693053253426
H   3.75354208679975      8.85103527897216      0.00214659618464
H   5.86995870320703      7.61379483465560     -0.00235777588134
H   -5.78823170750226      7.67630221293400     -0.00202638095293
C   -6.09197395869619      4.99326001364347     -0.00291168518608
C   -6.12866148031747      3.58258016879823     -0.00171050815740
C   -3.66457974004527      3.56418217974434     -0.00463560277484
C   -4.89429820469869      2.86108077590057      0.00453338221034
C   -2.43733499489796      2.84761165708481      0.00719617576166
C   -1.20922785759670      3.54788693497833     -0.00648285103018
C   1.24714157216223      3.53468075142962     -0.00729145743546
C   0.01517603956900      2.83311183930540      0.00439272578912
C   2.46764517244071      2.82128997725533      0.00449278391269
C   3.70254947457969      3.52466015442405     -0.00899517692985
C   6.14498038638375      4.92757236613191     -0.00282626685777
C   6.16658835886151      3.51658447594213     -0.00065971342101
C   4.92460995845939      2.80840792535402      0.00587903281610
H   7.08990550964105      5.46688776622306     -0.00658814770723
H   -7.03104175110130      5.54268795285765     -0.00714490013730
C   -7.33969804112295      2.85841153457957     -0.00333767559888
C   -7.36488195805880      1.47032337158330     -0.00157213747140
C   -4.90350460894690      1.44442681216000     -0.00628840166334
C   -6.13225715261081      0.73993935705394      0.00600164231964
C   -3.67687480051673      0.72669714267312      0.00433931473643
C   -2.44565658606518      1.42964113326212     -0.00597039546461
C   -1.22360068130162      0.71532450163492      0.00545886906656
C   0.00763786931376      1.41738314923765      0.00392452278437
C   1.23121980774686      0.70211669058719     -0.01490206287210
C   2.46082110053113      1.40329203612573      0.00460244601878
C   3.68443025419614      0.68719842821222      0.00377365974158
C   4.91870890153864      1.39173456118907     -0.00862816189375
C   7.36980207796101      2.77948220318441     -0.00242013321349
C   7.38016266612146      1.39121750785509     -0.00087345036788
C   6.13979953912259      0.67411862320065      0.00545489144369
H   -8.27919079934664      3.40711804112415     -0.00763522772059
H   8.31511347147953      3.31811809662368     -0.00663070901292
C   -8.59175593758115      0.72483255304480     -0.00123170985383
C   -8.59902460370342     -0.63263980622873      0.00089141472904
C   -6.13981313911873     -0.67413663715361     -0.00609792660607
C   -7.38018411213749     -1.39126618958160      0.00131813493501
C   -4.91868448025621     -1.39175501803000      0.00624257154343
C   -3.68443829568458     -0.68723731573599     -0.00478966852105
C   -2.46081704024768     -1.40334517882457      0.00575341766833
C   -1.23116201232071     -0.70217386488055     -0.00636696112346
C   -0.00756962538737     -1.41741884941102      0.00108956317991
C   1.22364771588843     -0.71527537726392      0.01109518512883
C   2.44567064933149     -1.42964328900682     -0.00065482763106
C   3.67686670284649     -0.72670743155550     -0.00479541202602
C   6.13224884641929     -0.73997883984993     -0.00632338623858
C   4.90351914550401     -1.44445752054090      0.00751768830159
C   8.59901484869081      0.63260386666793     -0.00101133422380
C   8.59174548810050     -0.72485086719319      0.00072504603735
C   7.36486276438985     -1.47033266560598      0.00049486934466
H   -9.52830597181814      1.27684744919284     -0.00270163681798
H   9.54141097460619      1.17457248844457     -0.00206336648518
C   -7.36983790976868     -2.77954514593389      0.00312634335708
C   -4.92459910905015     -2.80843725734101     -0.00460528907921
C   -6.16662249566744     -3.51665219282533      0.00169655107992
C   -3.70251035970491     -3.52468154912026      0.00571878010666
C   -2.46764698511392     -2.82132596280400     -0.00632585824990
C   -0.01513347410770     -2.83314164539971     -0.00604426974092
C   -1.24712184122656     -3.53473217556300      0.00551968366725
C   1.20924506964357     -3.54791467864352      0.00805871345849
C   2.43733602215464     -2.84764173817541     -0.00608104485234
C   4.89430234377080     -2.86112296828604     -0.00526030478103
C   3.66461525504104     -3.56421984553201      0.00761911515957
C   6.12863901474565     -3.58258405771778      0.00096495711699
C   7.33967266469532     -2.85841330737039      0.00248018319869
H   -9.54144911125902     -1.17456346666430      0.00226083090216
H   9.52826186807155     -1.27691907390448      0.00197485379837
H   -8.31516504384864     -3.31814985321231      0.00729857188773
H   8.27915514249207     -3.40714078989363      0.00681973918158
C   -6.14499418870218     -4.92764727278338      0.00302254913999
C   -3.70678334799751     -4.94126171411716     -0.00679841894792
C   -4.95559005800169     -5.64349397349412      0.00116871569699
C   -2.48612132622665     -5.65478557440947      0.00614125209662
C   -1.25405833548005     -4.95612205000132     -0.00503435388927
C   1.20101257386816     -4.96928038819302     -0.00385322963129
C   -0.03033667441341     -5.66952030313900      0.00398997003238
C   3.65375010132847     -4.98074377541453     -0.00309522988330
C   2.42549269587528     -5.68117463552727      0.00628170066869
C   6.09196561781097     -4.99325796338655      0.00325918379042
C   4.89497644461045     -5.69634842095790      0.00202298796027
H   -7.08989238804069     -5.46699984223871      0.00742531082125
H   7.03105520920009     -5.54265853633254      0.00683896355417
C   -4.92354532219813     -7.07882109967734      0.00061394679214
C   -2.48534208823777     -7.08772807792913     -0.00189594564379
C   -3.75168589177895     -7.76394715763627     -0.00170126671874
C   -0.03794895698805     -7.09946487446944     -0.00168022049625
C   -1.27795610040136     -7.77290438466689     -0.00366491325785
C   2.40944432072629     -7.11402201200282     -0.00081701968533
C   1.19474993715296     -7.78618536556242     -0.00296931056689
C   4.84762105249800     -7.13126211057943      0.00168979497423
C   3.66847160587561     -7.80378799294376     -0.00065863938960
H   -5.86994035041618     -7.61383059804164      0.00215798365757
H   5.78824962538815     -7.67633218931421      0.00281691445618
H   -3.75352693944918     -8.85107156923607     -0.00353718114765
H   -1.28430440589466     -8.86087539249706     -0.00809229711623
H   1.18922157469537     -8.87416062058945     -0.00706194725726
H   3.65854661482387     -8.89086063405326     -0.00231318081200

    units angstrom      # Angstroms are the default
    no_reorient         # Geometry fixed, default
    symmetry c1         # C1 symmetry, default
}

set {
    scf_type DF         # Density fitting, faster than exact integrals
    freeze_core True    # Freeze core electrons
    basis jun-cc-pVDZ   # Jun-cc-pVDZ basis set, recommended for sSAPT0 in https://doi.org/10.1063/1.4867135
}

energy('ssapt0')        # Compute sSAPT0 energy, includes also SAPT0
--------------------------------------------------------------------------

  Memory set to  74.506 GiB by Python driver.

Scratch directory: /tmp/
   => Loading Basis Set <=

    Name: JUN-CC-PVDZ
    Role: ORBITAL
    Keyword: BASIS
    atoms 1                                                   entry B          line   130 file /opt/software/pc2/EB-SW/software/PSI4/1.9-foss-2022a/share/psi4/basis/jun-cc-pvdz.gbs 
    atoms 2-5                                                 entry F          line   266 file /opt/software/pc2/EB-SW/software/PSI4/1.9-foss-2022a/share/psi4/basis/jun-cc-pvdz.gbs 
    atoms 6-23, 30-42, 45-59, 62-78, 81-93, 98-108, 111-119   entry C          line   164 file /opt/software/pc2/EB-SW/software/PSI4/1.9-foss-2022a/share/psi4/basis/jun-cc-pvdz.gbs 
    atoms 24-29, 43-44, 60-61, 79-80, 94-97, 109-110, 120-125 entry H          line    36 file /opt/software/pc2/EB-SW/software/PSI4/1.9-foss-2022a/share/psi4/basis/jun-cc-pvdz.gbs 

   => Loading Basis Set <=

    Name: JUN-CC-PVDZ
    Role: ORBITAL
    Keyword: BASIS
    atoms 1                                                   entry B          line   130 file /opt/software/pc2/EB-SW/software/PSI4/1.9-foss-2022a/share/psi4/basis/jun-cc-pvdz.gbs 
    atoms 2-5                                                 entry F          line   266 file /opt/software/pc2/EB-SW/software/PSI4/1.9-foss-2022a/share/psi4/basis/jun-cc-pvdz.gbs 
    atoms 6-23, 30-42, 45-59, 62-78, 81-93, 98-108, 111-119   entry C          line   164 file /opt/software/pc2/EB-SW/software/PSI4/1.9-foss-2022a/share/psi4/basis/jun-cc-pvdz.gbs 
    atoms 24-29, 43-44, 60-61, 79-80, 94-97, 109-110, 120-125 entry H          line    36 file /opt/software/pc2/EB-SW/software/PSI4/1.9-foss-2022a/share/psi4/basis/jun-cc-pvdz.gbs 


  //>>>>>>>>>>>>>>>>>>>>>>>>>>>>>>>>>>>//
  //              Dimer HF             //
  //<<<<<<<<<<<<<<<<<<<<<<<<<<<<<<<<<<<//

   => Libint2 <=

    Primary   basis highest AM E, G, H:  5, 4, 3
    Auxiliary basis highest AM E, G, H:  6, 5, 4
    Onebody   basis highest AM E, G, H:  6, 5, 4
    Solid Harmonics ordering:            gaussian

*** tstart() called on n2cn0352
*** at Wed Feb  7 19:53:57 2024

   => Loading Basis Set <=

    Name: JUN-CC-PVDZ
    Role: ORBITAL
    Keyword: BASIS
    atoms 1                                                   entry B          line   130 file /opt/software/pc2/EB-SW/software/PSI4/1.9-foss-2022a/share/psi4/basis/jun-cc-pvdz.gbs 
    atoms 2-5                                                 entry F          line   266 file /opt/software/pc2/EB-SW/software/PSI4/1.9-foss-2022a/share/psi4/basis/jun-cc-pvdz.gbs 
    atoms 6-23, 30-42, 45-59, 62-78, 81-93, 98-108, 111-119   entry C          line   164 file /opt/software/pc2/EB-SW/software/PSI4/1.9-foss-2022a/share/psi4/basis/jun-cc-pvdz.gbs 
    atoms 24-29, 43-44, 60-61, 79-80, 94-97, 109-110, 120-125 entry H          line    36 file /opt/software/pc2/EB-SW/software/PSI4/1.9-foss-2022a/share/psi4/basis/jun-cc-pvdz.gbs 


         ---------------------------------------------------------
                                   SCF
               by Justin Turney, Rob Parrish, Andy Simmonett
                          and Daniel G. A. Smith
                              RHF Reference
                       16 Threads,  76293 MiB Core
         ---------------------------------------------------------

  ==> Geometry <==

    Molecular point group: c1
    Full point group: C1

    Geometry (in Angstrom), charge = -1, multiplicity = 1:

       Center              X                  Y                   Z               Mass       
    ------------   -----------------  -----------------  -----------------  -----------------
         B           -0.000050191042     0.000351518223     3.445151473208    11.009305360000
         F           -1.153601191042     0.000062518223     4.260798473208    18.998403162730
         F            1.153656808958    -0.000566481777     4.260798473208    18.998403162730
         F           -0.000023191042    -1.153622481777     2.629517473208    18.998403162730
         F           -0.000023191042     1.153992518223     2.629517473208    18.998403162730
         C           -3.668445455062     7.803766688305    -0.252942485456    12.000000000000
         C           -4.847602910388     7.131256349563    -0.255309060389    12.000000000000
         C           -4.894963490217     5.696344921754    -0.255881971487    12.000000000000
         C           -3.653744869815     4.980744859182    -0.248221529758    12.000000000000
         C           -2.409429312536     7.113995554897    -0.252748143196    12.000000000000
         C           -2.425481535146     5.681136469126    -0.259753032066    12.000000000000
         C           -1.194748207477     7.786158712532    -0.251275962654    12.000000000000
         C            0.037954837895     7.099436163980    -0.253446666959    12.000000000000
         C            0.030328396378     5.669504077927    -0.258930051875    12.000000000000
         C           -1.200988698947     4.969284866138    -0.249960317942    12.000000000000
         C            1.277953634773     7.772873961417    -0.252070818399    12.000000000000
         C            2.485353893683     7.087711403460    -0.254345306303    12.000000000000
         C            2.486124493876     5.654785328463    -0.261283055291    12.000000000000
         C            1.254078728602     4.956092631887    -0.249655113703    12.000000000000
         C            3.751710400364     7.763926669203    -0.254218454923    12.000000000000
         C            4.923561865144     7.078795295213    -0.256274935631    12.000000000000
         C            4.955603080284     5.643461981592    -0.256435348438    12.000000000000
         C            3.706797343163     4.941224726556    -0.251343788268    12.000000000000
         H           -3.658525328800     8.890841937358    -0.251257497206     1.007825032230
         H           -1.189217520798     8.874135605583    -0.247304086213     1.007825032230
         H            1.284290047845     8.860847953711    -0.247911994258     1.007825032230
         H            3.753537895758     8.851049797195    -0.252695930607     1.007825032230
         H            5.869954512165     7.613809352878    -0.257200302673     1.007825032230
         H           -5.788235898544     7.676316731157    -0.256868907745     1.007825032230
         C           -6.091978149738     4.993274531866    -0.257754211978    12.000000000000
         C           -6.128665671359     3.582594687021    -0.256553034949    12.000000000000
         C           -3.664583931087     3.564196697967    -0.259478129567    12.000000000000
         C           -4.894302395740     2.861095294123    -0.250309144582    12.000000000000
         C           -2.437339185940     2.847626175307    -0.247646351030    12.000000000000
         C           -1.209232048638     3.547901453201    -0.261325377822    12.000000000000
         C            1.247137381121     3.534695269652    -0.262133984228    12.000000000000
         C            0.015171848527     2.833126357528    -0.250449801003    12.000000000000
         C            2.467640981399     2.821304495478    -0.250349742879    12.000000000000
         C            3.702545283538     3.524674672647    -0.263837703722    12.000000000000
         C            6.144976195342     4.927586884354    -0.257668793650    12.000000000000
         C            6.166584167820     3.516598994165    -0.255502240213    12.000000000000
         C            4.924605767418     2.808422443577    -0.248963493976    12.000000000000
         H            7.089901318599     5.466902284446    -0.261430674499     1.007825032230
         H           -7.031045942143     5.542702471080    -0.261987426929     1.007825032230
         C           -7.339702232165     2.858426052802    -0.258180202391    12.000000000000
         C           -7.364886149100     1.470337889806    -0.256414664263    12.000000000000
         C           -4.903508799989     1.444441330383    -0.261130928455    12.000000000000
         C           -6.132261343652     0.739953875277    -0.248840884472    12.000000000000
         C           -3.676878991558     0.726711660896    -0.250503212056    12.000000000000
         C           -2.445660777107     1.429655651485    -0.260812922257    12.000000000000
         C           -1.223604872343     0.715339019858    -0.249383657725    12.000000000000
         C            0.007633678272     1.417397667460    -0.250918004008    12.000000000000
         C            1.231215616705     0.702131208810    -0.269744589664    12.000000000000
         C            2.460816909489     1.403306554348    -0.250240080773    12.000000000000
         C            3.684426063155     0.687212946435    -0.251068867050    12.000000000000
         C            4.918704710497     1.391749079412    -0.263470688686    12.000000000000
         C            7.369797886919     2.779496721407    -0.257262660006    12.000000000000
         C            7.380158475080     1.391232026078    -0.255715977160    12.000000000000
         C            6.139795348081     0.674133141423    -0.249387635348    12.000000000000
         H           -8.279194990388     3.407132559347    -0.262477754513     1.007825032230
         H            8.315109280438     3.318132614846    -0.261473235805     1.007825032230
         C           -8.591760128623     0.724847071267    -0.256074236646    12.000000000000
         C           -8.599028794745    -0.632625288006    -0.253951112063    12.000000000000
         C           -6.139817330160    -0.674122118931    -0.260940453398    12.000000000000
         C           -7.380188303179    -1.391251671359    -0.253524391857    12.000000000000
         C           -4.918688671298    -1.391740499807    -0.248599955249    12.000000000000
         C           -3.684442486726    -0.687222797513    -0.259632195313    12.000000000000
         C           -2.460821231289    -1.403330660602    -0.249089109124    12.000000000000
         C           -1.231166203362    -0.702159346658    -0.261209487916    12.000000000000
         C           -0.007573816429    -1.417404331188    -0.253752963612    12.000000000000
         C            1.223643524847    -0.715260859041    -0.243747341663    12.000000000000
         C            2.445666458290    -1.429628770784    -0.255497354423    12.000000000000
         C            3.676862511805    -0.726692913333    -0.259637938818    12.000000000000
         C            6.132244655378    -0.739964321627    -0.261165913031    12.000000000000
         C            4.903514954462    -1.444443002318    -0.247324838490    12.000000000000
         C            8.599010657649     0.632618384891    -0.255853861016    12.000000000000
         C            8.591741297059    -0.724836348971    -0.254117480755    12.000000000000
         C            7.364858573348    -1.470318147383    -0.254347657447    12.000000000000
         H           -9.528310162860     1.276861967415    -0.257544163610     1.007825032230
         H            9.541406783565     1.174587006667    -0.256905893277     1.007825032230
         C           -7.369842100810    -2.779530627711    -0.251716183435    12.000000000000
         C           -4.924603300092    -2.808422739118    -0.259447815871    12.000000000000
         C           -6.166626686709    -3.516637674603    -0.253145975712    12.000000000000
         C           -3.702514550747    -3.524667030898    -0.249123746685    12.000000000000
         C           -2.467651176156    -2.821311444581    -0.261168385042    12.000000000000
         C           -0.015137665149    -2.833127127177    -0.260886796533    12.000000000000
         C           -1.247126032268    -3.534717657340    -0.249322843125    12.000000000000
         C            1.209240878602    -3.547900160421    -0.246783813334    12.000000000000
         C            2.437331831113    -2.847627219953    -0.260923571644    12.000000000000
         C            4.894298152729    -2.861108450063    -0.260102831573    12.000000000000
         C            3.664611063999    -3.564205327309    -0.247223411632    12.000000000000
         C            6.128634823704    -3.582569539495    -0.253877569675    12.000000000000
         C            7.339668473654    -2.858398789148    -0.252362343593    12.000000000000
         H           -9.541453302301    -1.174548948442    -0.252581695890     1.007825032230
         H            9.528257677030    -1.276904555682    -0.252867672994     1.007825032230
         H           -8.315169234890    -3.318135334990    -0.247543954904     1.007825032230
         H            8.279150951450    -3.407126271671    -0.248022787610     1.007825032230
         C           -6.144998379744    -4.927632754561    -0.251819977652    12.000000000000
         C           -3.706787539039    -4.941247195895    -0.261640945740    12.000000000000
         C           -4.955594249043    -5.643479455272    -0.253673811095    12.000000000000
         C           -2.486125517268    -5.654771056187    -0.248701274695    12.000000000000
         C           -1.254062526522    -4.956107531779    -0.259876880681    12.000000000000
         C            1.201008382827    -4.969265869970    -0.258695756423    12.000000000000
         C           -0.030340865455    -5.669505784916    -0.250852556760    12.000000000000
         C            3.653745910287    -4.980729257192    -0.257937756675    12.000000000000
         C            2.425488504834    -5.681160117305    -0.248560826123    12.000000000000
         C            6.091961426769    -4.993243445164    -0.251583343002    12.000000000000
         C            4.894972253569    -5.696333902735    -0.252819538832    12.000000000000
         H           -7.089896579082    -5.466985324016    -0.247417215971     1.007825032230
         H            7.031051018158    -5.542644018110    -0.248003563238     1.007825032230
         C           -4.923549513240    -7.078806581455    -0.254228580000    12.000000000000
         C           -2.485346279279    -7.087713559707    -0.256738472436    12.000000000000
         C           -3.751690082821    -7.763932639414    -0.256543793511    12.000000000000
         C           -0.037953148030    -7.099450356247    -0.256522747288    12.000000000000
         C           -1.277960291443    -7.772889866444    -0.258507440050    12.000000000000
         C            2.409440129685    -7.114007493780    -0.255659546477    12.000000000000
         C            1.194745746111    -7.786170847340    -0.257811837359    12.000000000000
         C            4.847616861456    -7.131247592357    -0.253152731818    12.000000000000
         C            3.668467414834    -7.803773474721    -0.255501166182    12.000000000000
         H           -5.869944541458    -7.613816079819    -0.252684543134     1.007825032230
         H            5.788245434347    -7.676317671092    -0.252025612336     1.007825032230
         H           -3.753531130491    -8.851057051013    -0.258379707940     1.007825032230
         H           -1.284308596936    -8.860860874274    -0.262934823908     1.007825032230
         H            1.189217383654    -8.874146102367    -0.261904474049     1.007825032230
         H            3.658542423782    -8.890846115831    -0.257155707604     1.007825032230

  Running in c1 symmetry.

  Rotational constants: A =      0.00067  B =      0.00067  C =      0.00035 [cm^-1]
  Rotational constants: A =     20.12948  B =     20.12602  C =     10.55117 [MHz]
  Nuclear repulsion = 17713.828043628865998

  Charge       = -1
  Multiplicity = 1
  Electrons    = 642
  Nalpha       = 321
  Nbeta        = 321

  ==> Algorithm <==

  SCF Algorithm Type is DF.
  DIIS enabled.
  MOM disabled.
  Fractional occupation disabled.
  Guess Type is SAD.
  Energy threshold   = 1.00e-08
  Density threshold  = 1.00e-08
  Integral threshold = 1.00e-12

  ==> Primary Basis <==

  Basis Set: JUN-CC-PVDZ
    Blend: JUN-CC-PVDZ
    Number of shells: 880
    Number of basis functions: 1938
    Number of Cartesian functions: 2039
    Spherical Harmonics?: true
    Max angular momentum: 2

   => Loading Basis Set <=

    Name: (JUN-CC-PVDZ AUX)
    Role: JKFIT
    Keyword: DF_BASIS_SCF
    atoms 1                                                   entry B          line    90 file /opt/software/pc2/EB-SW/software/PSI4/1.9-foss-2022a/share/psi4/basis/jun-cc-pvdz-jkfit.gbs 
    atoms 2-5                                                 entry F          line   314 file /opt/software/pc2/EB-SW/software/PSI4/1.9-foss-2022a/share/psi4/basis/jun-cc-pvdz-jkfit.gbs 
    atoms 6-23, 30-42, 45-59, 62-78, 81-93, 98-108, 111-119   entry C          line   146 file /opt/software/pc2/EB-SW/software/PSI4/1.9-foss-2022a/share/psi4/basis/jun-cc-pvdz-jkfit.gbs 
    atoms 24-29, 43-44, 60-61, 79-80, 94-97, 109-110, 120-125 entry H          line    70 file /opt/software/pc2/EB-SW/software/PSI4/1.9-foss-2022a/share/psi4/basis/jun-cc-pvdz-jkfit.gbs 

  ==> Integral Setup <==

  ==> DiskDFJK: Density-Fitted J/K Matrices <==

    J tasked:                  Yes
    K tasked:                  Yes
    wK tasked:                  No
    OpenMP threads:             16
    Integrals threads:          16
    Memory [MiB]:            57220
    Algorithm:                Disk
    Integral Cache:           SAVE
    Schwarz Cutoff:          1E-12
    Fitting Condition:       1E-10

   => Auxiliary Basis Set <=

  Basis Set: (JUN-CC-PVDZ AUX)
    Blend: JUN-CC-PVDZ-JKFIT
    Number of shells: 2943
    Number of basis functions: 8531
    Number of Cartesian functions: 9791
    Spherical Harmonics?: true
    Max angular momentum: 3

  Minimum eigenvalue in the overlap matrix is 7.9984367663E-11.
  Reciprocal condition number of the overlap matrix is 3.3523284335E-12.
    Using canonical orthogonalization.
  Overall, 39 of 1938 possible MOs eliminated.


  ==> Pre-Iterations <==

  SCF Guess: Superposition of Atomic Densities via on-the-fly atomic UHF (no occupation information).

   -------------------------
    Irrep   Nso     Nmo    
   -------------------------
     A       1938    1899 
   -------------------------
    Total    1938    1899
   -------------------------

  ==> Iterations <==

                           Total Energy        Delta E     RMS |[F,P]|

   @DF-RHF iter SAD: -4085.14644745193345   -4.08515e+03   0.00000e+00 
   @DF-RHF iter   1: -4071.50431395274154    1.36421e+01   7.92295e-04 ADIIS/DIIS
   @DF-RHF iter   2: -4072.91253382763898   -1.40822e+00   3.12549e-04 ADIIS/DIIS
   @DF-RHF iter   3: -4073.08324588536016   -1.70712e-01   1.06628e-04 ADIIS/DIIS
   @DF-RHF iter   4: -4073.10677822030993   -2.35323e-02   4.28294e-05 DIIS
   @DF-RHF iter   5: -4073.11118861903378   -4.41040e-03   1.26531e-05 DIIS
   @DF-RHF iter   6: -4073.11174222574891   -5.53607e-04   4.80697e-06 DIIS
   @DF-RHF iter   7: -4073.11193110736713   -1.88882e-04   2.60898e-06 DIIS
   @DF-RHF iter   8: -4073.11199643582495   -6.53285e-05   1.26030e-06 DIIS
   @DF-RHF iter   9: -4073.11201841934371   -2.19835e-05   4.50308e-07 DIIS
   @DF-RHF iter  10: -4073.11201986345259   -1.44411e-06   1.80126e-07 DIIS
   @DF-RHF iter  11: -4073.11202008886539   -2.25413e-07   6.45437e-08 DIIS
   @DF-RHF iter  12: -4073.11202012537615   -3.65108e-08   3.45309e-08 DIIS
   @DF-RHF iter  13: -4073.11202013486081   -9.48467e-09   1.17000e-08 DIIS
   @DF-RHF iter  14: -4073.11202013555703   -6.96218e-10   5.20544e-09 DIIS
  Energy and wave function converged.


  ==> Post-Iterations <==

    Orbital Energies [Eh]
    ---------------------

    Doubly Occupied:                                                      

       1A    -26.094815     2A    -26.094611     3A    -26.084593  
       4A    -26.084557     5A    -11.197508     6A    -11.197502  
       7A    -11.197494     8A    -11.197481     9A    -11.197417  
      10A    -11.197411    11A    -11.197409    12A    -11.197402  
      13A    -11.197372    14A    -11.197368    15A    -11.197358  
      16A    -11.197352    17A    -11.196607    18A    -11.196603  
      19A    -11.196595    20A    -11.196589    21A    -11.196495  
      22A    -11.196477    23A    -11.194284    24A    -11.194277  
      25A    -11.194209    26A    -11.194208    27A    -11.194206  
      28A    -11.194201    29A    -11.193485    30A    -11.193461  
      31A    -11.193347    32A    -11.193325    33A    -11.193222  
      34A    -11.193180    35A    -11.193169    36A    -11.193104  
      37A    -11.193031    38A    -11.192986    39A    -11.192865  
      40A    -11.192844    41A    -11.192829    42A    -11.192822  
      43A    -11.192754    44A    -11.192752    45A    -11.192751  
      46A    -11.192745    47A    -11.192461    48A    -11.192431  
      49A    -11.192283    50A    -11.192245    51A    -11.192122  
      52A    -11.192084    53A    -11.191697    54A    -11.191667  
      55A    -11.191537    56A    -11.191474    57A    -11.191450  
      58A    -11.191389    59A    -11.191266    60A    -11.191227  
      61A    -11.191212    62A    -11.191182    63A    -11.191027  
      64A    -11.191019    65A    -11.189401    66A    -11.189384  
      67A    -11.189379    68A    -11.189348    69A    -11.189323  
      70A    -11.189305    71A    -11.189288    72A    -11.189244  
      73A    -11.189225    74A    -11.189219    75A    -11.189179  
      76A    -11.189172    77A    -11.189116    78A    -11.189097  
      79A    -11.188673    80A    -11.188657    81A    -11.188608  
      82A    -11.188593    83A    -11.188207    84A    -11.188177  
      85A    -11.187642    86A    -11.187622    87A    -11.187548  
      88A    -11.187536    89A    -11.185605    90A    -11.185593  
      91A    -11.185502    92A    -11.185434    93A    -11.184558  
      94A    -11.184469    95A    -11.183182    96A    -11.182773  
      97A    -11.182654    98A    -11.181729    99A    -11.181622  
     100A    -11.181156   101A     -7.561431   102A     -1.434501  
     103A     -1.379945   104A     -1.373945   105A     -1.368598  
     106A     -1.180182   107A     -1.169150   108A     -1.168834  
     109A     -1.152495   110A     -1.152459   111A     -1.142716  
     112A     -1.134696   113A     -1.128385   114A     -1.117262  
     115A     -1.116794   116A     -1.107825   117A     -1.107765  
     118A     -1.085840   119A     -1.085775   120A     -1.081698  
     121A     -1.079167   122A     -1.079148   123A     -1.060580  
     124A     -1.047419   125A     -1.046600   126A     -1.045340  
     127A     -1.042380   128A     -1.042034   129A     -1.020726  
     130A     -1.020598   131A     -1.011572   132A     -1.011512  
     133A     -0.998847   134A     -0.998810   135A     -0.994828  
     136A     -0.979831   137A     -0.979812   138A     -0.973311  
     139A     -0.973291   140A     -0.973154   141A     -0.955934  
     142A     -0.949311   143A     -0.949047   144A     -0.940848  
     145A     -0.938832   146A     -0.936088   147A     -0.931768  
     148A     -0.931639   149A     -0.926300   150A     -0.902625  
     151A     -0.902537   152A     -0.889569   153A     -0.889491  
     154A     -0.841232   155A     -0.841203   156A     -0.835451  
     157A     -0.835435   158A     -0.832647   159A     -0.821640  
     160A     -0.821639   161A     -0.820974   162A     -0.820175  
     163A     -0.819993   164A     -0.806690   165A     -0.806003  
     166A     -0.786152   167A     -0.779063   168A     -0.778969  
     169A     -0.775739   170A     -0.774896   171A     -0.767842  
     172A     -0.767810   173A     -0.763389   174A     -0.763327  
     175A     -0.720238   176A     -0.720218   177A     -0.714765  
     178A     -0.714709   179A     -0.713458   180A     -0.713353  
     181A     -0.712896   182A     -0.700319   183A     -0.691162  
     184A     -0.681632   185A     -0.668907   186A     -0.660291  
     187A     -0.660185   188A     -0.657757   189A     -0.657736  
     190A     -0.657629   191A     -0.648367   192A     -0.645048  
     193A     -0.645012   194A     -0.633666   195A     -0.633557  
     196A     -0.626245   197A     -0.620537   198A     -0.620503  
     199A     -0.616688   200A     -0.615957   201A     -0.615907  
     202A     -0.611782   203A     -0.587665   204A     -0.584652  
     205A     -0.584628   206A     -0.584196   207A     -0.581057  
     208A     -0.581035   209A     -0.574264   210A     -0.573773  
     211A     -0.572686   212A     -0.572529   213A     -0.568319  
     214A     -0.568293   215A     -0.562302   216A     -0.555796  
     217A     -0.551359   218A     -0.550113   219A     -0.550075  
     220A     -0.549693   221A     -0.543258   222A     -0.543254  
     223A     -0.543089   224A     -0.531636   225A     -0.530833  
     226A     -0.530778   227A     -0.530612   228A     -0.529854  
     229A     -0.529809   230A     -0.529060   231A     -0.528728  
     232A     -0.528350   233A     -0.523836   234A     -0.523776  
     235A     -0.522266   236A     -0.517378   237A     -0.514294  
     238A     -0.514291   239A     -0.507945   240A     -0.507928  
     241A     -0.507692   242A     -0.501485   243A     -0.501440  
     244A     -0.498489   245A     -0.497893   246A     -0.497789  
     247A     -0.497231   248A     -0.494214   249A     -0.490858  
     250A     -0.490747   251A     -0.486848   252A     -0.484723  
     253A     -0.484596   254A     -0.477471   255A     -0.470541  
     256A     -0.469773   257A     -0.467800   258A     -0.467788  
     259A     -0.463660   260A     -0.462641   261A     -0.462181  
     262A     -0.462145   263A     -0.458203   264A     -0.450051  
     265A     -0.449996   266A     -0.449428   267A     -0.449370  
     268A     -0.444540   269A     -0.444469   270A     -0.433701  
     271A     -0.432347   272A     -0.431320   273A     -0.430872  
     274A     -0.428944   275A     -0.428939   276A     -0.423819  
     277A     -0.423592   278A     -0.416281   279A     -0.413494  
     280A     -0.412600   281A     -0.412265   282A     -0.411010  
     283A     -0.407813   284A     -0.407267   285A     -0.404432  
     286A     -0.400693   287A     -0.398917   288A     -0.398878  
     289A     -0.391017   290A     -0.375497   291A     -0.375360  
     292A     -0.371628   293A     -0.370593   294A     -0.369503  
     295A     -0.368705   296A     -0.367519   297A     -0.339698  
     298A     -0.339416   299A     -0.321402   300A     -0.321212  
     301A     -0.316928   302A     -0.316900   303A     -0.312012  
     304A     -0.287322   305A     -0.287192   306A     -0.283194  
     307A     -0.268550   308A     -0.268490   309A     -0.264932  
     310A     -0.260408   311A     -0.258731   312A     -0.237849  
     313A     -0.234227   314A     -0.231688   315A     -0.231269  
     316A     -0.219598   317A     -0.193625   318A     -0.183238  
     319A     -0.182312   320A     -0.137161   321A     -0.136934  

    Virtual:                                                              

     322A      0.055101   323A      0.055131   324A      0.094047  
     325A      0.094093   326A      0.094695   327A      0.096434  
     328A      0.096566   329A      0.101631   330A      0.101789  
     331A      0.104291   332A      0.104308   333A      0.104590  
     334A      0.109806   335A      0.109812   336A      0.121126  
     337A      0.121143   338A      0.130107   339A      0.130586  
     340A      0.133265   341A      0.136561   342A      0.136797  
     343A      0.137538   344A      0.138662   345A      0.139048  
     346A      0.139246   347A      0.139956   348A      0.140397  
     349A      0.141157   350A      0.142242   351A      0.142279  
     352A      0.148122   353A      0.148624   354A      0.148724  
     355A      0.149037   356A      0.149057   357A      0.149132  
     358A      0.156464   359A      0.161210   360A      0.161294  
     361A      0.161358   362A      0.163025   363A      0.163112  
     364A      0.163863   365A      0.166885   366A      0.170158  
     367A      0.170542   368A      0.170712   369A      0.170778  
     370A      0.171315   371A      0.172321   372A      0.172540  
     373A      0.174045   374A      0.174224   375A      0.176157  
     376A      0.178863   377A      0.179064   378A      0.179216  
     379A      0.179454   380A      0.186776   381A      0.186790  
     382A      0.189305   383A      0.193922   384A      0.194782  
     385A      0.195115   386A      0.197789   387A      0.197802  
     388A      0.201312   389A      0.202573   390A      0.202745  
     391A      0.203020   392A      0.203188   393A      0.211788  
     394A      0.213964   395A      0.214796   396A      0.215248  
     397A      0.215407   398A      0.216880   399A      0.218572  
     400A      0.219950   401A      0.220491   402A      0.221068  
     403A      0.222567   404A      0.222686   405A      0.223490  
     406A      0.224593   407A      0.224697   408A      0.225562  
     409A      0.225735   410A      0.227772   411A      0.229708  
     412A      0.233204   413A      0.234503   414A      0.238064  
     415A      0.238082   416A      0.241235   417A      0.241902  
     418A      0.242335   419A      0.242415   420A      0.242504  
     421A      0.242663   422A      0.249165   423A      0.250419  
     424A      0.250812   425A      0.252007   426A      0.253073  
     427A      0.256132   428A      0.256596   429A      0.256864  
     430A      0.258925   431A      0.259115   432A      0.259283  
     433A      0.260335   434A      0.261826   435A      0.262670  
     436A      0.267471   437A      0.268201   438A      0.270519  
     439A      0.270740   440A      0.271457   441A      0.271568  
     442A      0.272366   443A      0.272444   444A      0.273197  
     445A      0.273260   446A      0.273532   447A      0.274492  
     448A      0.274870   449A      0.274908   450A      0.276944  
     451A      0.277320   452A      0.278326   453A      0.279172  
     454A      0.283425   455A      0.284175   456A      0.287866  
     457A      0.288741   458A      0.289870   459A      0.290629  
     460A      0.291008   461A      0.291118   462A      0.292178  
     463A      0.292322   464A      0.293603   465A      0.293782  
     466A      0.294991   467A      0.296496   468A      0.297698  
     469A      0.301157   470A      0.303986   471A      0.304885  
     472A      0.305811   473A      0.307660   474A      0.309439  
     475A      0.314099   476A      0.314843   477A      0.314948  
     478A      0.315021   479A      0.317417   480A      0.317674  
     481A      0.319466   482A      0.319776   483A      0.319894  
     484A      0.320610   485A      0.322648   486A      0.323604  
     487A      0.324629   488A      0.326403   489A      0.326680  
     490A      0.328300   491A      0.329267   492A      0.329474  
     493A      0.336673   494A      0.337109   495A      0.337415  
     496A      0.337675   497A      0.338905   498A      0.339134  
     499A      0.340565   500A      0.342032   501A      0.342454  
     502A      0.342765   503A      0.343173   504A      0.345566  
     505A      0.347057   506A      0.347319   507A      0.347989  
     508A      0.348962   509A      0.351003   510A      0.352034  
     511A      0.357360   512A      0.358037   513A      0.358411  
     514A      0.359366   515A      0.361336   516A      0.364087  
     517A      0.364908   518A      0.364923   519A      0.366018  
     520A      0.366738   521A      0.366968   522A      0.368232  
     523A      0.368555   524A      0.369447   525A      0.370749  
     526A      0.371343   527A      0.371853   528A      0.373737  
     529A      0.374214   530A      0.374364   531A      0.375349  
     532A      0.377540   533A      0.377986   534A      0.378468  
     535A      0.379745   536A      0.381300   537A      0.383567  
     538A      0.384137   539A      0.384950   540A      0.385478  
     541A      0.387174   542A      0.388138   543A      0.388256  
     544A      0.388968   545A      0.389610   546A      0.390581  
     547A      0.392130   548A      0.394621   549A      0.394930  
     550A      0.395291   551A      0.395606   552A      0.397299  
     553A      0.397514   554A      0.400691   555A      0.401347  
     556A      0.401594   557A      0.402771   558A      0.405055  
     559A      0.405280   560A      0.406000   561A      0.408324  
     562A      0.409778   563A      0.414629   564A      0.414831  
     565A      0.417516   566A      0.417834   567A      0.420861  
     568A      0.421112   569A      0.421909   570A      0.422423  
     571A      0.422757   572A      0.424883   573A      0.425061  
     574A      0.427569   575A      0.429186   576A      0.429553  
     577A      0.431311   578A      0.432791   579A      0.434645  
     580A      0.434814   581A      0.437349   582A      0.437459  
     583A      0.437591   584A      0.441144   585A      0.441689  
     586A      0.442595   587A      0.443629   588A      0.444052  
     589A      0.445574   590A      0.448647   591A      0.449044  
     592A      0.451854   593A      0.452957   594A      0.453161  
     595A      0.453391   596A      0.454722   597A      0.455561  
     598A      0.456380   599A      0.457136   600A      0.457532  
     601A      0.458338   602A      0.459236   603A      0.460501  
     604A      0.461449   605A      0.462555   606A      0.463516  
     607A      0.463865   608A      0.464246   609A      0.464853  
     610A      0.465632   611A      0.468600   612A      0.469038  
     613A      0.469393   614A      0.470429   615A      0.471099  
     616A      0.471163   617A      0.471255   618A      0.471756  
     619A      0.472062   620A      0.473195   621A      0.474208  
     622A      0.475586   623A      0.475726   624A      0.476027  
     625A      0.476370   626A      0.478737   627A      0.478881  
     628A      0.480319   629A      0.481085   630A      0.482087  
     631A      0.482852   632A      0.482974   633A      0.483669  
     634A      0.485201   635A      0.486004   636A      0.488444  
     637A      0.488682   638A      0.489173   639A      0.489674  
     640A      0.494102   641A      0.494787   642A      0.495229  
     643A      0.495613   644A      0.497588   645A      0.498861  
     646A      0.498942   647A      0.499201   648A      0.499895  
     649A      0.501634   650A      0.502521   651A      0.502914  
     652A      0.503262   653A      0.503788   654A      0.504721  
     655A      0.506334   656A      0.507570   657A      0.508529  
     658A      0.509622   659A      0.510105   660A      0.512861  
     661A      0.514320   662A      0.516154   663A      0.516276  
     664A      0.517095   665A      0.517231   666A      0.517577  
     667A      0.519009   668A      0.519313   669A      0.520288  
     670A      0.520735   671A      0.523213   672A      0.523906  
     673A      0.525297   674A      0.525695   675A      0.526438  
     676A      0.528595   677A      0.529820   678A      0.530125  
     679A      0.534263   680A      0.534815   681A      0.536203  
     682A      0.537504   683A      0.537881   684A      0.539169  
     685A      0.540386   686A      0.541177   687A      0.542069  
     688A      0.542593   689A      0.543146   690A      0.544005  
     691A      0.545833   692A      0.546220   693A      0.547758  
     694A      0.548068   695A      0.548921   696A      0.549005  
     697A      0.549502   698A      0.549634   699A      0.550658  
     700A      0.555373   701A      0.556258   702A      0.557327  
     703A      0.557737   704A      0.559746   705A      0.560710  
     706A      0.561651   707A      0.562513   708A      0.563044  
     709A      0.563939   710A      0.565516   711A      0.565790  
     712A      0.565795   713A      0.566176   714A      0.567034  
     715A      0.568355   716A      0.568878   717A      0.570754  
     718A      0.574278   719A      0.575068   720A      0.575971  
     721A      0.576126   722A      0.580535   723A      0.581483  
     724A      0.582516   725A      0.582639   726A      0.584152  
     727A      0.586173   728A      0.586857   729A      0.589400  
     730A      0.590605   731A      0.590995   732A      0.592870  
     733A      0.596898   734A      0.597589   735A      0.598206  
     736A      0.598804   737A      0.599844   738A      0.601361  
     739A      0.603587   740A      0.604625   741A      0.606424  
     742A      0.607142   743A      0.610909   744A      0.613075  
     745A      0.614962   746A      0.616466   747A      0.618737  
     748A      0.621326   749A      0.621991   750A      0.624127  
     751A      0.625837   752A      0.626361   753A      0.628802  
     754A      0.629501   755A      0.630460   756A      0.630929  
     757A      0.632038   758A      0.632985   759A      0.636351  
     760A      0.637637   761A      0.640216   762A      0.643185  
     763A      0.644041   764A      0.644529   765A      0.646423  
     766A      0.648034   767A      0.650400   768A      0.651115  
     769A      0.651551   770A      0.652415   771A      0.654491  
     772A      0.656881   773A      0.658109   774A      0.659625  
     775A      0.661981   776A      0.665933   777A      0.666718  
     778A      0.668383   779A      0.669998   780A      0.670824  
     781A      0.672035   782A      0.674050   783A      0.674685  
     784A      0.675311   785A      0.677229   786A      0.682453  
     787A      0.684259   788A      0.684697   789A      0.685412  
     790A      0.685868   791A      0.687275   792A      0.689799  
     793A      0.693394   794A      0.694898   795A      0.699615  
     796A      0.703822   797A      0.704336   798A      0.707186  
     799A      0.709157   800A      0.711687   801A      0.712870  
     802A      0.714739   803A      0.715632   804A      0.721109  
     805A      0.721890   806A      0.726088   807A      0.726891  
     808A      0.727971   809A      0.729481   810A      0.731847  
     811A      0.734165   812A      0.735815   813A      0.737472  
     814A      0.742551   815A      0.742718   816A      0.745791  
     817A      0.747645   818A      0.753578   819A      0.756187  
     820A      0.756603   821A      0.758613   822A      0.759591  
     823A      0.760244   824A      0.762180   825A      0.762914  
     826A      0.764604   827A      0.767225   828A      0.770594  
     829A      0.775097   830A      0.775245   831A      0.780093  
     832A      0.781972   833A      0.784117   834A      0.790346  
     835A      0.797503   836A      0.799410   837A      0.799978  
     838A      0.801426   839A      0.804557   840A      0.806876  
     841A      0.808139   842A      0.810036   843A      0.814383  
     844A      0.817335   845A      0.819885   846A      0.820365  
     847A      0.821875   848A      0.822092   849A      0.825288  
     850A      0.840871   851A      0.843639   852A      0.853138  
     853A      0.853563   854A      0.854692   855A      0.855931  
     856A      0.862167   857A      0.863015   858A      0.864045  
     859A      0.865689   860A      0.866673   861A      0.867427  
     862A      0.870110   863A      0.871531   864A      0.873385  
     865A      0.875941   866A      0.879347   867A      0.879966  
     868A      0.880696   869A      0.882742   870A      0.883101  
     871A      0.883536   872A      0.884004   873A      0.887992  
     874A      0.892649   875A      0.893359   876A      0.894246  
     877A      0.896157   878A      0.902298   879A      0.904089  
     880A      0.907457   881A      0.908049   882A      0.909661  
     883A      0.910891   884A      0.911213   885A      0.916266  
     886A      0.919556   887A      0.920306   888A      0.920959  
     889A      0.923388   890A      0.926657   891A      0.927651  
     892A      0.928097   893A      0.929897   894A      0.930899  
     895A      0.931087   896A      0.933020   897A      0.936140  
     898A      0.937782   899A      0.940221   900A      0.941284  
     901A      0.941856   902A      0.943099   903A      0.943781  
     904A      0.947130   905A      0.949092   906A      0.949920  
     907A      0.952423   908A      0.954215   909A      0.958438  
     910A      0.959062   911A      0.961745   912A      0.962596  
     913A      0.963714   914A      0.964312   915A      0.965359  
     916A      0.968558   917A      0.969401   918A      0.971338  
     919A      0.976215   920A      0.977441   921A      0.978908  
     922A      0.980159   923A      0.980569   924A      0.980930  
     925A      0.982948   926A      0.984584   927A      0.986526  
     928A      0.986751   929A      0.988325   930A      0.991892  
     931A      0.992974   932A      0.993623   933A      0.994796  
     934A      0.996440   935A      0.997522   936A      0.999011  
     937A      1.001962   938A      1.002278   939A      1.004399  
     940A      1.006263   941A      1.008221   942A      1.008615  
     943A      1.011086   944A      1.012421   945A      1.014783  
     946A      1.015386   947A      1.015709   948A      1.016274  
     949A      1.019004   950A      1.020376   951A      1.020558  
     952A      1.020771   953A      1.021972   954A      1.022813  
     955A      1.027187   956A      1.027675   957A      1.029525  
     958A      1.034194   959A      1.038678   960A      1.039149  
     961A      1.044260   962A      1.046506   963A      1.048617  
     964A      1.053009   965A      1.054834   966A      1.055801  
     967A      1.059314   968A      1.060091   969A      1.061767  
     970A      1.062784   971A      1.064413   972A      1.069227  
     973A      1.069956   974A      1.070036   975A      1.070779  
     976A      1.071202   977A      1.074158   978A      1.078777  
     979A      1.079262   980A      1.079366   981A      1.080904  
     982A      1.083923   983A      1.085800   984A      1.086487  
     985A      1.088807   986A      1.091283   987A      1.092182  
     988A      1.092907   989A      1.093366   990A      1.100912  
     991A      1.101988   992A      1.103472   993A      1.109224  
     994A      1.110969   995A      1.112454   996A      1.113110  
     997A      1.113439   998A      1.114653   999A      1.115194  
    1000A      1.116605  1001A      1.117826  1002A      1.119648  
    1003A      1.119887  1004A      1.120741  1005A      1.121241  
    1006A      1.124456  1007A      1.125800  1008A      1.126981  
    1009A      1.127715  1010A      1.128885  1011A      1.129647  
    1012A      1.131005  1013A      1.131752  1014A      1.132719  
    1015A      1.135059  1016A      1.136521  1017A      1.136815  
    1018A      1.137772  1019A      1.138934  1020A      1.139180  
    1021A      1.139752  1022A      1.142019  1023A      1.142364  
    1024A      1.142851  1025A      1.143408  1026A      1.145461  
    1027A      1.146247  1028A      1.146805  1029A      1.147075  
    1030A      1.147616  1031A      1.147855  1032A      1.148177  
    1033A      1.148511  1034A      1.149013  1035A      1.150689  
    1036A      1.151295  1037A      1.152090  1038A      1.152612  
    1039A      1.153512  1040A      1.154805  1041A      1.156716  
    1042A      1.158141  1043A      1.160192  1044A      1.161553  
    1045A      1.163345  1046A      1.165266  1047A      1.167424  
    1048A      1.169041  1049A      1.170101  1050A      1.171206  
    1051A      1.172528  1052A      1.173714  1053A      1.174989  
    1054A      1.176771  1055A      1.179563  1056A      1.180160  
    1057A      1.182825  1058A      1.184261  1059A      1.185515  
    1060A      1.185979  1061A      1.189438  1062A      1.191284  
    1063A      1.192186  1064A      1.192456  1065A      1.195603  
    1066A      1.198297  1067A      1.199226  1068A      1.199999  
    1069A      1.202598  1070A      1.204155  1071A      1.205055  
    1072A      1.206560  1073A      1.207497  1074A      1.211761  
    1075A      1.214794  1076A      1.216459  1077A      1.218083  
    1078A      1.218827  1079A      1.219037  1080A      1.220171  
    1081A      1.222355  1082A      1.223493  1083A      1.224430  
    1084A      1.225128  1085A      1.226129  1086A      1.228222  
    1087A      1.233896  1088A      1.234172  1089A      1.235914  
    1090A      1.237845  1091A      1.238993  1092A      1.240467  
    1093A      1.241271  1094A      1.244296  1095A      1.247434  
    1096A      1.250325  1097A      1.251300  1098A      1.254423  
    1099A      1.255438  1100A      1.255816  1101A      1.260012  
    1102A      1.261369  1103A      1.263103  1104A      1.264721  
    1105A      1.265930  1106A      1.268834  1107A      1.273144  
    1108A      1.274170  1109A      1.274542  1110A      1.275931  
    1111A      1.278738  1112A      1.279003  1113A      1.280476  
    1114A      1.282170  1115A      1.283739  1116A      1.284616  
    1117A      1.286332  1118A      1.287730  1119A      1.290548  
    1120A      1.292068  1121A      1.292732  1122A      1.299628  
    1123A      1.301669  1124A      1.303907  1125A      1.313483  
    1126A      1.318238  1127A      1.318308  1128A      1.319745  
    1129A      1.321734  1130A      1.322465  1131A      1.324746  
    1132A      1.328174  1133A      1.328275  1134A      1.332208  
    1135A      1.334270  1136A      1.335053  1137A      1.338251  
    1138A      1.338615  1139A      1.346639  1140A      1.346807  
    1141A      1.352492  1142A      1.356069  1143A      1.358205  
    1144A      1.359035  1145A      1.359608  1146A      1.360432  
    1147A      1.362852  1148A      1.366595  1149A      1.369042  
    1150A      1.369891  1151A      1.370890  1152A      1.372952  
    1153A      1.378235  1154A      1.380089  1155A      1.380548  
    1156A      1.381247  1157A      1.381652  1158A      1.384274  
    1159A      1.385814  1160A      1.387051  1161A      1.388377  
    1162A      1.388748  1163A      1.391681  1164A      1.394454  
    1165A      1.394591  1166A      1.397054  1167A      1.398599  
    1168A      1.400051  1169A      1.401815  1170A      1.405802  
    1171A      1.407890  1172A      1.408306  1173A      1.412857  
    1174A      1.414794  1175A      1.423504  1176A      1.424376  
    1177A      1.425972  1178A      1.426138  1179A      1.427936  
    1180A      1.428200  1181A      1.428638  1182A      1.429206  
    1183A      1.430557  1184A      1.431280  1185A      1.439691  
    1186A      1.441756  1187A      1.442030  1188A      1.446158  
    1189A      1.450565  1190A      1.453188  1191A      1.453636  
    1192A      1.456357  1193A      1.457232  1194A      1.458693  
    1195A      1.462789  1196A      1.469512  1197A      1.472115  
    1198A      1.473048  1199A      1.475214  1200A      1.475374  
    1201A      1.475509  1202A      1.475934  1203A      1.477103  
    1204A      1.478020  1205A      1.479579  1206A      1.483636  
    1207A      1.488353  1208A      1.488542  1209A      1.490494  
    1210A      1.493562  1211A      1.496142  1212A      1.498652  
    1213A      1.499062  1214A      1.500758  1215A      1.501457  
    1216A      1.503782  1217A      1.504329  1218A      1.506996  
    1219A      1.507974  1220A      1.509540  1221A      1.512265  
    1222A      1.515089  1223A      1.518790  1224A      1.524817  
    1225A      1.525212  1226A      1.526265  1227A      1.526517  
    1228A      1.529267  1229A      1.531180  1230A      1.534783  
    1231A      1.538400  1232A      1.539623  1233A      1.541657  
    1234A      1.542276  1235A      1.543546  1236A      1.546835  
    1237A      1.550836  1238A      1.552471  1239A      1.553674  
    1240A      1.557032  1241A      1.560146  1242A      1.560726  
    1243A      1.565894  1244A      1.569673  1245A      1.569954  
    1246A      1.574678  1247A      1.580497  1248A      1.587192  
    1249A      1.587787  1250A      1.602497  1251A      1.603787  
    1252A      1.604316  1253A      1.607553  1254A      1.615890  
    1255A      1.621508  1256A      1.623738  1257A      1.637308  
    1258A      1.645135  1259A      1.650972  1260A      1.655110  
    1261A      1.664793  1262A      1.670621  1263A      1.674103  
    1264A      1.675878  1265A      1.676631  1266A      1.679035  
    1267A      1.680720  1268A      1.681518  1269A      1.681794  
    1270A      1.683184  1271A      1.684918  1272A      1.685374  
    1273A      1.686565  1274A      1.687222  1275A      1.689485  
    1276A      1.690401  1277A      1.690823  1278A      1.691582  
    1279A      1.694739  1280A      1.694920  1281A      1.696913  
    1282A      1.699919  1283A      1.700620  1284A      1.702589  
    1285A      1.703127  1286A      1.705228  1287A      1.707223  
    1288A      1.707638  1289A      1.708241  1290A      1.709419  
    1291A      1.711422  1292A      1.712067  1293A      1.712373  
    1294A      1.713794  1295A      1.714161  1296A      1.715934  
    1297A      1.716160  1298A      1.717739  1299A      1.720448  
    1300A      1.723011  1301A      1.724024  1302A      1.724714  
    1303A      1.726114  1304A      1.727235  1305A      1.734816  
    1306A      1.735631  1307A      1.738028  1308A      1.738199  
    1309A      1.738615  1310A      1.739328  1311A      1.739926  
    1312A      1.742424  1313A      1.742926  1314A      1.747873  
    1315A      1.748857  1316A      1.750429  1317A      1.754818  
    1318A      1.760638  1319A      1.760782  1320A      1.761877  
    1321A      1.766348  1322A      1.768819  1323A      1.769690  
    1324A      1.770726  1325A      1.774890  1326A      1.775900  
    1327A      1.778867  1328A      1.779764  1329A      1.781706  
    1330A      1.782622  1331A      1.783605  1332A      1.788380  
    1333A      1.791064  1334A      1.791381  1335A      1.793420  
    1336A      1.794262  1337A      1.795794  1338A      1.801638  
    1339A      1.805799  1340A      1.815042  1341A      1.815703  
    1342A      1.817158  1343A      1.817454  1344A      1.832307  
    1345A      1.833075  1346A      1.834124  1347A      1.842126  
    1348A      1.847135  1349A      1.850768  1350A      1.850927  
    1351A      1.852964  1352A      1.874674  1353A      1.874891  
    1354A      1.883606  1355A      1.886280  1356A      1.890489  
    1357A      1.891614  1358A      1.892871  1359A      1.893226  
    1360A      1.894925  1361A      1.897003  1362A      1.899704  
    1363A      1.899862  1364A      1.901605  1365A      1.906179  
    1366A      1.911890  1367A      1.915735  1368A      1.916175  
    1369A      1.917563  1370A      1.918721  1371A      1.919967  
    1372A      1.926741  1373A      1.927429  1374A      1.927563  
    1375A      1.932022  1376A      1.932053  1377A      1.934480  
    1378A      1.935045  1379A      1.937468  1380A      1.938153  
    1381A      1.938581  1382A      1.939900  1383A      1.940308  
    1384A      1.945147  1385A      1.945413  1386A      1.949175  
    1387A      1.951368  1388A      1.951888  1389A      1.952898  
    1390A      1.955225  1391A      1.957633  1392A      1.958356  
    1393A      1.960260  1394A      1.968625  1395A      1.969081  
    1396A      1.973253  1397A      1.973729  1398A      1.975478  
    1399A      1.981494  1400A      1.986350  1401A      1.987769  
    1402A      1.990046  1403A      1.991775  1404A      1.992029  
    1405A      1.995019  1406A      1.996877  1407A      1.997489  
    1408A      1.999621  1409A      1.999808  1410A      1.999981  
    1411A      2.004807  1412A      2.005254  1413A      2.008268  
    1414A      2.009583  1415A      2.011060  1416A      2.012667  
    1417A      2.014534  1418A      2.014968  1419A      2.016722  
    1420A      2.017206  1421A      2.024697  1422A      2.026131  
    1423A      2.026242  1424A      2.028145  1425A      2.029743  
    1426A      2.031382  1427A      2.033597  1428A      2.036286  
    1429A      2.036908  1430A      2.037615  1431A      2.040760  
    1432A      2.043093  1433A      2.044105  1434A      2.045812  
    1435A      2.051272  1436A      2.053219  1437A      2.056244  
    1438A      2.056358  1439A      2.057175  1440A      2.059242  
    1441A      2.062604  1442A      2.063438  1443A      2.066994  
    1444A      2.068825  1445A      2.075464  1446A      2.076563  
    1447A      2.078905  1448A      2.079712  1449A      2.082069  
    1450A      2.082676  1451A      2.083168  1452A      2.086002  
    1453A      2.087532  1454A      2.088410  1455A      2.088933  
    1456A      2.090066  1457A      2.093797  1458A      2.094585  
    1459A      2.099152  1460A      2.099898  1461A      2.101196  
    1462A      2.102451  1463A      2.103580  1464A      2.104266  
    1465A      2.105395  1466A      2.107320  1467A      2.110643  
    1468A      2.118458  1469A      2.120396  1470A      2.120459  
    1471A      2.122148  1472A      2.125104  1473A      2.126156  
    1474A      2.127660  1475A      2.130593  1476A      2.131562  
    1477A      2.133455  1478A      2.135675  1479A      2.138381  
    1480A      2.141077  1481A      2.143688  1482A      2.144315  
    1483A      2.146066  1484A      2.146769  1485A      2.148633  
    1486A      2.149502  1487A      2.150771  1488A      2.151623  
    1489A      2.152049  1490A      2.153340  1491A      2.153562  
    1492A      2.154822  1493A      2.155167  1494A      2.156167  
    1495A      2.157529  1496A      2.157912  1497A      2.158767  
    1498A      2.158873  1499A      2.160904  1500A      2.164675  
    1501A      2.165635  1502A      2.166365  1503A      2.167501  
    1504A      2.168700  1505A      2.171663  1506A      2.172792  
    1507A      2.176423  1508A      2.176649  1509A      2.179094  
    1510A      2.179895  1511A      2.182060  1512A      2.182569  
    1513A      2.183570  1514A      2.184290  1515A      2.185764  
    1516A      2.188643  1517A      2.190290  1518A      2.190972  
    1519A      2.192472  1520A      2.192763  1521A      2.193521  
    1522A      2.196580  1523A      2.197489  1524A      2.198640  
    1525A      2.200444  1526A      2.200760  1527A      2.204139  
    1528A      2.206340  1529A      2.208450  1530A      2.209317  
    1531A      2.209962  1532A      2.212046  1533A      2.213363  
    1534A      2.214473  1535A      2.215510  1536A      2.216767  
    1537A      2.220040  1538A      2.224004  1539A      2.226538  
    1540A      2.227268  1541A      2.227709  1542A      2.228385  
    1543A      2.231276  1544A      2.233157  1545A      2.235506  
    1546A      2.238879  1547A      2.240133  1548A      2.243293  
    1549A      2.247509  1550A      2.249358  1551A      2.249852  
    1552A      2.253563  1553A      2.255598  1554A      2.258093  
    1555A      2.260560  1556A      2.261316  1557A      2.263784  
    1558A      2.265807  1559A      2.266777  1560A      2.267633  
    1561A      2.268715  1562A      2.269919  1563A      2.271306  
    1564A      2.272229  1565A      2.273523  1566A      2.276533  
    1567A      2.277447  1568A      2.278230  1569A      2.280951  
    1570A      2.283411  1571A      2.287530  1572A      2.287778  
    1573A      2.289216  1574A      2.290099  1575A      2.292492  
    1576A      2.293694  1577A      2.294206  1578A      2.296242  
    1579A      2.298306  1580A      2.299496  1581A      2.300387  
    1582A      2.301158  1583A      2.306732  1584A      2.307980  
    1585A      2.310151  1586A      2.311497  1587A      2.312160  
    1588A      2.313602  1589A      2.324313  1590A      2.326758  
    1591A      2.332210  1592A      2.332964  1593A      2.335156  
    1594A      2.338837  1595A      2.342387  1596A      2.346236  
    1597A      2.347779  1598A      2.349363  1599A      2.351174  
    1600A      2.356830  1601A      2.357200  1602A      2.362230  
    1603A      2.366345  1604A      2.367121  1605A      2.369350  
    1606A      2.370362  1607A      2.384406  1608A      2.387949  
    1609A      2.391950  1610A      2.394383  1611A      2.395706  
    1612A      2.396044  1613A      2.397116  1614A      2.397423  
    1615A      2.402049  1616A      2.402963  1617A      2.403613  
    1618A      2.405322  1619A      2.407765  1620A      2.409827  
    1621A      2.410211  1622A      2.411742  1623A      2.412043  
    1624A      2.412934  1625A      2.417393  1626A      2.421864  
    1627A      2.423450  1628A      2.435626  1629A      2.440640  
    1630A      2.445239  1631A      2.447410  1632A      2.450996  
    1633A      2.455199  1634A      2.460831  1635A      2.464861  
    1636A      2.470627  1637A      2.474902  1638A      2.485133  
    1639A      2.488696  1640A      2.493169  1641A      2.494585  
    1642A      2.502165  1643A      2.509178  1644A      2.510913  
    1645A      2.514317  1646A      2.522434  1647A      2.524924  
    1648A      2.531654  1649A      2.532588  1650A      2.534741  
    1651A      2.536497  1652A      2.537824  1653A      2.538408  
    1654A      2.556422  1655A      2.558239  1656A      2.567167  
    1657A      2.568722  1658A      2.571481  1659A      2.573032  
    1660A      2.575683  1661A      2.583815  1662A      2.606944  
    1663A      2.608316  1664A      2.608562  1665A      2.609549  
    1666A      2.611643  1667A      2.612085  1668A      2.615845  
    1669A      2.616319  1670A      2.618558  1671A      2.620581  
    1672A      2.627637  1673A      2.628185  1674A      2.631314  
    1675A      2.635063  1676A      2.637752  1677A      2.644609  
    1678A      2.647523  1679A      2.648413  1680A      2.651356  
    1681A      2.651756  1682A      2.652178  1683A      2.652945  
    1684A      2.655558  1685A      2.659267  1686A      2.668083  
    1687A      2.668398  1688A      2.679828  1689A      2.680479  
    1690A      2.680982  1691A      2.681261  1692A      2.684893  
    1693A      2.685856  1694A      2.700667  1695A      2.708223  
    1696A      2.708468  1697A      2.712757  1698A      2.713294  
    1699A      2.715230  1700A      2.717498  1701A      2.718678  
    1702A      2.719777  1703A      2.721222  1704A      2.722414  
    1705A      2.732308  1706A      2.735074  1707A      2.735496  
    1708A      2.736552  1709A      2.738010  1710A      2.742962  
    1711A      2.744460  1712A      2.745032  1713A      2.754546  
    1714A      2.755763  1715A      2.756618  1716A      2.758723  
    1717A      2.759006  1718A      2.761562  1719A      2.762363  
    1720A      2.763521  1721A      2.767597  1722A      2.778608  
    1723A      2.790061  1724A      2.795026  1725A      2.795407  
    1726A      2.796156  1727A      2.798353  1728A      2.800061  
    1729A      2.822416  1730A      2.833193  1731A      2.843520  
    1732A      2.848991  1733A      2.849605  1734A      2.851679  
    1735A      2.855120  1736A      2.869367  1737A      2.869481  
    1738A      2.871389  1739A      2.871761  1740A      2.875047  
    1741A      2.883890  1742A      2.885329  1743A      2.886380  
    1744A      2.886539  1745A      2.888866  1746A      2.892223  
    1747A      2.900889  1748A      2.904491  1749A      2.909016  
    1750A      2.911214  1751A      2.911384  1752A      2.914112  
    1753A      2.922978  1754A      2.934417  1755A      2.935062  
    1756A      2.937802  1757A      2.938235  1758A      2.941841  
    1759A      2.943112  1760A      2.969525  1761A      2.970340  
    1762A      2.981790  1763A      2.982266  1764A      2.990115  
    1765A      2.993679  1766A      2.994470  1767A      3.000948  
    1768A      3.001855  1769A      3.028605  1770A      3.030775  
    1771A      3.031585  1772A      3.040095  1773A      3.047882  
    1774A      3.058406  1775A      3.060313  1776A      3.097155  
    1777A      3.098368  1778A      3.103452  1779A      3.104813  
    1780A      3.116067  1781A      3.117420  1782A      3.118044  
    1783A      3.125532  1784A      3.126108  1785A      3.126692  
    1786A      3.140376  1787A      3.171614  1788A      3.175416  
    1789A      3.177802  1790A      3.189494  1791A      3.190087  
    1792A      3.195601  1793A      3.196323  1794A      3.204171  
    1795A      3.207094  1796A      3.207636  1797A      3.213771  
    1798A      3.215310  1799A      3.215693  1800A      3.218465  
    1801A      3.221106  1802A      3.225419  1803A      3.228600  
    1804A      3.236697  1805A      3.237866  1806A      3.240906  
    1807A      3.253079  1808A      3.258313  1809A      3.262612  
    1810A      3.271478  1811A      3.285578  1812A      3.325017  
    1813A      3.326927  1814A      3.329651  1815A      3.330299  
    1816A      3.331236  1817A      3.332637  1818A      3.338647  
    1819A      3.340582  1820A      3.341448  1821A      3.344267  
    1822A      3.365525  1823A      3.369921  1824A      3.374502  
    1825A      3.382578  1826A      3.397494  1827A      3.432511  
    1828A      3.433195  1829A      3.467249  1830A      3.488288  
    1831A      3.510633  1832A      3.515084  1833A      3.528837  
    1834A      3.533233  1835A      3.535349  1836A      3.539232  
    1837A      3.544593  1838A      3.547087  1839A      3.549685  
    1840A      3.557654  1841A      3.567020  1842A      3.570553  
    1843A      3.580481  1844A      3.609854  1845A      3.631502  
    1846A      3.645791  1847A      3.651573  1848A      3.657375  
    1849A      3.659737  1850A      3.715731  1851A      3.728102  
    1852A      3.734888  1853A      3.743153  1854A      3.777258  
    1855A      3.820892  1856A      3.825165  1857A      3.833456  
    1858A      3.838891  1859A      3.844476  1860A      3.856810  
    1861A      3.910490  1862A      3.916079  1863A      3.939131  
    1864A      3.945092  1865A      3.984771  1866A      3.988821  
    1867A      4.016434  1868A      4.016531  1869A      4.020822  
    1870A      4.029395  1871A      4.035783  1872A      4.048276  
    1873A      4.060062  1874A      4.096164  1875A      4.099387  
    1876A      4.154960  1877A      4.158961  1878A      4.160585  
    1879A      4.174657  1880A      4.187296  1881A      4.190180  
    1882A      4.191859  1883A      4.199302  1884A      4.200953  
    1885A      4.238967  1886A      4.245966  1887A      4.272827  
    1888A      4.362219  1889A      4.415268  1890A      4.434371  
    1891A      4.435131  1892A      4.438187  1893A      4.510670  
    1894A      4.637495  1895A      4.647131  1896A      4.658565  
    1897A      4.735448  1898A      4.769320  1899A      4.770869  

    Final Occupation by Irrep:
              A 
    DOCC [   321 ]
    NA   [   321 ]
    NB   [   321 ]

  @DF-RHF Final Energy: -4073.11202013555703

   => Energetics <=

    Nuclear Repulsion Energy =          17713.8280436288659985
    One-Electron Energy =              -40916.7744636785137118
    Two-Electron Energy =               19129.8343999140925007
    Total Energy =                      -4073.1120201355552126

Computation Completed


Properties will be evaluated at   0.000000,   0.000000,   0.000000 [a0]

Properties computed using the SCF density matrix


 Multipole Moments:

 ------------------------------------------------------------------------------------
     Multipole            Electronic (a.u.)      Nuclear  (a.u.)        Total (a.u.)
 ------------------------------------------------------------------------------------

 L = 1.  Multiply by 2.5417464519 to convert [e a0] to [Debye]
 Dipole X            :          0.0014561           -0.0001188            0.0013373
 Dipole Y            :          0.0014827           -0.0002727            0.0012100
 Dipole Z            :         17.0639172          -22.0196118           -4.9556946
 Magnitude           :                                                    4.9556949

 ------------------------------------------------------------------------------------

*** tstop() called on n2cn0352 at Wed Feb  7 20:45:14 2024
Module time:
	user time   =   22892.27 seconds =     381.54 minutes
	system time =    1265.03 seconds =      21.08 minutes
	total time  =       3077 seconds =      51.28 minutes
Total time:
	user time   =   22892.27 seconds =     381.54 minutes
	system time =    1265.03 seconds =      21.08 minutes
	total time  =       3077 seconds =      51.28 minutes

  //>>>>>>>>>>>>>>>>>>>>>>>>>>>>>>>>>>>//
  //            Monomer A HF           //
  //<<<<<<<<<<<<<<<<<<<<<<<<<<<<<<<<<<<//

   => Libint2 <=

    Primary   basis highest AM E, G, H:  5, 4, 3
    Auxiliary basis highest AM E, G, H:  6, 5, 4
    Onebody   basis highest AM E, G, H:  6, 5, 4
    Solid Harmonics ordering:            gaussian

*** tstart() called on n2cn0352
*** at Wed Feb  7 20:45:14 2024

   => Loading Basis Set <=

    Name: JUN-CC-PVDZ
    Role: ORBITAL
    Keyword: BASIS
    atoms 1                                                   entry B          line   130 file /opt/software/pc2/EB-SW/software/PSI4/1.9-foss-2022a/share/psi4/basis/jun-cc-pvdz.gbs 
    atoms 2-5                                                 entry F          line   266 file /opt/software/pc2/EB-SW/software/PSI4/1.9-foss-2022a/share/psi4/basis/jun-cc-pvdz.gbs 
    atoms 6-23, 30-42, 45-59, 62-78, 81-93, 98-108, 111-119   entry C          line   164 file /opt/software/pc2/EB-SW/software/PSI4/1.9-foss-2022a/share/psi4/basis/jun-cc-pvdz.gbs 
    atoms 24-29, 43-44, 60-61, 79-80, 94-97, 109-110, 120-125 entry H          line    36 file /opt/software/pc2/EB-SW/software/PSI4/1.9-foss-2022a/share/psi4/basis/jun-cc-pvdz.gbs 


         ---------------------------------------------------------
                                   SCF
               by Justin Turney, Rob Parrish, Andy Simmonett
                          and Daniel G. A. Smith
                              RHF Reference
                       16 Threads,  76293 MiB Core
         ---------------------------------------------------------

  ==> Geometry <==

    Molecular point group: c1
    Full point group: C1

    Geometry (in Angstrom), charge = -1, multiplicity = 1:

       Center              X                  Y                   Z               Mass       
    ------------   -----------------  -----------------  -----------------  -----------------
         B           -0.000050191042     0.000351518223     3.445151473208    11.009305360000
         F           -1.153601191042     0.000062518223     4.260798473208    18.998403162730
         F            1.153656808958    -0.000566481777     4.260798473208    18.998403162730
         F           -0.000023191042    -1.153622481777     2.629517473208    18.998403162730
         F           -0.000023191042     1.153992518223     2.629517473208    18.998403162730
      Gh(C)          -3.668445455062     7.803766688305    -0.252942485456    12.000000000000
      Gh(C)          -4.847602910388     7.131256349563    -0.255309060389    12.000000000000
      Gh(C)          -4.894963490217     5.696344921754    -0.255881971487    12.000000000000
      Gh(C)          -3.653744869815     4.980744859182    -0.248221529758    12.000000000000
      Gh(C)          -2.409429312536     7.113995554897    -0.252748143196    12.000000000000
      Gh(C)          -2.425481535146     5.681136469126    -0.259753032066    12.000000000000
      Gh(C)          -1.194748207477     7.786158712532    -0.251275962654    12.000000000000
      Gh(C)           0.037954837895     7.099436163980    -0.253446666959    12.000000000000
      Gh(C)           0.030328396378     5.669504077927    -0.258930051875    12.000000000000
      Gh(C)          -1.200988698947     4.969284866138    -0.249960317942    12.000000000000
      Gh(C)           1.277953634773     7.772873961417    -0.252070818399    12.000000000000
      Gh(C)           2.485353893683     7.087711403460    -0.254345306303    12.000000000000
      Gh(C)           2.486124493876     5.654785328463    -0.261283055291    12.000000000000
      Gh(C)           1.254078728602     4.956092631887    -0.249655113703    12.000000000000
      Gh(C)           3.751710400364     7.763926669203    -0.254218454923    12.000000000000
      Gh(C)           4.923561865144     7.078795295213    -0.256274935631    12.000000000000
      Gh(C)           4.955603080284     5.643461981592    -0.256435348438    12.000000000000
      Gh(C)           3.706797343163     4.941224726556    -0.251343788268    12.000000000000
      Gh(H)          -3.658525328800     8.890841937358    -0.251257497206     1.007825032230
      Gh(H)          -1.189217520798     8.874135605583    -0.247304086213     1.007825032230
      Gh(H)           1.284290047845     8.860847953711    -0.247911994258     1.007825032230
      Gh(H)           3.753537895758     8.851049797195    -0.252695930607     1.007825032230
      Gh(H)           5.869954512165     7.613809352878    -0.257200302673     1.007825032230
      Gh(H)          -5.788235898544     7.676316731157    -0.256868907745     1.007825032230
      Gh(C)          -6.091978149738     4.993274531866    -0.257754211978    12.000000000000
[...]
    1507A      2.129942  1508A      2.130814  1509A      2.130820  
    1510A      2.132787  1511A      2.134459  1512A      2.138637  
    1513A      2.140169  1514A      2.143223  1515A      2.143521  
    1516A      2.144062  1517A      2.144889  1518A      2.145994  
    1519A      2.147123  1520A      2.151109  1521A      2.158458  
    1522A      2.159332  1523A      2.159976  1524A      2.160666  
    1525A      2.161433  1526A      2.162306  1527A      2.163754  
    1528A      2.164318  1529A      2.166003  1530A      2.168585  
    1531A      2.172233  1532A      2.174872  1533A      2.180737  
    1534A      2.183322  1535A      2.183634  1536A      2.191128  
    1537A      2.191745  1538A      2.192151  1539A      2.192959  
    1540A      2.195823  1541A      2.196084  1542A      2.196849  
    1543A      2.199629  1544A      2.200890  1545A      2.202136  
    1546A      2.202364  1547A      2.204068  1548A      2.204513  
    1549A      2.207507  1550A      2.211072  1551A      2.211591  
    1552A      2.214704  1553A      2.218776  1554A      2.219675  
    1555A      2.220340  1556A      2.222889  1557A      2.223809  
    1558A      2.225865  1559A      2.228542  1560A      2.228932  
    1561A      2.231564  1562A      2.232128  1563A      2.233112  
    1564A      2.235670  1565A      2.239911  1566A      2.240407  
    1567A      2.241760  1568A      2.243730  1569A      2.247653  
    1570A      2.248447  1571A      2.254469  1572A      2.257149  
    1573A      2.264059  1574A      2.267793  1575A      2.268816  
    1576A      2.271399  1577A      2.273741  1578A      2.274592  
    1579A      2.279010  1580A      2.281791  1581A      2.284207  
    1582A      2.291296  1583A      2.294953  1584A      2.296349  
    1585A      2.297080  1586A      2.303715  1587A      2.304562  
    1588A      2.305788  1589A      2.316385  1590A      2.325176  
    1591A      2.325813  1592A      2.327330  1593A      2.328601  
    1594A      2.330525  1595A      2.330822  1596A      2.333681  
    1597A      2.334560  1598A      2.335224  1599A      2.336361  
    1600A      2.337883  1601A      2.341607  1602A      2.342469  
    1603A      2.342944  1604A      2.344468  1605A      2.346142  
    1606A      2.346357  1607A      2.349197  1608A      2.349398  
    1609A      2.350145  1610A      2.371823  1611A      2.373796  
    1612A      2.380001  1613A      2.384273  1614A      2.388786  
    1615A      2.392421  1616A      2.398502  1617A      2.400751  
    1618A      2.414256  1619A      2.418997  1620A      2.420254  
    1621A      2.424936  1622A      2.428199  1623A      2.433188  
    1624A      2.443731  1625A      2.444124  1626A      2.453227  
    1627A      2.454757  1628A      2.464946  1629A      2.465545  
    1630A      2.468384  1631A      2.468654  1632A      2.471990  
    1633A      2.472323  1634A      2.491395  1635A      2.491675  
    1636A      2.497415  1637A      2.502333  1638A      2.506803  
    1639A      2.508334  1640A      2.512047  1641A      2.516769  
    1642A      2.539963  1643A      2.540327  1644A      2.540779  
    1645A      2.542817  1646A      2.545073  1647A      2.547099  
    1648A      2.547972  1649A      2.549960  1650A      2.550208  
    1651A      2.553786  1652A      2.556723  1653A      2.556909  
    1654A      2.564345  1655A      2.571643  1656A      2.571793  
    1657A      2.581215  1658A      2.585195  1659A      2.585513  
    1660A      2.586189  1661A      2.587564  1662A      2.589221  
    1663A      2.589382  1664A      2.593284  1665A      2.593968  
    1666A      2.602472  1667A      2.602888  1668A      2.614172  
    1669A      2.614457  1670A      2.614644  1671A      2.615377  
    1672A      2.618332  1673A      2.619390  1674A      2.633343  
    1675A      2.640902  1676A      2.642229  1677A      2.645724  
    1678A      2.646106  1679A      2.649114  1680A      2.650280  
    1681A      2.650614  1682A      2.654034  1683A      2.656429  
    1684A      2.657129  1685A      2.666216  1686A      2.667656  
    1687A      2.668483  1688A      2.671266  1689A      2.671471  
    1690A      2.674052  1691A      2.679233  1692A      2.680753  
    1693A      2.686317  1694A      2.686699  1695A      2.689649  
    1696A      2.691626  1697A      2.691638  1698A      2.692653  
    1699A      2.695393  1700A      2.696595  1701A      2.700629  
    1702A      2.707521  1703A      2.724413  1704A      2.730772  
    1705A      2.731040  1706A      2.731668  1707A      2.732007  
    1708A      2.732860  1709A      2.756512  1710A      2.761073  
    1711A      2.767433  1712A      2.776648  1713A      2.777621  
    1714A      2.781152  1715A      2.782905  1716A      2.799642  
    1717A      2.800155  1718A      2.802320  1719A      2.802400  
    1720A      2.803051  1721A      2.812467  1722A      2.815015  
    1723A      2.815206  1724A      2.816453  1725A      2.817992  
    1726A      2.819638  1727A      2.828800  1728A      2.830585  
    1729A      2.840804  1730A      2.842187  1731A      2.842660  
    1732A      2.845206  1733A      2.845599  1734A      2.846278  
    1735A      2.863925  1736A      2.865431  1737A      2.868222  
    1738A      2.871324  1739A      2.871681  1740A      2.875740  
    1741A      2.893163  1742A      2.896170  1743A      2.897028  
    1744A      2.915596  1745A      2.918183  1746A      2.921847  
    1747A      2.928028  1748A      2.931032  1749A      2.935344  
    1750A      2.935519  1751A      2.937054  1752A      2.964170  
    1753A      2.966227  1754A      2.969831  1755A      2.976442  
    1756A      2.992845  1757A      2.996089  1758A      3.030157  
    1759A      3.031033  1760A      3.039360  1761A      3.040392  
    1762A      3.047368  1763A      3.049436  1764A      3.050730  
    1765A      3.057900  1766A      3.058263  1767A      3.067209  
    1768A      3.073326  1769A      3.110524  1770A      3.113454  
    1771A      3.114331  1772A      3.123832  1773A      3.129166  
    1774A      3.129675  1775A      3.137394  1776A      3.138140  
    1777A      3.143272  1778A      3.143427  1779A      3.150219  
    1780A      3.150914  1781A      3.152358  1782A      3.153203  
    1783A      3.155308  1784A      3.162218  1785A      3.168776  
    1786A      3.173300  1787A      3.177191  1788A      3.178354  
    1789A      3.193944  1790A      3.194433  1791A      3.221190  
    1792A      3.258825  1793A      3.261667  1794A      3.262225  
    1795A      3.262875  1796A      3.263305  1797A      3.265714  
    1798A      3.272279  1799A      3.272564  1800A      3.276081  
    1801A      3.276214  1802A      3.297755  1803A      3.300278  
    1804A      3.306014  1805A      3.308815  1806A      3.362635  
    1807A      3.363092  1808A      3.387499  1809A      3.417839  
    1810A      3.436249  1811A      3.443399  1812A      3.454194  
    1813A      3.456960  1814A      3.461182  1815A      3.466935  
    1816A      3.468932  1817A      3.475519  1818A      3.477904  
    1819A      3.481923  1820A      3.489043  1821A      3.492986  
    1822A      3.509985  1823A      3.533315  1824A      3.555511  
    1825A      3.576813  1826A      3.580503  1827A      3.588422  
    1828A      3.591041  1829A      3.645335  1830A      3.653110  
    1831A      3.667217  1832A      3.673490  1833A      3.707294  
    1834A      3.753665  1835A      3.755847  1836A      3.760425  
    1837A      3.767097  1838A      3.778763  1839A      3.785487  
    1840A      3.843881  1841A      3.847718  1842A      3.872173  
    1843A      3.876860  1844A      3.917693  1845A      3.922272  
    1846A      3.948149  1847A      3.949079  1848A      3.951086  
    1849A      3.956049  1850A      3.965272  1851A      3.973257  
    1852A      3.982458  1853A      4.024775  1854A      4.027644  
    1855A      4.084187  1856A      4.235365  1857A      4.284126  
    1858A      4.335688  1859A      4.420134  1860A      4.450400  
    1861A      4.523442  1862A      4.546392  1863A      5.756151  
    1864A      5.757643  1865A      5.767354  1866A      5.769326  
    1867A      5.770588  1868A      5.771115  1869A      5.779802  
    1870A      5.787106  1871A      5.813654  1872A      5.819474  
    1873A      5.833951  1874A      6.029380  1875A      6.030521  
    1876A      6.032528  1877A      6.211650  1878A      6.334162  
    1879A      6.334472  1880A      6.390359  1881A      6.391403  
    1882A      6.395334  1883A      7.231185  1884A      7.301005  
    1885A      7.306036  1886A      7.334211  1887A      7.432774  
    1888A      7.437278  1889A      7.458826  1890A      7.504253  
    1891A      7.559232  1892A      7.598428  1893A      7.757421  
    1894A      7.816436  1895A     12.751971  1896A     42.927402  
    1897A     42.954770  1898A     42.973618  1899A     42.976739  

    Final Occupation by Irrep:
              A 
    DOCC [   300 ]
    NA   [   300 ]
    NB   [   300 ]

  @DF-RHF Final Energy: -3650.33978457696185

   => Energetics <=

    Nuclear Repulsion Energy =          15611.4211649754324753
    One-Electron Energy =              -36072.1385430716036353
    Two-Electron Energy =               16810.3775935192097677
    Total Energy =                      -3650.3397845769613923

Computation Completed


Properties will be evaluated at   0.000000,   0.000000,   0.000000 [a0]

Properties computed using the SCF density matrix


 Multipole Moments:

 ------------------------------------------------------------------------------------
     Multipole            Electronic (a.u.)      Nuclear  (a.u.)        Total (a.u.)
 ------------------------------------------------------------------------------------

 L = 1.  Multiply by 2.5417464519 to convert [e a0] to [Debye]
 Dipole X            :          0.0000161            0.0001983            0.0002144
 Dipole Y            :          0.0013016           -0.0013163           -0.0000147
 Dipole Z            :        288.9458497         -288.9461565           -0.0003068
 Magnitude           :                                                    0.0003746

 ------------------------------------------------------------------------------------

*** tstop() called on n2cn0352 at Wed Feb  7 21:26:03 2024
Module time:
	user time   =   15980.87 seconds =     266.35 minutes
	system time =     952.36 seconds =      15.87 minutes
	total time  =       1786 seconds =      29.77 minutes
Total time:
	user time   =   42705.04 seconds =     711.75 minutes
	system time =    2527.57 seconds =      42.13 minutes
	total time  =       5526 seconds =      92.10 minutes
  Constructing Basis Sets for SAPT...

   => Loading Basis Set <=

    Name: (JUN-CC-PVDZ AUX)
    Role: RIFIT
    Keyword: DF_BASIS_SAPT
    atoms 1                                                   entry B          line    56 file /opt/software/pc2/EB-SW/software/PSI4/1.9-foss-2022a/share/psi4/basis/jun-cc-pvdz-ri.gbs 
    atoms 2-5                                                 entry F          line   232 file /opt/software/pc2/EB-SW/software/PSI4/1.9-foss-2022a/share/psi4/basis/jun-cc-pvdz-ri.gbs 
    atoms 6-23, 30-42, 45-59, 62-78, 81-93, 98-108, 111-119   entry C          line   100 file /opt/software/pc2/EB-SW/software/PSI4/1.9-foss-2022a/share/psi4/basis/jun-cc-pvdz-ri.gbs 
    atoms 24-29, 43-44, 60-61, 79-80, 94-97, 109-110, 120-125 entry H          line    30 file /opt/software/pc2/EB-SW/software/PSI4/1.9-foss-2022a/share/psi4/basis/jun-cc-pvdz-ri.gbs 

   => Loading Basis Set <=

    Name: (JUN-CC-PVDZ AUX)
    Role: JKFIT
    Keyword: DF_BASIS_ELST
    atoms 1                                                   entry B          line    90 file /opt/software/pc2/EB-SW/software/PSI4/1.9-foss-2022a/share/psi4/basis/jun-cc-pvdz-jkfit.gbs 
    atoms 2-5                                                 entry F          line   314 file /opt/software/pc2/EB-SW/software/PSI4/1.9-foss-2022a/share/psi4/basis/jun-cc-pvdz-jkfit.gbs 
    atoms 6-23, 30-42, 45-59, 62-78, 81-93, 98-108, 111-119   entry C          line   146 file /opt/software/pc2/EB-SW/software/PSI4/1.9-foss-2022a/share/psi4/basis/jun-cc-pvdz-jkfit.gbs 
    atoms 24-29, 43-44, 60-61, 79-80, 94-97, 109-110, 120-125 entry H          line    70 file /opt/software/pc2/EB-SW/software/PSI4/1.9-foss-2022a/share/psi4/basis/jun-cc-pvdz-jkfit.gbs 


  //>>>>>>>>>>>>>>>>>>>>>>>>>>>>>>>>>>>//
  //               SSAPT0              //
  //<<<<<<<<<<<<<<<<<<<<<<<<<<<<<<<<<<<//


*** tstart() called on n2cn0352
*** at Wed Feb  7 21:26:04 2024

        SAPT0  
    Ed Hohenstein
     6 June 2009

      Orbital Information
  --------------------------
    NSO        =      1938
    NMO        =      1899
    NRI        =      6901
    NRI (Elst) =      8531
    NOCC A     =        21
    NOCC B     =       300
    FOCC A     =         5
    FOCC B     =        96
    NVIR A     =      1878
    NVIR B     =      1599

    Elst10,r            =     0.007105761395 [Eh]
    Exch10              =     0.013239848380 [Eh]
    Exch10 (S^2)        =     0.013213170179 [Eh]

    Iter     Energy [mEh]          dE [mEh]         Residual      Time [s]
       1      -1.30839845       1.308398446       5.790527254            86
       2      -1.63183855       0.323440102       2.181321160           186
       3      -1.65609875       0.024260206       0.377411988           250
       4      -1.65110167      -0.004997089       0.101008199           302
       5      -1.65110581       0.000004147       0.030277421           405
       6      -1.65128162       0.000175809       0.007667971           469
       7      -1.65130135       0.000019726       0.001680652           532
       8      -1.65129050      -0.000010851       0.000297028           595
       9      -1.65129178       0.000001281       0.000048953           656
      10      -1.65129172      -0.000000053       0.000009857           721
      11      -1.65129171      -0.000000017       0.000001755           796
      12      -1.65129171       0.000000004       0.000000611           861

    CHF Iterations converged


    Iter     Energy [mEh]          dE [mEh]         Residual      Time [s]
       1     -30.50562265      30.505622649      93.098546356           112
       2     -20.16993498     -10.335687674      11.241440237           216
       3     -20.10940550      -0.060529479       3.645796137           341
       4     -20.43928901       0.329883518       1.261657318           461
       5     -20.48809782       0.048808810       0.463941073           588
       6     -20.47112775      -0.016970074       0.274995101           705
       7     -20.46242140      -0.008706354       0.113662638           828
       8     -20.46463433       0.002212934       0.048615338           956
       9     -20.46638741       0.001753082       0.020439108          1071
      10     -20.46606641      -0.000320997       0.018700104          1178
      11     -20.46565345      -0.000412963       0.011606873          1287
      12     -20.46575413       0.000100677       0.006738565          1398
      13     -20.46588338       0.000129250       0.002771894          1504
      14     -20.46588521       0.000001829       0.001483746          1612
      15     -20.46586546      -0.000019747       0.001047908          1723
      16     -20.46585456      -0.000010903       0.000496657          1843
      17     -20.46586496       0.000010407       0.000180751          1964
      18     -20.46586661       0.000001651       0.000058199          2089
      19     -20.46586578      -0.000000834       0.000029583          2204
      20     -20.46586525      -0.000000529       0.000012669          2322
      21     -20.46586538       0.000000133       0.000006322          2444
      22     -20.46586548       0.000000101       0.000002923          2554
      23     -20.46586547      -0.000000014       0.000001331          2665
      24     -20.46586545      -0.000000020       0.000000693          2781

    CHF Iterations converged

    Ind20,r (A<-B)      =    -0.001651291711 [Eh]
    Ind20,r (B<-A)      =    -0.020465865451 [Eh]
    Ind20,r             =    -0.022117157162 [Eh]
    Exch-Ind20,r (A<-B) =     0.001514936617 [Eh]
    Exch-Ind20,r (B<-A) =     0.002790151467 [Eh]
    Exch-Ind20,r        =     0.004305088084 [Eh]
    Disp20              =    -0.012544170082 [Eh]
    Disp20 (SS)         =    -0.006272085041 [Eh]
    Disp20 (OS)         =    -0.006272085041 [Eh]
    Exch-Disp20         =     0.001708340500 [Eh]
    Exch-Disp20 (SS)    =     0.000983975678 [Eh]
    Exch-Disp20 (OS)    =     0.000724364822 [Eh]

    SAPT Results 
  --------------------------------------------------------------------------------------------------------
    Electrostatics                  7.10576139 [mEh]       4.45893259 [kcal/mol]      18.65617397 [kJ/mol]
      Elst10,r                      7.10576139 [mEh]       4.45893259 [kcal/mol]      18.65617397 [kJ/mol]

    Exchange                       13.23984838 [mEh]       8.30813029 [kcal/mol]      34.76121713 [kJ/mol]
      Exch10                       13.23984838 [mEh]       8.30813029 [kcal/mol]      34.76121713 [kJ/mol]
      Exch10(S^2)                  13.21317018 [mEh]       8.29138947 [kcal/mol]      34.69117353 [kJ/mol]

    Induction                     -18.96533586 [mEh]     -11.90092792 [kcal/mol]     -49.79348244 [kJ/mol]
      Ind20,r                     -22.11715716 [mEh]     -13.87872565 [kcal/mol]     -58.06858813 [kJ/mol]
      Exch-Ind20,r                  4.30508808 [mEh]       2.70148356 [kcal/mol]      11.30300721 [kJ/mol]
      delta HF,r (2)               -1.15326678 [mEh]      -0.72368583 [kcal/mol]      -3.02790152 [kJ/mol]

    Dispersion                    -10.83582958 [mEh]      -6.79958572 [kcal/mol]     -28.44946665 [kJ/mol]
      Disp20                      -12.54417008 [mEh]      -7.87158557 [kcal/mol]     -32.93471401 [kJ/mol]
      Exch-Disp20                   1.70834050 [mEh]       1.07199985 [kcal/mol]       4.48524736 [kJ/mol]
      Disp20 (SS)                  -6.27208504 [mEh]      -3.93579278 [kcal/mol]     -16.46735701 [kJ/mol]
      Disp20 (OS)                  -6.27208504 [mEh]      -3.93579278 [kcal/mol]     -16.46735701 [kJ/mol]
      Exch-Disp20 (SS)              0.98397568 [mEh]       0.61745406 [kcal/mol]       2.58342779 [kJ/mol]
      Exch-Disp20 (OS)              0.72436482 [mEh]       0.45454579 [kcal/mol]       1.90181958 [kJ/mol]

  Total HF                          1.38027392 [mEh]       0.86613496 [kcal/mol]       3.62390867 [kJ/mol]
  Total SAPT0                      -9.45555567 [mEh]      -5.93345076 [kcal/mol]     -24.82555798 [kJ/mol]

  Special recipe for scaled SAPT0 (see Manual):
    Electrostatics sSAPT0           7.10576139 [mEh]       4.45893259 [kcal/mol]      18.65617397 [kJ/mol]
    Exchange sSAPT0                13.23984838 [mEh]       8.30813029 [kcal/mol]      34.76121713 [kJ/mol]
    Induction sSAPT0              -18.93920646 [mEh]     -11.88453148 [kcal/mol]     -49.72487972 [kJ/mol]
    Dispersion sSAPT0             -10.82546094 [mEh]      -6.79307930 [kcal/mol]     -28.42224379 [kJ/mol]
  Total sSAPT0                     -9.41905763 [mEh]      -5.91054790 [kcal/mol]     -24.72973240 [kJ/mol]
  --------------------------------------------------------------------------------------------------------

*** tstop() called on n2cn0352 at Thu Feb  8 00:02:52 2024
Module time:
	user time   =   62711.89 seconds =    1045.20 minutes
	system time =    2936.85 seconds =      48.95 minutes
	total time  =       9408 seconds =     156.80 minutes
Total time:
	user time   =  105418.24 seconds =    1756.97 minutes
	system time =    5464.42 seconds =      91.07 minutes
	total time  =      14935 seconds =     248.92 minutes

    Psi4 stopped on: Thursday, 08 February 2024 12:02AM
    Psi4 wall time for execution: 4:08:56.12

*** Psi4 exiting successfully. Buy a developer a beer!
