
    -----------------------------------------------------------------------
          Psi4: An Open-Source Ab Initio Electronic Structure Package
                               Psi4 1.9 release

                         Git: Rev {} zzzzzzz 


    D. G. A. Smith, L. A. Burns, A. C. Simmonett, R. M. Parrish,
    M. C. Schieber, R. Galvelis, P. Kraus, H. Kruse, R. Di Remigio,
    A. Alenaizan, A. M. James, S. Lehtola, J. P. Misiewicz, M. Scheurer,
    R. A. Shaw, J. B. Schriber, Y. Xie, Z. L. Glick, D. A. Sirianni,
    J. S. O'Brien, J. M. Waldrop, A. Kumar, E. G. Hohenstein,
    B. P. Pritchard, B. R. Brooks, H. F. Schaefer III, A. Yu. Sokolov,
    K. Patkowski, A. E. DePrince III, U. Bozkaya, R. A. King,
    F. A. Evangelista, J. M. Turney, T. D. Crawford, C. D. Sherrill,
    J. Chem. Phys. 152(18) 184108 (2020). https://doi.org/10.1063/5.0006002

                            Additional Code Authors
    E. T. Seidl, C. L. Janssen, E. F. Valeev, M. L. Leininger,
    J. F. Gonthier, R. M. Richard, H. R. McAlexander, M. Saitow, X. Wang,
    P. Verma, M. H. Lechner, A. Jiang, S. Behnle, A. G. Heide,
    M. F. Herbst, and D. L. Poole

             Previous Authors, Complete List of Code Contributors,
                       and Citations for Specific Modules
    https://github.com/psi4/psi4/blob/master/codemeta.json
    https://github.com/psi4/psi4/graphs/contributors
    http://psicode.org/psi4manual/master/introduction.html#citing-psifour

    -----------------------------------------------------------------------


    Psi4 started on: Thursday, 25 January 2024 04:41AM

    Process ID: 1413515
    Host:       n2cn1134
    PSIDATADIR: /opt/software/pc2/EB-SW/software/PSI4/1.9-foss-2022a/share/psi4
    Memory:     500.0 MiB
    Threads:    16
    
  ==> Input File <==

--------------------------------------------------------------------------
memory 47 GB # how much memory is available ! Depends on the nodes/cores !

molecule dimer {
# monomer A
-1 1    # Charge and multiplicity
B -1.977592e-04  2.742729e-04 -6.599966
F  1.123153e-16  1.430594e-17 -5.187181
F  1.147860e+00  6.757812e-01 -7.071107
F  1.191806e-02 -1.332011e+00 -7.070905
F -1.159666e+00  6.560735e-01 -7.070826
--
# monomer B
0 1     # Charge and multiplicity
C   -3.66844126402057      7.80375217008252      0.00190004133558
C   -4.84759871934653      7.13124183134024     -0.00046653359696
C   -4.89495929917518      5.69633040353158     -0.00103944469517
C   -3.65374067877320      4.98073034095895      0.00662099703436
C   -2.40942512149445      7.11398103667468      0.00209438359570
C   -2.42547734410473      5.68112195090346     -0.00491050527438
C   -1.19474401643570      7.78614419430947      0.00356656413763
C   0.03795902893699      7.09942164575698      0.00139585983271
C   0.03033258741920      5.66948955970466     -0.00408752508301
C   -1.20098450790502      4.96927034791531      0.00488220885047
C   1.27795782581485      7.77285944319479      0.00277170839332
C   2.48535808472416      7.08769688523756      0.00049722048857
C   2.48612868491717      5.65477081024076     -0.00644052849921
C   1.25408291964399      4.95607811366431      0.00518741308898
C   3.75171459140595      7.76391215098033      0.00062407186893
C   4.92356605618520      7.07878077698995     -0.00143240883900
C   4.95560727132542      5.64344746336949     -0.00159282164606
C   3.70680153420475      4.94121020833308      0.00349873852374
H   -3.65852113775815      8.89082741913536      0.00358502958574
H   -1.18921332975660      8.87412108735996      0.00753844057883
H   1.28429423888630      8.86083343548850      0.00693053253426
H   3.75354208679975      8.85103527897216      0.00214659618464
H   5.86995870320703      7.61379483465560     -0.00235777588134
H   -5.78823170750226      7.67630221293400     -0.00202638095293
C   -6.09197395869619      4.99326001364347     -0.00291168518608
C   -6.12866148031747      3.58258016879823     -0.00171050815740
C   -3.66457974004527      3.56418217974434     -0.00463560277484
C   -4.89429820469869      2.86108077590057      0.00453338221034
C   -2.43733499489796      2.84761165708481      0.00719617576166
C   -1.20922785759670      3.54788693497833     -0.00648285103018
C   1.24714157216223      3.53468075142962     -0.00729145743546
C   0.01517603956900      2.83311183930540      0.00439272578912
C   2.46764517244071      2.82128997725533      0.00449278391269
C   3.70254947457969      3.52466015442405     -0.00899517692985
C   6.14498038638375      4.92757236613191     -0.00282626685777
C   6.16658835886151      3.51658447594213     -0.00065971342101
C   4.92460995845939      2.80840792535402      0.00587903281610
H   7.08990550964105      5.46688776622306     -0.00658814770723
H   -7.03104175110130      5.54268795285765     -0.00714490013730
C   -7.33969804112295      2.85841153457957     -0.00333767559888
C   -7.36488195805880      1.47032337158330     -0.00157213747140
C   -4.90350460894690      1.44442681216000     -0.00628840166334
C   -6.13225715261081      0.73993935705394      0.00600164231964
C   -3.67687480051673      0.72669714267312      0.00433931473643
C   -2.44565658606518      1.42964113326212     -0.00597039546461
C   -1.22360068130162      0.71532450163492      0.00545886906656
C   0.00763786931376      1.41738314923765      0.00392452278437
C   1.23121980774686      0.70211669058719     -0.01490206287210
C   2.46082110053113      1.40329203612573      0.00460244601878
C   3.68443025419614      0.68719842821222      0.00377365974158
C   4.91870890153864      1.39173456118907     -0.00862816189375
C   7.36980207796101      2.77948220318441     -0.00242013321349
C   7.38016266612146      1.39121750785509     -0.00087345036788
C   6.13979953912259      0.67411862320065      0.00545489144369
H   -8.27919079934664      3.40711804112415     -0.00763522772059
H   8.31511347147953      3.31811809662368     -0.00663070901292
C   -8.59175593758115      0.72483255304480     -0.00123170985383
C   -8.59902460370342     -0.63263980622873      0.00089141472904
C   -6.13981313911873     -0.67413663715361     -0.00609792660607
C   -7.38018411213749     -1.39126618958160      0.00131813493501
C   -4.91868448025621     -1.39175501803000      0.00624257154343
C   -3.68443829568458     -0.68723731573599     -0.00478966852105
C   -2.46081704024768     -1.40334517882457      0.00575341766833
C   -1.23116201232071     -0.70217386488055     -0.00636696112346
C   -0.00756962538737     -1.41741884941102      0.00108956317991
C   1.22364771588843     -0.71527537726392      0.01109518512883
C   2.44567064933149     -1.42964328900682     -0.00065482763106
C   3.67686670284649     -0.72670743155550     -0.00479541202602
C   6.13224884641929     -0.73997883984993     -0.00632338623858
C   4.90351914550401     -1.44445752054090      0.00751768830159
C   8.59901484869081      0.63260386666793     -0.00101133422380
C   8.59174548810050     -0.72485086719319      0.00072504603735
C   7.36486276438985     -1.47033266560598      0.00049486934466
H   -9.52830597181814      1.27684744919284     -0.00270163681798
H   9.54141097460619      1.17457248844457     -0.00206336648518
C   -7.36983790976868     -2.77954514593389      0.00312634335708
C   -4.92459910905015     -2.80843725734101     -0.00460528907921
C   -6.16662249566744     -3.51665219282533      0.00169655107992
C   -3.70251035970491     -3.52468154912026      0.00571878010666
C   -2.46764698511392     -2.82132596280400     -0.00632585824990
C   -0.01513347410770     -2.83314164539971     -0.00604426974092
C   -1.24712184122656     -3.53473217556300      0.00551968366725
C   1.20924506964357     -3.54791467864352      0.00805871345849
C   2.43733602215464     -2.84764173817541     -0.00608104485234
C   4.89430234377080     -2.86112296828604     -0.00526030478103
C   3.66461525504104     -3.56421984553201      0.00761911515957
C   6.12863901474565     -3.58258405771778      0.00096495711699
C   7.33967266469532     -2.85841330737039      0.00248018319869
H   -9.54144911125902     -1.17456346666430      0.00226083090216
H   9.52826186807155     -1.27691907390448      0.00197485379837
H   -8.31516504384864     -3.31814985321231      0.00729857188773
H   8.27915514249207     -3.40714078989363      0.00681973918158
C   -6.14499418870218     -4.92764727278338      0.00302254913999
C   -3.70678334799751     -4.94126171411716     -0.00679841894792
C   -4.95559005800169     -5.64349397349412      0.00116871569699
C   -2.48612132622665     -5.65478557440947      0.00614125209662
C   -1.25405833548005     -4.95612205000132     -0.00503435388927
C   1.20101257386816     -4.96928038819302     -0.00385322963129
C   -0.03033667441341     -5.66952030313900      0.00398997003238
C   3.65375010132847     -4.98074377541453     -0.00309522988330
C   2.42549269587528     -5.68117463552727      0.00628170066869
C   6.09196561781097     -4.99325796338655      0.00325918379042
C   4.89497644461045     -5.69634842095790      0.00202298796027
H   -7.08989238804069     -5.46699984223871      0.00742531082125
H   7.03105520920009     -5.54265853633254      0.00683896355417
C   -4.92354532219813     -7.07882109967734      0.00061394679214
C   -2.48534208823777     -7.08772807792913     -0.00189594564379
C   -3.75168589177895     -7.76394715763627     -0.00170126671874
C   -0.03794895698805     -7.09946487446944     -0.00168022049625
C   -1.27795610040136     -7.77290438466689     -0.00366491325785
C   2.40944432072629     -7.11402201200282     -0.00081701968533
C   1.19474993715296     -7.78618536556242     -0.00296931056689
C   4.84762105249800     -7.13126211057943      0.00168979497423
C   3.66847160587561     -7.80378799294376     -0.00065863938960
H   -5.86994035041618     -7.61383059804164      0.00215798365757
H   5.78824962538815     -7.67633218931421      0.00281691445618
H   -3.75352693944918     -8.85107156923607     -0.00353718114765
H   -1.28430440589466     -8.86087539249706     -0.00809229711623
H   1.18922157469537     -8.87416062058945     -0.00706194725726
H   3.65854661482387     -8.89086063405326     -0.00231318081200

    units angstrom      # Angstroms are the default
    no_reorient         # Geometry fixed, default
    symmetry c1         # C1 symmetry, default
}

set {
    scf_type DF         # Density fitting, faster than exact integrals
    freeze_core True    # Freeze core electrons
    basis jun-cc-pVDZ   # Jun-cc-pVDZ basis set, recommended for sSAPT0 in https://doi.org/10.1063/1.4867135
}

energy('ssapt0')        # Compute sSAPT0 energy, includes also SAPT0
--------------------------------------------------------------------------

  Memory set to  43.772 GiB by Python driver.

Scratch directory: /tmp/
   => Loading Basis Set <=

    Name: JUN-CC-PVDZ
    Role: ORBITAL
    Keyword: BASIS
    atoms 1                                                   entry B          line   130 file /opt/software/pc2/EB-SW/software/PSI4/1.9-foss-2022a/share/psi4/basis/jun-cc-pvdz.gbs 
    atoms 2-5                                                 entry F          line   266 file /opt/software/pc2/EB-SW/software/PSI4/1.9-foss-2022a/share/psi4/basis/jun-cc-pvdz.gbs 
    atoms 6-23, 30-42, 45-59, 62-78, 81-93, 98-108, 111-119   entry C          line   164 file /opt/software/pc2/EB-SW/software/PSI4/1.9-foss-2022a/share/psi4/basis/jun-cc-pvdz.gbs 
    atoms 24-29, 43-44, 60-61, 79-80, 94-97, 109-110, 120-125 entry H          line    36 file /opt/software/pc2/EB-SW/software/PSI4/1.9-foss-2022a/share/psi4/basis/jun-cc-pvdz.gbs 

   => Loading Basis Set <=

    Name: JUN-CC-PVDZ
    Role: ORBITAL
    Keyword: BASIS
    atoms 1                                                   entry B          line   130 file /opt/software/pc2/EB-SW/software/PSI4/1.9-foss-2022a/share/psi4/basis/jun-cc-pvdz.gbs 
    atoms 2-5                                                 entry F          line   266 file /opt/software/pc2/EB-SW/software/PSI4/1.9-foss-2022a/share/psi4/basis/jun-cc-pvdz.gbs 
    atoms 6-23, 30-42, 45-59, 62-78, 81-93, 98-108, 111-119   entry C          line   164 file /opt/software/pc2/EB-SW/software/PSI4/1.9-foss-2022a/share/psi4/basis/jun-cc-pvdz.gbs 
    atoms 24-29, 43-44, 60-61, 79-80, 94-97, 109-110, 120-125 entry H          line    36 file /opt/software/pc2/EB-SW/software/PSI4/1.9-foss-2022a/share/psi4/basis/jun-cc-pvdz.gbs 


  //>>>>>>>>>>>>>>>>>>>>>>>>>>>>>>>>>>>//
  //              Dimer HF             //
  //<<<<<<<<<<<<<<<<<<<<<<<<<<<<<<<<<<<//

   => Libint2 <=

    Primary   basis highest AM E, G, H:  5, 4, 3
    Auxiliary basis highest AM E, G, H:  6, 5, 4
    Onebody   basis highest AM E, G, H:  6, 5, 4
    Solid Harmonics ordering:            gaussian

*** tstart() called on n2cn1134
*** at Thu Jan 25 04:41:06 2024

   => Loading Basis Set <=

    Name: JUN-CC-PVDZ
    Role: ORBITAL
    Keyword: BASIS
    atoms 1                                                   entry B          line   130 file /opt/software/pc2/EB-SW/software/PSI4/1.9-foss-2022a/share/psi4/basis/jun-cc-pvdz.gbs 
    atoms 2-5                                                 entry F          line   266 file /opt/software/pc2/EB-SW/software/PSI4/1.9-foss-2022a/share/psi4/basis/jun-cc-pvdz.gbs 
    atoms 6-23, 30-42, 45-59, 62-78, 81-93, 98-108, 111-119   entry C          line   164 file /opt/software/pc2/EB-SW/software/PSI4/1.9-foss-2022a/share/psi4/basis/jun-cc-pvdz.gbs 
    atoms 24-29, 43-44, 60-61, 79-80, 94-97, 109-110, 120-125 entry H          line    36 file /opt/software/pc2/EB-SW/software/PSI4/1.9-foss-2022a/share/psi4/basis/jun-cc-pvdz.gbs 


         ---------------------------------------------------------
                                   SCF
               by Justin Turney, Rob Parrish, Andy Simmonett
                          and Daniel G. A. Smith
                              RHF Reference
                       16 Threads,  44822 MiB Core
         ---------------------------------------------------------

  ==> Geometry <==

    Molecular point group: c1
    Full point group: C1

    Geometry (in Angstrom), charge = -1, multiplicity = 1:

       Center              X                  Y                   Z               Mass       
    ------------   -----------------  -----------------  -----------------  -----------------
         B           -0.000201921932     0.000288800891    -6.145390700346    11.009305360000
         F           -0.000004162732     0.000014527991    -4.732605700346    18.998403162730
         F            1.147855837268     0.675795727991    -6.616531700346    18.998403162730
         F            0.011913897268    -1.331996472009    -6.616329700346    18.998403162730
         F           -1.159670162732     0.656088027991    -6.616250700346    18.998403162730
         C           -3.668445426752     7.803766698073     0.456475340989    12.000000000000
         C           -4.847602882078     7.131256359331     0.454108766057    12.000000000000
         C           -4.894963461907     5.696344931522     0.453535854959    12.000000000000
         C           -3.653744841505     4.980744868950     0.461196296688    12.000000000000
         C           -2.409429284226     7.113995564665     0.456669683250    12.000000000000
         C           -2.425481506836     5.681136478894     0.449664794380    12.000000000000
         C           -1.194748179167     7.786158722300     0.458141863792    12.000000000000
         C            0.037954866205     7.099436173748     0.455971159487    12.000000000000
         C            0.030328424687     5.669504087695     0.450487774571    12.000000000000
         C           -1.200988670637     4.969284875906     0.459457508504    12.000000000000
         C            1.277953663083     7.772873971185     0.457347008047    12.000000000000
         C            2.485353921992     7.087711413228     0.455072520142    12.000000000000
         C            2.486124522185     5.654785338231     0.448134771155    12.000000000000
         C            1.254078756912     4.956092641655     0.459762712743    12.000000000000
         C            3.751710428674     7.763926678971     0.455199371523    12.000000000000
         C            4.923561893453     7.078795304981     0.453142890815    12.000000000000
         C            4.955603108594     5.643461991360     0.452982478008    12.000000000000
         C            3.706797371473     4.941224736324     0.458074038178    12.000000000000
         H           -3.658525300490     8.890841947126     0.458160329240     1.007825032230
         H           -1.189217492488     8.874135615351     0.462113740233     1.007825032230
         H            1.284290076155     8.860847963479     0.461505832188     1.007825032230
         H            3.753537924068     8.851049806963     0.456721895839     1.007825032230
         H            5.869954540475     7.613809362646     0.452217523773     1.007825032230
         H           -5.788235870234     7.676316740925     0.452548918701     1.007825032230
         C           -6.091978121428     4.993274541634     0.451663614468    12.000000000000
         C           -6.128665643049     3.582594696789     0.452864791496    12.000000000000
         C           -3.664583902777     3.564196707735     0.449939696879    12.000000000000
         C           -4.894302367430     2.861095303891     0.459108681864    12.000000000000
         C           -2.437339157630     2.847626185075     0.461771475416    12.000000000000
         C           -1.209232020328     3.547901462969     0.448092448624    12.000000000000
         C            1.247137409430     3.534695279420     0.447283842218    12.000000000000
         C            0.015171876837     2.833126367296     0.458968025443    12.000000000000
         C            2.467641009709     2.821304505246     0.459068083567    12.000000000000
         C            3.702545311848     3.524674682415     0.445580122724    12.000000000000
         C            6.144976223652     4.927586894122     0.451749032796    12.000000000000
         C            6.166584196130     3.516599003933     0.453915586233    12.000000000000
         C            4.924605795728     2.808422453345     0.460454332470    12.000000000000
         H            7.089901346909     5.466902294214     0.447987151947     1.007825032230
         H           -7.031045913833     5.542702480848     0.447430399517     1.007825032230
         C           -7.339702203855     2.858426062570     0.451237624055    12.000000000000
         C           -7.364886120791     1.470337899574     0.453003162182    12.000000000000
         C           -4.903508771679     1.444441340151     0.448286897991    12.000000000000
         C           -6.132261315343     0.739953885044     0.460576941974    12.000000000000
         C           -3.676878963248     0.726711670664     0.458914614390    12.000000000000
         C           -2.445660748797     1.429655661253     0.448604904189    12.000000000000
         C           -1.223604844033     0.715339029625     0.460034168720    12.000000000000
         C            0.007633706582     1.417397677228     0.458499822438    12.000000000000
         C            1.231215645015     0.702131218578     0.439673236782    12.000000000000
         C            2.460816937799     1.403306564116     0.459177745673    12.000000000000
         C            3.684426091464     0.687212956203     0.458348959395    12.000000000000
         C            4.918704738807     1.391749089180     0.445947137760    12.000000000000
         C            7.369797915229     2.779496731175     0.452155166440    12.000000000000
         C            7.380158503390     1.391232035846     0.453701849286    12.000000000000
         C            6.139795376391     0.674133151191     0.460030191098    12.000000000000
         H           -8.279194962078     3.407132569115     0.446940071933     1.007825032230
         H            8.315109308748     3.318132624614     0.447944590641     1.007825032230
         C           -8.591760100313     0.724847081035     0.453343589800    12.000000000000
         C           -8.599028766435    -0.632625278238     0.455466714383    12.000000000000
         C           -6.139817301850    -0.674122109163     0.448477373048    12.000000000000
         C           -7.380188274869    -1.391251661591     0.455893434589    12.000000000000
         C           -4.918688642988    -1.391740490039     0.460817871197    12.000000000000
         C           -3.684442458416    -0.687222787745     0.449785631133    12.000000000000
         C           -2.460821202979    -1.403330650834     0.460328717322    12.000000000000
         C           -1.231166175052    -0.702159336890     0.448208338530    12.000000000000
         C           -0.007573788119    -1.417404321420     0.455664862834    12.000000000000
         C            1.223643553157    -0.715260849273     0.465670484783    12.000000000000
         C            2.445666486600    -1.429628761016     0.453920472023    12.000000000000
         C            3.676862540115    -0.726692903565     0.449779887628    12.000000000000
         C            6.132244683688    -0.739964311859     0.448251913415    12.000000000000
         C            4.903514982772    -1.444442992550     0.462092987955    12.000000000000
         C            8.599010685959     0.632618394658     0.453563965430    12.000000000000
         C            8.591741325369    -0.724836339203     0.455300345691    12.000000000000
         C            7.364858601658    -1.470318137615     0.455070168999    12.000000000000
         H           -9.528310134550     1.276861977183     0.451873662836     1.007825032230
         H            9.541406811874     1.174587016435     0.452511933169     1.007825032230
         C           -7.369842072500    -2.779530617943     0.457701643011    12.000000000000
         C           -4.924603271782    -2.808422729350     0.449970010575    12.000000000000
         C           -6.166626658399    -3.516637664835     0.456271850734    12.000000000000
         C           -3.702514522437    -3.524667021130     0.460294079761    12.000000000000
         C           -2.467651147846    -2.821311434813     0.448249441404    12.000000000000
         C           -0.015137636839    -2.833127117409     0.448531029913    12.000000000000
         C           -1.247126003958    -3.534717647572     0.460094983321    12.000000000000
         C            1.209240906912    -3.547900150653     0.462634013112    12.000000000000
         C            2.437331859423    -2.847627210185     0.448494254802    12.000000000000
         C            4.894298181039    -2.861108440295     0.449314994873    12.000000000000
         C            3.664611092309    -3.564205317541     0.462194414813    12.000000000000
         C            6.128634852014    -3.582569529727     0.455540256771    12.000000000000
         C            7.339668501964    -2.858398779380     0.457055482853    12.000000000000
         H           -9.541453273991    -1.174548938674     0.456836130556     1.007825032230
         H            9.528257705340    -1.276904545914     0.456550153452     1.007825032230
         H           -8.315169206580    -3.318135325222     0.461873871542     1.007825032230
         H            8.279150979760    -3.407126261903     0.461395038835     1.007825032230
         C           -6.144998351434    -4.927632744793     0.457597848794    12.000000000000
         C           -3.706787510729    -4.941247186127     0.447776880706    12.000000000000
         C           -4.955594220733    -5.643479445504     0.455744015351    12.000000000000
         C           -2.486125488958    -5.654771046419     0.460716551751    12.000000000000
         C           -1.254062498212    -4.956107522011     0.449540945765    12.000000000000
         C            1.201008411136    -4.969265860202     0.450722070023    12.000000000000
         C           -0.030340837145    -5.669505775148     0.458565269686    12.000000000000
         C            3.653745938597    -4.980729247424     0.451480069771    12.000000000000
         C            2.425488533144    -5.681160107537     0.460857000323    12.000000000000
         C            6.091961455079    -4.993243435396     0.457834483444    12.000000000000
         C            4.894972281879    -5.696333892967     0.456598287614    12.000000000000
         H           -7.089896550772    -5.466985314248     0.462000610475     1.007825032230
         H            7.031051046468    -5.542644008342     0.461414263208     1.007825032230
         C           -4.923549484930    -7.078806571687     0.455189246446    12.000000000000
         C           -2.485346250970    -7.087713549939     0.452679354010    12.000000000000
         C           -3.751690054511    -7.763932629646     0.452874032935    12.000000000000
         C           -0.037953119720    -7.099450346479     0.452895079158    12.000000000000
         C           -1.277960263133    -7.772889856676     0.450910386396    12.000000000000
         C            2.409440157995    -7.114007484012     0.453758279969    12.000000000000
         C            1.194745774421    -7.786170837572     0.451605989087    12.000000000000
         C            4.847616889766    -7.131247582589     0.456265094628    12.000000000000
         C            3.668467443144    -7.803773464953     0.453916660264    12.000000000000
         H           -5.869944513148    -7.613816070051     0.456733283311     1.007825032230
         H            5.788245462656    -7.676317661324     0.457392214110     1.007825032230
         H           -3.753531102181    -8.851057041246     0.451038118506     1.007825032230
         H           -1.284308568626    -8.860860864507     0.446483002538     1.007825032230
         H            1.189217411964    -8.874146092599     0.447513352397     1.007825032230
         H            3.658542452092    -8.890846106063     0.452262118842     1.007825032230

  Running in c1 symmetry.

  Rotational constants: A =      0.00061  B =      0.00061  C =      0.00035 [cm^-1]
  Rotational constants: A =     18.35991  B =     18.35705  C =     10.55117 [MHz]
  Nuclear repulsion = 17249.355470864295057

  Charge       = -1
  Multiplicity = 1
  Electrons    = 642
  Nalpha       = 321
  Nbeta        = 321

  ==> Algorithm <==

  SCF Algorithm Type is DF.
  DIIS enabled.
  MOM disabled.
  Fractional occupation disabled.
  Guess Type is SAD.
  Energy threshold   = 1.00e-08
  Density threshold  = 1.00e-08
  Integral threshold = 1.00e-12

  ==> Primary Basis <==

  Basis Set: JUN-CC-PVDZ
    Blend: JUN-CC-PVDZ
    Number of shells: 880
    Number of basis functions: 1938
    Number of Cartesian functions: 2039
    Spherical Harmonics?: true
    Max angular momentum: 2

   => Loading Basis Set <=

    Name: (JUN-CC-PVDZ AUX)
    Role: JKFIT
    Keyword: DF_BASIS_SCF
    atoms 1                                                   entry B          line    90 file /opt/software/pc2/EB-SW/software/PSI4/1.9-foss-2022a/share/psi4/basis/jun-cc-pvdz-jkfit.gbs 
    atoms 2-5                                                 entry F          line   314 file /opt/software/pc2/EB-SW/software/PSI4/1.9-foss-2022a/share/psi4/basis/jun-cc-pvdz-jkfit.gbs 
    atoms 6-23, 30-42, 45-59, 62-78, 81-93, 98-108, 111-119   entry C          line   146 file /opt/software/pc2/EB-SW/software/PSI4/1.9-foss-2022a/share/psi4/basis/jun-cc-pvdz-jkfit.gbs 
    atoms 24-29, 43-44, 60-61, 79-80, 94-97, 109-110, 120-125 entry H          line    70 file /opt/software/pc2/EB-SW/software/PSI4/1.9-foss-2022a/share/psi4/basis/jun-cc-pvdz-jkfit.gbs 

  ==> Integral Setup <==

  ==> DiskDFJK: Density-Fitted J/K Matrices <==

    J tasked:                  Yes
    K tasked:                  Yes
    wK tasked:                  No
    OpenMP threads:             16
    Integrals threads:          16
    Memory [MiB]:            33617
    Algorithm:                Disk
    Integral Cache:           SAVE
    Schwarz Cutoff:          1E-12
    Fitting Condition:       1E-10

   => Auxiliary Basis Set <=

  Basis Set: (JUN-CC-PVDZ AUX)
    Blend: JUN-CC-PVDZ-JKFIT
    Number of shells: 2943
    Number of basis functions: 8531
    Number of Cartesian functions: 9791
    Spherical Harmonics?: true
    Max angular momentum: 3

  Minimum eigenvalue in the overlap matrix is 9.0405249977E-11.
  Reciprocal condition number of the overlap matrix is 3.9599281430E-12.
    Using canonical orthogonalization.
  Overall, 38 of 1938 possible MOs eliminated.


  ==> Pre-Iterations <==

  SCF Guess: Superposition of Atomic Densities via on-the-fly atomic UHF (no occupation information).

   -------------------------
    Irrep   Nso     Nmo    
   -------------------------
     A       1938    1900 
   -------------------------
    Total    1938    1900
   -------------------------

  ==> Iterations <==

                           Total Energy        Delta E     RMS |[F,P]|

   @DF-RHF iter SAD: -4084.99966386884989   -4.08500e+03   0.00000e+00 
   @DF-RHF iter   1: -4071.52267783784191    1.34770e+01   7.88653e-04 ADIIS/DIIS
   @DF-RHF iter   2: -4072.91660630260776   -1.39393e+00   3.07713e-04 ADIIS/DIIS
   @DF-RHF iter   3: -4073.07904281761739   -1.62437e-01   1.01692e-04 ADIIS/DIIS
   @DF-RHF iter   4: -4073.10063628306125   -2.15935e-02   3.66698e-05 DIIS
   @DF-RHF iter   5: -4073.10381805598217   -3.18177e-03   1.05811e-05 DIIS
   @DF-RHF iter   6: -4073.10423609381905   -4.18038e-04   4.15688e-06 DIIS
   @DF-RHF iter   7: -4073.10441231337700   -1.76220e-04   2.07541e-06 DIIS
   @DF-RHF iter   8: -4073.10446403926562   -5.17259e-05   1.12542e-06 DIIS
   @DF-RHF iter   9: -4073.10447847381920   -1.44346e-05   3.23875e-07 DIIS
   @DF-RHF iter  10: -4073.10447934559033   -8.71771e-07   1.61574e-07 DIIS
   @DF-RHF iter  11: -4073.10447948842148   -1.42831e-07   6.13107e-08 DIIS
   @DF-RHF iter  12: -4073.10447952077357   -3.23521e-08   3.14710e-08 DIIS
   @DF-RHF iter  13: -4073.10447952724280   -6.46924e-09   1.05232e-08 DIIS
   @DF-RHF iter  14: -4073.10447952814366   -9.00855e-10   4.44093e-09 DIIS
  Energy and wave function converged.


  ==> Post-Iterations <==

    Orbital Energies [Eh]
    ---------------------

    Doubly Occupied:                                                      

       1A    -26.066696     2A    -26.065869     3A    -26.065775  
       4A    -26.065689     5A    -11.209034     6A    -11.209030  
       7A    -11.209026     8A    -11.209021     9A    -11.209020  
      10A    -11.209017    11A    -11.209012    12A    -11.209009  
      13A    -11.209005    14A    -11.209002    15A    -11.209000  
      16A    -11.208993    17A    -11.208764    18A    -11.208755  
      19A    -11.208747    20A    -11.208742    21A    -11.208740  
      22A    -11.208731    23A    -11.207307    24A    -11.207289  
      25A    -11.207285    26A    -11.207232    27A    -11.207230  
      28A    -11.207175    29A    -11.207109    30A    -11.207044  
      31A    -11.207042    32A    -11.206968    33A    -11.206964  
      34A    -11.206934    35A    -11.206200    36A    -11.206155  
      37A    -11.206146    38A    -11.206055    39A    -11.206048  
      40A    -11.205997    41A    -11.205837    42A    -11.205797  
      43A    -11.205792    44A    -11.205677    45A    -11.205672  
      46A    -11.205488    47A    -11.205477    48A    -11.205238  
      49A    -11.205227    50A    -11.205181    51A    -11.205113  
      52A    -11.205070    53A    -11.205068    54A    -11.205056  
      55A    -11.205054    56A    -11.204928    57A    -11.204909  
      58A    -11.204908    59A    -11.204848    60A    -11.204830  
      61A    -11.204821    62A    -11.204718    63A    -11.204713  
      64A    -11.204695    65A    -11.204614    66A    -11.204551  
      67A    -11.204533    68A    -11.204329    69A    -11.204326  
      70A    -11.204321    71A    -11.204319    72A    -11.204316  
      73A    -11.204315    74A    -11.204117    75A    -11.204115  
      76A    -11.204000    77A    -11.203955    78A    -11.203778  
      79A    -11.203777    80A    -11.203150    81A    -11.203122  
      82A    -11.202870    83A    -11.202867    84A    -11.202861  
      85A    -11.202859    86A    -11.202857    87A    -11.202856  
      88A    -11.202686    89A    -11.201329    90A    -11.201328  
      91A    -11.201321    92A    -11.201263    93A    -11.201258  
      94A    -11.201257    95A    -11.201238    96A    -11.201236  
      97A    -11.201230    98A    -11.201171    99A    -11.201168  
     100A    -11.201166   101A     -7.538285   102A     -1.409942  
     103A     -1.350652   104A     -1.350000   105A     -1.349835  
     106A     -1.197234   107A     -1.183761   108A     -1.183757  
     109A     -1.166115   110A     -1.166109   111A     -1.159762  
     112A     -1.147484   113A     -1.141601   114A     -1.132878  
     115A     -1.132874   116A     -1.120418   117A     -1.120415  
     118A     -1.100737   119A     -1.100736   120A     -1.097650  
     121A     -1.091618   122A     -1.091616   123A     -1.074457  
     124A     -1.060102   125A     -1.059941   126A     -1.058739  
     127A     -1.057644   128A     -1.057630   129A     -1.034466  
     130A     -1.034451   131A     -1.024029   132A     -1.024027  
     133A     -1.013192   134A     -1.013162   135A     -1.010163  
     136A     -0.993132   137A     -0.993124   138A     -0.986796  
     139A     -0.985796   140A     -0.985796   141A     -0.970490  
     142A     -0.965705   143A     -0.965655   144A     -0.953902  
     145A     -0.952528   146A     -0.950012   147A     -0.946175  
     148A     -0.946128   149A     -0.938475   150A     -0.916869  
     151A     -0.916823   152A     -0.902621   153A     -0.902566  
     154A     -0.853121   155A     -0.853080   156A     -0.850493  
     157A     -0.850450   158A     -0.848742   159A     -0.837101  
     160A     -0.837041   161A     -0.835539   162A     -0.835481  
     163A     -0.835123   164A     -0.819317   165A     -0.817273  
     166A     -0.798534   167A     -0.793434   168A     -0.793414  
     169A     -0.790842   170A     -0.788839   171A     -0.781086  
     172A     -0.781073   173A     -0.775623   174A     -0.775620  
     175A     -0.732073   176A     -0.732057   177A     -0.729008  
     178A     -0.728987   179A     -0.728551   180A     -0.728532  
     181A     -0.727609   182A     -0.713318   183A     -0.706000  
     184A     -0.696359   185A     -0.680969   186A     -0.673466  
     187A     -0.673451   188A     -0.671360   189A     -0.670905  
     190A     -0.670885   191A     -0.663842   192A     -0.659528  
     193A     -0.659524   194A     -0.646578   195A     -0.646566  
     196A     -0.632985   197A     -0.632982   198A     -0.631782  
     199A     -0.628831   200A     -0.628820   201A     -0.625334  
     202A     -0.601244   203A     -0.600796   204A     -0.597749  
     205A     -0.597720   206A     -0.596680   207A     -0.595590  
     208A     -0.595575   209A     -0.586951   210A     -0.586934  
     211A     -0.586923   212A     -0.586155   213A     -0.582274  
     214A     -0.582245   215A     -0.575650   216A     -0.562656  
     217A     -0.562630   218A     -0.560098   219A     -0.555738  
     220A     -0.555732   221A     -0.545361   222A     -0.544544  
     223A     -0.544533   224A     -0.544291   225A     -0.543462  
     226A     -0.543438   227A     -0.542233   228A     -0.542222  
     229A     -0.541653   230A     -0.539044   231A     -0.538211  
     232A     -0.538207   233A     -0.532674   234A     -0.527605  
     235A     -0.527337   236A     -0.527252   237A     -0.525854  
     238A     -0.525844   239A     -0.521192   240A     -0.521190  
     241A     -0.520349   242A     -0.514548   243A     -0.514535  
     244A     -0.513234   245A     -0.512951   246A     -0.512893  
     247A     -0.508970   248A     -0.506139   249A     -0.504897  
     250A     -0.504877   251A     -0.500655   252A     -0.497062  
     253A     -0.495921   254A     -0.490251   255A     -0.480566  
     256A     -0.480558   257A     -0.479175   258A     -0.479152  
     259A     -0.475055   260A     -0.475037   261A     -0.473272  
     262A     -0.463630   263A     -0.463598   264A     -0.462145  
     265A     -0.462139   266A     -0.456981   267A     -0.456964  
     268A     -0.446284   269A     -0.446242   270A     -0.444552  
     271A     -0.442744   272A     -0.442718   273A     -0.438590  
     274A     -0.438581   275A     -0.433793   276A     -0.428785  
     277A     -0.424533   278A     -0.424531   279A     -0.420858  
     280A     -0.415039   281A     -0.412751   282A     -0.412745  
     283A     -0.407568   284A     -0.407399   285A     -0.407314  
     286A     -0.404595   287A     -0.391493   288A     -0.391431  
     289A     -0.386008   290A     -0.385444   291A     -0.385430  
     292A     -0.384081   293A     -0.384018   294A     -0.383690  
     295A     -0.382129   296A     -0.381103   297A     -0.353262  
     298A     -0.353237   299A     -0.333177   300A     -0.333174  
     301A     -0.331490   302A     -0.331442   303A     -0.328441  
     304A     -0.300475   305A     -0.300459   306A     -0.296705  
     307A     -0.281578   308A     -0.280165   309A     -0.280160  
     310A     -0.278521   311A     -0.278435   312A     -0.251959  
     313A     -0.247347   314A     -0.246792   315A     -0.246725  
     316A     -0.232627   317A     -0.204677   318A     -0.198478  
     319A     -0.198418   320A     -0.150535   321A     -0.150444  

    Virtual:                                                              

     322A      0.042065   323A      0.042145   324A      0.088164  
     325A      0.088411   326A      0.088416   327A      0.089961  
     328A      0.090023   329A      0.090888   330A      0.090911  
     331A      0.091048   332A      0.096262   333A      0.098856  
     334A      0.104316   335A      0.104326   336A      0.115606  
     337A      0.115611   338A      0.119608   339A      0.120530  
     340A      0.124726   341A      0.124801   342A      0.124868  
     343A      0.127493   344A      0.127853   345A      0.128449  
     346A      0.129695   347A      0.130122   348A      0.130214  
     349A      0.131057   350A      0.135402   351A      0.135427  
     352A      0.136591   353A      0.140489   354A      0.140504  
     355A      0.141204   356A      0.143075   357A      0.143131  
     358A      0.148242   359A      0.152137   360A      0.152173  
     361A      0.153264   362A      0.155477   363A      0.156440  
     364A      0.157449   365A      0.157525   366A      0.158736  
     367A      0.158820   368A      0.161671   369A      0.163159  
     370A      0.164020   371A      0.164042   372A      0.164531  
     373A      0.164694   374A      0.170519   375A      0.171296  
     376A      0.171358   377A      0.173675   378A      0.173865  
     379A      0.173980   380A      0.178354   381A      0.178390  
     382A      0.183300   383A      0.185728   384A      0.185872  
     385A      0.190475   386A      0.190864   387A      0.190967  
     388A      0.191285   389A      0.191441   390A      0.194917  
     391A      0.196929   392A      0.196992   393A      0.201379  
     394A      0.205219   395A      0.205333   396A      0.206458  
     397A      0.207186   398A      0.207318   399A      0.207424  
     400A      0.207486   401A      0.209426   402A      0.209701  
     403A      0.212388   404A      0.212526   405A      0.215178  
     406A      0.215393   407A      0.216146   408A      0.216347  
     409A      0.216901   410A      0.217855   411A      0.218728  
     412A      0.218862   413A      0.224575   414A      0.225597  
     415A      0.228247   416A      0.228258   417A      0.233659  
     418A      0.233721   419A      0.236060   420A      0.236232  
     421A      0.236247   422A      0.238396   423A      0.241737  
     424A      0.242426   425A      0.244155   426A      0.244276  
     427A      0.244488   428A      0.244900   429A      0.249519  
     430A      0.249859   431A      0.250211   432A      0.250695  
     433A      0.251007   434A      0.251156   435A      0.251858  
     436A      0.252080   437A      0.255110   438A      0.259254  
     439A      0.260649   440A      0.260715   441A      0.261414  
     442A      0.261515   443A      0.262981   444A      0.263177  
     445A      0.264413   446A      0.264960   447A      0.265415  
     448A      0.265454   449A      0.266678   450A      0.266798  
     451A      0.268415   452A      0.268449   453A      0.269550  
     454A      0.269578   455A      0.273798   456A      0.273933  
     457A      0.275456   458A      0.276410   459A      0.277276  
     460A      0.280811   461A      0.282757   462A      0.282952  
     463A      0.283745   464A      0.283805   465A      0.284649  
     466A      0.286636   467A      0.286891   468A      0.286936  
     469A      0.289379   470A      0.289470   471A      0.293709  
     472A      0.294697   473A      0.297246   474A      0.300707  
     475A      0.302892   476A      0.303457   477A      0.303524  
     478A      0.305780   479A      0.306838   480A      0.307160  
     481A      0.307710   482A      0.308153   483A      0.308830  
     484A      0.308933   485A      0.310460   486A      0.310580  
     487A      0.311780   488A      0.311799   489A      0.316143  
     490A      0.316220   491A      0.317590   492A      0.318008  
     493A      0.318105   494A      0.321253   495A      0.321302  
     496A      0.328017   497A      0.328626   498A      0.328676  
     499A      0.330630   500A      0.330768   501A      0.332899  
     502A      0.334443   503A      0.334562   504A      0.335414  
     505A      0.335956   506A      0.337840   507A      0.337921  
     508A      0.339280   509A      0.339466   510A      0.344174  
     511A      0.345352   512A      0.346142   513A      0.348101  
     514A      0.349544   515A      0.349607   516A      0.352610  
     517A      0.353151   518A      0.353391   519A      0.355102  
     520A      0.355153   521A      0.356249   522A      0.356306  
     523A      0.358246   524A      0.358305   525A      0.358815  
     526A      0.360005   527A      0.361612   528A      0.361666  
     529A      0.363932   530A      0.363990   531A      0.365591  
     532A      0.365675   533A      0.366095   534A      0.366117  
     535A      0.370775   536A      0.370818   537A      0.371054  
     538A      0.375183   539A      0.375453   540A      0.377090  
     541A      0.377200   542A      0.379155   543A      0.379241  
     544A      0.379257   545A      0.379508   546A      0.379737  
     547A      0.380667   548A      0.381080   549A      0.382088  
     550A      0.382146   551A      0.387011   552A      0.387942  
     553A      0.389051   554A      0.389149   555A      0.390312  
     556A      0.392194   557A      0.392211   558A      0.394000  
     559A      0.395564   560A      0.395652   561A      0.396764  
     562A      0.398308   563A      0.403575   564A      0.403801  
     565A      0.403870   566A      0.403960   567A      0.405365  
     568A      0.406344   569A      0.407109   570A      0.409046  
     571A      0.410116   572A      0.411131   573A      0.411225  
     574A      0.411497   575A      0.412418   576A      0.413788  
     577A      0.414041   578A      0.414564   579A      0.416889  
     580A      0.418278   581A      0.418306   582A      0.421607  
     583A      0.422685   584A      0.422742   585A      0.428449  
     586A      0.428490   587A      0.430060   588A      0.431516  
     589A      0.431727   590A      0.432944   591A      0.432955  
     592A      0.438017   593A      0.438421   594A      0.438496  
     595A      0.438793   596A      0.438850   597A      0.443085  
     598A      0.443250   599A      0.443740   600A      0.445185  
     601A      0.445318   602A      0.446318   603A      0.447523  
     604A      0.447554   605A      0.448822   606A      0.449927  
     607A      0.450377   608A      0.450414   609A      0.451026  
     610A      0.451111   611A      0.452314   612A      0.453339  
     613A      0.454434   614A      0.454647   615A      0.454956  
     616A      0.458327   617A      0.458627   618A      0.458662  
     619A      0.458957   620A      0.459035   621A      0.460220  
     622A      0.462626   623A      0.462662   624A      0.462799  
     625A      0.463764   626A      0.463905   627A      0.466328  
     628A      0.466471   629A      0.467438   630A      0.468006  
     631A      0.468125   632A      0.470153   633A      0.470955  
     634A      0.471329   635A      0.471481   636A      0.472625  
     637A      0.472998   638A      0.473378   639A      0.476769  
     640A      0.477008   641A      0.477320   642A      0.477453  
     643A      0.477685   644A      0.479848   645A      0.481213  
     646A      0.481361   647A      0.483149   648A      0.485511  
     649A      0.486049   650A      0.486204   651A      0.486875  
     652A      0.487218   653A      0.487290   654A      0.488840  
     655A      0.489731   656A      0.490251   657A      0.492268  
     658A      0.492898   659A      0.493845   660A      0.493995  
     661A      0.496082   662A      0.497372   663A      0.497717  
     664A      0.499690   665A      0.499848   666A      0.500822  
     667A      0.500921   668A      0.504763   669A      0.505480  
     670A      0.505738   671A      0.506686   672A      0.507706  
     673A      0.507810   674A      0.508020   675A      0.511187  
     676A      0.514050   677A      0.514197   678A      0.514865  
     679A      0.514932   680A      0.516541   681A      0.517347  
     682A      0.519350   683A      0.519443   684A      0.520130  
     685A      0.520482   686A      0.524960   687A      0.526142  
     688A      0.527066   689A      0.527255   690A      0.528878  
     691A      0.528937   692A      0.529788   693A      0.529928  
     694A      0.533712   695A      0.534243   696A      0.534578  
     697A      0.534999   698A      0.535906   699A      0.535948  
     700A      0.537502   701A      0.537922   702A      0.539230  
     703A      0.540424   704A      0.541100   705A      0.542387  
     706A      0.542999   707A      0.543371   708A      0.544261  
     709A      0.545988   710A      0.546802   711A      0.547111  
     712A      0.549164   713A      0.549368   714A      0.550005  
     715A      0.550222   716A      0.553008   717A      0.554015  
     718A      0.554996   719A      0.555208   720A      0.557890  
     721A      0.559539   722A      0.560535   723A      0.561997  
     724A      0.562359   725A      0.563113   726A      0.563652  
     727A      0.565851   728A      0.568634   729A      0.568692  
     730A      0.570763   731A      0.571028   732A      0.571222  
     733A      0.572095   734A      0.574078   735A      0.575501  
     736A      0.576825   737A      0.578660   738A      0.578777  
     739A      0.580149   740A      0.584975   741A      0.585928  
     742A      0.586896   743A      0.587060   744A      0.587909  
     745A      0.590350   746A      0.590689   747A      0.591034  
     748A      0.591100   749A      0.601653   750A      0.602116  
     751A      0.603968   752A      0.604057   753A      0.612536  
     754A      0.612563   755A      0.615362   756A      0.617377  
     757A      0.617816   758A      0.618101   759A      0.619146  
     760A      0.619292   761A      0.620642   762A      0.621010  
     763A      0.626306   764A      0.627464   765A      0.628243  
     766A      0.633416   767A      0.633589   768A      0.634523  
     769A      0.636734   770A      0.639165   771A      0.639732  
     772A      0.639898   773A      0.640909   774A      0.641701  
     775A      0.642203   776A      0.642312   777A      0.642548  
     778A      0.647502   779A      0.647729   780A      0.650393  
     781A      0.653024   782A      0.654957   783A      0.658613  
     784A      0.659231   785A      0.659366   786A      0.660836  
     787A      0.661429   788A      0.662159   789A      0.662604  
     790A      0.671682   791A      0.672545   792A      0.674299  
     793A      0.674788   794A      0.674884   795A      0.675584  
     796A      0.680804   797A      0.682033   798A      0.685717  
     799A      0.686702   800A      0.689506   801A      0.690767  
     802A      0.692510   803A      0.697572   804A      0.698676  
     805A      0.700551   806A      0.703969   807A      0.706669  
     808A      0.707056   809A      0.712370   810A      0.712762  
     811A      0.714660   812A      0.715012   813A      0.715045  
     814A      0.719871   815A      0.720155   816A      0.721811  
     817A      0.727062   818A      0.727422   819A      0.731193  
     820A      0.732937   821A      0.739821   822A      0.740932  
     823A      0.742826   824A      0.743580   825A      0.743992  
     826A      0.744104   827A      0.746101   828A      0.747887  
     829A      0.748166   830A      0.749413   831A      0.749602  
     832A      0.758329   833A      0.759469   834A      0.759604  
     835A      0.766051   836A      0.766514   837A      0.767915  
     838A      0.768376   839A      0.773648   840A      0.776634  
     841A      0.781535   842A      0.783868   843A      0.786928  
     844A      0.787384   845A      0.793062   846A      0.795634  
     847A      0.796041   848A      0.799179   849A      0.802657  
     850A      0.802916   851A      0.806412   852A      0.806499  
     853A      0.808666   854A      0.826323   855A      0.828907  
     856A      0.837140   857A      0.838546   858A      0.842085  
     859A      0.842220   860A      0.846097   861A      0.847725  
     862A      0.849831   863A      0.853274   864A      0.854532  
     865A      0.855947   866A      0.858143   867A      0.859255  
     868A      0.861028   869A      0.862248   870A      0.866951  
     871A      0.867534   872A      0.868459   873A      0.869152  
     874A      0.870404   875A      0.870916   876A      0.879579  
     877A      0.880830   878A      0.881229   879A      0.887528  
     880A      0.888660   881A      0.889698   882A      0.889990  
     883A      0.891228   884A      0.891867   885A      0.892257  
     886A      0.897137   887A      0.897770   888A      0.898289  
     889A      0.901827   890A      0.905439   891A      0.907768  
     892A      0.909801   893A      0.910001   894A      0.912558  
     895A      0.913169   896A      0.913827   897A      0.915214  
     898A      0.916545   899A      0.919379   900A      0.920407  
     901A      0.923161   902A      0.924402   903A      0.925187  
     904A      0.925349   905A      0.927778   906A      0.928073  
     907A      0.928439   908A      0.930294   909A      0.930753  
     910A      0.935092   911A      0.935740   912A      0.937687  
     913A      0.940581   914A      0.943231   915A      0.945964  
     916A      0.946062   917A      0.947395   918A      0.949043  
     919A      0.949760   920A      0.950216   921A      0.951111  
     922A      0.952839   923A      0.957460   924A      0.958350  
     925A      0.959448   926A      0.960038   927A      0.960634  
     928A      0.963838   929A      0.966438   930A      0.972020  
     931A      0.973379   932A      0.973588   933A      0.973643  
     934A      0.974184   935A      0.974418   936A      0.978108  
     937A      0.978678   938A      0.983405   939A      0.984025  
     940A      0.985178   941A      0.985698   942A      0.985967  
     943A      0.986362   944A      0.987233   945A      0.990904  
     946A      0.996739   947A      0.997405   948A      1.000590  
     949A      1.000730   950A      1.001345   951A      1.002642  
     952A      1.002774   953A      1.003334   954A      1.004027  
     955A      1.004132   956A      1.006411   957A      1.008384  
     958A      1.009032   959A      1.009143   960A      1.009228  
     961A      1.009432   962A      1.017266   963A      1.017499  
     964A      1.020507   965A      1.021013   966A      1.025174  
     967A      1.028430   968A      1.035005   969A      1.036093  
     970A      1.036286   971A      1.037450   972A      1.045182  
     973A      1.046020   974A      1.046878   975A      1.046950  
     976A      1.052358   977A      1.056009   978A      1.056140  
     979A      1.057716   980A      1.057884   981A      1.058654  
     982A      1.058949   983A      1.059209   984A      1.061389  
     985A      1.067151   986A      1.067840   987A      1.069442  
     988A      1.071619   989A      1.071724   990A      1.074148  
     991A      1.075377   992A      1.076342   993A      1.082349  
     994A      1.084273   995A      1.084509   996A      1.084790  
     997A      1.089559   998A      1.089755   999A      1.097335  
    1000A      1.098457  1001A      1.098630  1002A      1.099953  
    1003A      1.100660  1004A      1.101299  1005A      1.102255  
    1006A      1.103266  1007A      1.103404  1008A      1.104103  
    1009A      1.106632  1010A      1.106996  1011A      1.111140  
    1012A      1.111203  1013A      1.114119  1014A      1.114559  
    1015A      1.114751  1016A      1.116742  1017A      1.118429  
    1018A      1.122318  1019A      1.122537  1020A      1.122655  
    1021A      1.122972  1022A      1.124288  1023A      1.124648  
    1024A      1.125025  1025A      1.127011  1026A      1.127258  
    1027A      1.127340  1028A      1.128061  1029A      1.128420  
    1030A      1.128657  1031A      1.129124  1032A      1.129701  
    1033A      1.131250  1034A      1.131518  1035A      1.132488  
    1036A      1.133917  1037A      1.134588  1038A      1.135112  
    1039A      1.135493  1040A      1.135930  1041A      1.136675  
    1042A      1.137243  1043A      1.137554  1044A      1.138279  
    1045A      1.138801  1046A      1.138943  1047A      1.139868  
    1048A      1.139969  1049A      1.142166  1050A      1.142354  
    1051A      1.143151  1052A      1.150267  1053A      1.151026  
    1054A      1.152458  1055A      1.152951  1056A      1.153932  
    1057A      1.154135  1058A      1.156095  1059A      1.156309  
    1060A      1.157833  1061A      1.161295  1062A      1.162526  
    1063A      1.165001  1064A      1.165896  1065A      1.168451  
    1066A      1.169469  1067A      1.177037  1068A      1.177813  
    1069A      1.178441  1070A      1.180649  1071A      1.184822  
    1072A      1.185098  1073A      1.185680  1074A      1.186851  
    1075A      1.187602  1076A      1.190332  1077A      1.190540  
    1078A      1.193019  1079A      1.193172  1080A      1.196117  
    1081A      1.197099  1082A      1.200178  1083A      1.202242  
    1084A      1.203897  1085A      1.204799  1086A      1.205653  
    1087A      1.205819  1088A      1.207383  1089A      1.209307  
    1090A      1.211252  1091A      1.211363  1092A      1.216643  
    1093A      1.220308  1094A      1.221241  1095A      1.223431  
    1096A      1.225289  1097A      1.226041  1098A      1.231723  
    1099A      1.232019  1100A      1.236395  1101A      1.239234  
    1102A      1.241397  1103A      1.242131  1104A      1.243308  
    1105A      1.243980  1106A      1.247919  1107A      1.248783  
    1108A      1.257207  1109A      1.257401  1110A      1.257888  
    1111A      1.258437  1112A      1.259173  1113A      1.264664  
    1114A      1.265558  1115A      1.266648  1116A      1.267734  
    1117A      1.267835  1118A      1.271292  1119A      1.271911  
    1120A      1.272717  1121A      1.272940  1122A      1.276451  
    1123A      1.279176  1124A      1.287537  1125A      1.288439  
    1126A      1.299965  1127A      1.304776  1128A      1.305089  
    1129A      1.305293  1130A      1.306177  1131A      1.306300  
    1132A      1.312509  1133A      1.315013  1134A      1.315241  
    1135A      1.318428  1136A      1.320896  1137A      1.321460  
    1138A      1.323159  1139A      1.323225  1140A      1.333931  
    1141A      1.335506  1142A      1.335580  1143A      1.341342  
    1144A      1.344241  1145A      1.344605  1146A      1.346847  
    1147A      1.346940  1148A      1.347308  1149A      1.347527  
    1150A      1.350599  1151A      1.351117  1152A      1.354515  
    1153A      1.356634  1154A      1.357206  1155A      1.357533  
    1156A      1.364919  1157A      1.365388  1158A      1.366372  
    1159A      1.367504  1160A      1.370630  1161A      1.370890  
    1162A      1.372469  1163A      1.373398  1164A      1.373971  
    1165A      1.375190  1166A      1.379368  1167A      1.379446  
    1168A      1.382761  1169A      1.382776  1170A      1.387026  
    1171A      1.387734  1172A      1.387941  1173A      1.391216  
    1174A      1.394393  1175A      1.394595  1176A      1.402524  
    1177A      1.403049  1178A      1.404791  1179A      1.410252  
    1180A      1.410476  1181A      1.412632  1182A      1.412882  
    1183A      1.414181  1184A      1.416312  1185A      1.416482  
    1186A      1.421669  1187A      1.424913  1188A      1.425978  
    1189A      1.428573  1190A      1.428609  1191A      1.429902  
    1192A      1.438018  1193A      1.441292  1194A      1.441502  
    1195A      1.442026  1196A      1.445791  1197A      1.446140  
    1198A      1.448456  1199A      1.448948  1200A      1.458644  
    1201A      1.460205  1202A      1.461198  1203A      1.461311  
    1204A      1.462371  1205A      1.462544  1206A      1.463461  
    1207A      1.464520  1208A      1.468923  1209A      1.469716  
    1210A      1.474419  1211A      1.474664  1212A      1.476991  
    1213A      1.477344  1214A      1.481412  1215A      1.481666  
    1216A      1.482203  1217A      1.482484  1218A      1.486880  
    1219A      1.487316  1220A      1.488878  1221A      1.490083  
    1222A      1.490235  1223A      1.494677  1224A      1.494786  
    1225A      1.497068  1226A      1.504962  1227A      1.505187  
    1228A      1.505903  1229A      1.506334  1230A      1.506813  
    1231A      1.506925  1232A      1.507204  1233A      1.520849  
    1234A      1.522496  1235A      1.523747  1236A      1.524344  
    1237A      1.524812  1238A      1.526275  1239A      1.527016  
    1240A      1.534016  1241A      1.537583  1242A      1.537914  
    1243A      1.538638  1244A      1.546173  1245A      1.552428  
    1246A      1.552628  1247A      1.556557  1248A      1.557841  
    1249A      1.560089  1250A      1.560793  1251A      1.571374  
    1252A      1.572152  1253A      1.591803  1254A      1.592032  
    1255A      1.593990  1256A      1.598421  1257A      1.608572  
    1258A      1.608636  1259A      1.639457  1260A      1.640092  
    1261A      1.640186  1262A      1.643484  1263A      1.649988  
    1264A      1.654675  1265A      1.656678  1266A      1.659853  
    1267A      1.661743  1268A      1.662090  1269A      1.662656  
    1270A      1.663745  1271A      1.664512  1272A      1.665450  
    1273A      1.666307  1274A      1.669341  1275A      1.670673  
    1276A      1.671392  1277A      1.671519  1278A      1.674126  
    1279A      1.674757  1280A      1.675010  1281A      1.676875  
    1282A      1.678130  1283A      1.678595  1284A      1.681240  
    1285A      1.681391  1286A      1.682864  1287A      1.686366  
    1288A      1.687410  1289A      1.689889  1290A      1.690629  
    1291A      1.690966  1292A      1.691491  1293A      1.692697  
    1294A      1.693496  1295A      1.694110  1296A      1.695392  
    1297A      1.695685  1298A      1.695839  1299A      1.697951  
    1300A      1.701117  1301A      1.704815  1302A      1.705093  
    1303A      1.709392  1304A      1.709543  1305A      1.709765  
    1306A      1.710051  1307A      1.719392  1308A      1.719902  
    1309A      1.723620  1310A      1.723703  1311A      1.723954  
    1312A      1.724249  1313A      1.724543  1314A      1.727222  
    1315A      1.729345  1316A      1.730400  1317A      1.733019  
    1318A      1.733559  1319A      1.741192  1320A      1.742884  
    1321A      1.747345  1322A      1.748507  1323A      1.750956  
    1324A      1.751092  1325A      1.751896  1326A      1.753757  
    1327A      1.761936  1328A      1.762025  1329A      1.764369  
    1330A      1.768738  1331A      1.768797  1332A      1.769286  
    1333A      1.772519  1334A      1.774382  1335A      1.777589  
    1336A      1.778187  1337A      1.778858  1338A      1.778882  
    1339A      1.785401  1340A      1.791233  1341A      1.801012  
    1342A      1.801722  1343A      1.802283  1344A      1.802501  
    1345A      1.803364  1346A      1.818041  1347A      1.819738  
    1348A      1.821269  1349A      1.833901  1350A      1.836394  
    1351A      1.838279  1352A      1.838966  1353A      1.858960  
    1354A      1.859157  1355A      1.863240  1356A      1.871130  
    1357A      1.876670  1358A      1.878514  1359A      1.879823  
    1360A      1.879952  1361A      1.880356  1362A      1.881628  
    1363A      1.885820  1364A      1.886174  1365A      1.886667  
    1366A      1.891346  1367A      1.891816  1368A      1.892033  
    1369A      1.893170  1370A      1.900694  1371A      1.901829  
    1372A      1.907674  1373A      1.907759  1374A      1.913842  
    1375A      1.914250  1376A      1.917775  1377A      1.917943  
    1378A      1.919405  1379A      1.919702  1380A      1.923469  
    1381A      1.924008  1382A      1.924439  1383A      1.924502  
    1384A      1.926720  1385A      1.932973  1386A      1.933421  
    1387A      1.934312  1388A      1.936435  1389A      1.937506  
    1390A      1.938060  1391A      1.939082  1392A      1.940632  
    1393A      1.943971  1394A      1.945866  1395A      1.952912  
    1396A      1.954334  1397A      1.956604  1398A      1.956852  
    1399A      1.957835  1400A      1.958381  1401A      1.964250  
    1402A      1.964923  1403A      1.970471  1404A      1.971484  
    1405A      1.976120  1406A      1.977590  1407A      1.977785  
    1408A      1.979929  1409A      1.980728  1410A      1.980911  
    1411A      1.988329  1412A      1.988736  1413A      1.988931  
    1414A      1.990400  1415A      1.991807  1416A      1.992925  
    1417A      1.995279  1418A      1.997220  1419A      1.997475  
    1420A      1.998812  1421A      1.998919  1422A      2.004491  
    1423A      2.006341  1424A      2.007704  1425A      2.008268  
    1426A      2.008556  1427A      2.012854  1428A      2.013224  
    1429A      2.013589  1430A      2.014377  1431A      2.015024  
    1432A      2.019861  1433A      2.022072  1434A      2.023151  
    1435A      2.023545  1436A      2.024807  1437A      2.025810  
    1438A      2.028234  1439A      2.029108  1440A      2.037041  
    1441A      2.037380  1442A      2.040734  1443A      2.042435  
    1444A      2.043123  1445A      2.043372  1446A      2.047785  
    1447A      2.049263  1448A      2.049285  1449A      2.053853  
    1450A      2.054944  1451A      2.057656  1452A      2.062369  
    1453A      2.065049  1454A      2.066495  1455A      2.066963  
    1456A      2.069699  1457A      2.069867  1458A      2.072905  
    1459A      2.073737  1460A      2.074375  1461A      2.075187  
    1462A      2.076189  1463A      2.076784  1464A      2.078357  
    1465A      2.083039  1466A      2.084779  1467A      2.086747  
    1468A      2.087597  1469A      2.089415  1470A      2.090720  
    1471A      2.092265  1472A      2.093552  1473A      2.101860  
    1474A      2.103371  1475A      2.106115  1476A      2.108062  
    1477A      2.110100  1478A      2.110879  1479A      2.113707  
    1480A      2.114397  1481A      2.115273  1482A      2.115644  
    1483A      2.121246  1484A      2.121793  1485A      2.123566  
    1486A      2.123793  1487A      2.128581  1488A      2.131206  
    1489A      2.132403  1490A      2.133130  1491A      2.133828  
    1492A      2.135104  1493A      2.135805  1494A      2.136001  
    1495A      2.137059  1496A      2.137508  1497A      2.140645  
    1498A      2.141550  1499A      2.142052  1500A      2.142222  
    1501A      2.142274  1502A      2.142749  1503A      2.142998  
    1504A      2.143644  1505A      2.146911  1506A      2.147250  
    1507A      2.147941  1508A      2.152030  1509A      2.152337  
    1510A      2.154072  1511A      2.154463  1512A      2.154886  
    1513A      2.157799  1514A      2.159674  1515A      2.160383  
    1516A      2.163090  1517A      2.165770  1518A      2.166720  
    1519A      2.167319  1520A      2.167898  1521A      2.168486  
    1522A      2.169538  1523A      2.170876  1524A      2.171872  
    1525A      2.173942  1526A      2.179627  1527A      2.180012  
    1528A      2.180503  1529A      2.182294  1530A      2.182522  
    1531A      2.182896  1532A      2.186168  1533A      2.188053  
    1534A      2.190015  1535A      2.190176  1536A      2.193484  
    1537A      2.196303  1538A      2.196329  1539A      2.197318  
    1540A      2.197979  1541A      2.198072  1542A      2.208234  
    1543A      2.209448  1544A      2.212233  1545A      2.212490  
    1546A      2.213553  1547A      2.213713  1548A      2.214118  
    1549A      2.214363  1550A      2.214903  1551A      2.215723  
    1552A      2.219232  1553A      2.225019  1554A      2.225409  
    1555A      2.233656  1556A      2.234142  1557A      2.234808  
    1558A      2.235724  1559A      2.242620  1560A      2.243571  
    1561A      2.245553  1562A      2.247277  1563A      2.248099  
    1564A      2.250318  1565A      2.252664  1566A      2.253121  
    1567A      2.254104  1568A      2.255563  1569A      2.256391  
    1570A      2.257122  1571A      2.257652  1572A      2.258004  
    1573A      2.259145  1574A      2.263948  1575A      2.267462  
    1576A      2.267906  1577A      2.274323  1578A      2.274724  
    1579A      2.275324  1580A      2.276479  1581A      2.279713  
    1582A      2.279948  1583A      2.282434  1584A      2.283121  
    1585A      2.285110  1586A      2.285597  1587A      2.293801  
    1588A      2.294193  1589A      2.294860  1590A      2.296781  
    1591A      2.299683  1592A      2.300179  1593A      2.304766  
    1594A      2.305720  1595A      2.311728  1596A      2.313013  
    1597A      2.316060  1598A      2.317175  1599A      2.319324  
    1600A      2.320786  1601A      2.330101  1602A      2.336091  
    1603A      2.337705  1604A      2.343082  1605A      2.343427  
    1606A      2.348716  1607A      2.351633  1608A      2.356745  
    1609A      2.357129  1610A      2.362449  1611A      2.372958  
    1612A      2.378318  1613A      2.378699  1614A      2.379317  
    1615A      2.381035  1616A      2.383028  1617A      2.383580  
    1618A      2.385437  1619A      2.387840  1620A      2.388904  
    1621A      2.389520  1622A      2.393882  1623A      2.395659  
    1624A      2.396112  1625A      2.396439  1626A      2.398817  
    1627A      2.399424  1628A      2.399677  1629A      2.405138  
    1630A      2.405365  1631A      2.424581  1632A      2.428762  
    1633A      2.429297  1634A      2.436650  1635A      2.441634  
    1636A      2.445629  1637A      2.446431  1638A      2.447993  
    1639A      2.451968  1640A      2.471795  1641A      2.473172  
    1642A      2.477831  1643A      2.480998  1644A      2.487187  
    1645A      2.495380  1646A      2.497425  1647A      2.506720  
    1648A      2.507487  1649A      2.517615  1650A      2.517789  
    1651A      2.521080  1652A      2.521436  1653A      2.525021  
    1654A      2.525303  1655A      2.543458  1656A      2.543834  
    1657A      2.549366  1658A      2.554452  1659A      2.558619  
    1660A      2.559349  1661A      2.563617  1662A      2.569177  
    1663A      2.593081  1664A      2.593198  1665A      2.593389  
    1666A      2.595204  1667A      2.595951  1668A      2.599322  
    1669A      2.599801  1670A      2.601295  1671A      2.602991  
    1672A      2.604465  1673A      2.611838  1674A      2.612028  
    1675A      2.618061  1676A      2.623360  1677A      2.624509  
    1678A      2.631631  1679A      2.634989  1680A      2.635451  
    1681A      2.638264  1682A      2.639287  1683A      2.639852  
    1684A      2.640198  1685A      2.644475  1686A      2.646531  
    1687A      2.654274  1688A      2.654457  1689A      2.665901  
    1690A      2.666061  1691A      2.666381  1692A      2.666926  
    1693A      2.669944  1694A      2.670738  1695A      2.686351  
    1696A      2.694210  1697A      2.694978  1698A      2.697204  
    1699A      2.699283  1700A      2.700219  1701A      2.702599  
    1702A      2.703543  1703A      2.704831  1704A      2.708265  
    1705A      2.708658  1706A      2.719667  1707A      2.720405  
    1708A      2.721472  1709A      2.722451  1710A      2.722649  
    1711A      2.728686  1712A      2.729513  1713A      2.729620  
    1714A      2.737879  1715A      2.739714  1716A      2.741084  
    1717A      2.744593  1718A      2.745107  1719A      2.745512  
    1720A      2.746070  1721A      2.749923  1722A      2.751064  
    1723A      2.758473  1724A      2.773320  1725A      2.783026  
    1726A      2.783455  1727A      2.784050  1728A      2.784499  
    1729A      2.784582  1730A      2.806203  1731A      2.816004  
    1732A      2.816528  1733A      2.829122  1734A      2.831611  
    1735A      2.834659  1736A      2.835016  1737A      2.854280  
    1738A      2.854756  1739A      2.856938  1740A      2.856978  
    1741A      2.857356  1742A      2.864365  1743A      2.867138  
    1744A      2.869460  1745A      2.869919  1746A      2.870284  
    1747A      2.872423  1748A      2.883590  1749A      2.883813  
    1750A      2.894411  1751A      2.895195  1752A      2.895800  
    1753A      2.896104  1754A      2.899883  1755A      2.917127  
    1756A      2.919573  1757A      2.920015  1758A      2.923564  
    1759A      2.924608  1760A      2.928225  1761A      2.952345  
    1762A      2.953197  1763A      2.956416  1764A      2.957496  
    1765A      2.968969  1766A      2.969757  1767A      2.969864  
    1768A      2.979302  1769A      2.981173  1770A      2.982225  
    1771A      2.987657  1772A      2.987675  1773A      3.016196  
    1774A      3.017298  1775A      3.017778  1776A      3.028856  
    1777A      3.044867  1778A      3.045599  1779A      3.082867  
    1780A      3.083722  1781A      3.087739  1782A      3.090990  
    1783A      3.100114  1784A      3.100971  1785A      3.101569  
    1786A      3.111770  1787A      3.111844  1788A      3.113937  
    1789A      3.126552  1790A      3.160364  1791A      3.165090  
    1792A      3.165381  1793A      3.175888  1794A      3.181109  
    1795A      3.181623  1796A      3.186062  1797A      3.187724  
    1798A      3.194434  1799A      3.195311  1800A      3.201742  
    1801A      3.201984  1802A      3.202716  1803A      3.203120  
    1804A      3.205592  1805A      3.213878  1806A      3.223118  
    1807A      3.225189  1808A      3.227164  1809A      3.227428  
    1810A      3.245310  1811A      3.245986  1812A      3.271830  
    1813A      3.279083  1814A      3.305999  1815A      3.311213  
    1816A      3.314780  1817A      3.315528  1818A      3.315949  
    1819A      3.317823  1820A      3.321341  1821A      3.324477  
    1822A      3.327920  1823A      3.328554  1824A      3.346679  
    1825A      3.348560  1826A      3.350065  1827A      3.356380  
    1828A      3.416151  1829A      3.416989  1830A      3.424754  
    1831A      3.470900  1832A      3.484571  1833A      3.487920  
    1834A      3.495731  1835A      3.502506  1836A      3.505879  
    1837A      3.517353  1838A      3.519496  1839A      3.521428  
    1840A      3.526191  1841A      3.529226  1842A      3.536820  
    1843A      3.540903  1844A      3.549405  1845A      3.564283  
    1846A      3.595615  1847A      3.629158  1848A      3.630921  
    1849A      3.637587  1850A      3.643774  1851A      3.691456  
    1852A      3.694610  1853A      3.718962  1854A      3.720986  
    1855A      3.759805  1856A      3.802498  1857A      3.803247  
    1858A      3.805043  1859A      3.819109  1860A      3.831836  
    1861A      3.835756  1862A      3.895240  1863A      3.897146  
    1864A      3.925161  1865A      3.928379  1866A      3.958760  
    1867A      3.967388  1868A      3.994150  1869A      3.996981  
    1870A      4.002250  1871A      4.003190  1872A      4.013506  
    1873A      4.021474  1874A      4.026811  1875A      4.080161  
    1876A      4.083172  1877A      4.127359  1878A      4.173694  
    1879A      4.173927  1880A      4.173986  1881A      4.201460  
    1882A      4.201497  1883A      4.202118  1884A      4.202686  
    1885A      4.202793  1886A      4.234678  1887A      4.234740  
    1888A      4.243218  1889A      4.287220  1890A      4.360173  
    1891A      4.448738  1892A      4.449029  1893A      4.449502  
    1894A      4.451718  1895A      4.649869  1896A      4.651599  
    1897A      4.651712  1898A      4.750724  1899A      4.786261  
    1900A      4.786675  

    Final Occupation by Irrep:
              A 
    DOCC [   321 ]
    NA   [   321 ]
    NB   [   321 ]

  @DF-RHF Final Energy: -4073.10447952814366

   => Energetics <=

    Nuclear Repulsion Energy =          17249.3554708642950573
    One-Electron Energy =              -39980.5015330117530539
    Two-Electron Energy =               18658.0415826193129760
    Total Energy =                      -4073.1044795281450206

Computation Completed


Properties will be evaluated at   0.000000,   0.000000,   0.000000 [a0]

Properties computed using the SCF density matrix


 Multipole Moments:

 ------------------------------------------------------------------------------------
     Multipole            Electronic (a.u.)      Nuclear  (a.u.)        Total (a.u.)
 ------------------------------------------------------------------------------------

 L = 1.  Multiply by 2.5417464519 to convert [e a0] to [Debye]
 Dipole X            :         -0.0006171           -0.0000548           -0.0006719
 Dipole Y            :          0.0009290           -0.0002464            0.0006827
 Dipole Z            :        -28.6819125           39.2771279           10.5952155
 Magnitude           :                                                   10.5952155

 ------------------------------------------------------------------------------------

*** tstop() called on n2cn1134 at Thu Jan 25 10:02:53 2024
Module time:
	user time   =   24656.21 seconds =     410.94 minutes
	system time =    1461.90 seconds =      24.37 minutes
	total time  =      19307 seconds =     321.78 minutes
Total time:
	user time   =   24656.21 seconds =     410.94 minutes
	system time =    1461.90 seconds =      24.37 minutes
	total time  =      19307 seconds =     321.78 minutes

  //>>>>>>>>>>>>>>>>>>>>>>>>>>>>>>>>>>>//
  //            Monomer A HF           //
  //<<<<<<<<<<<<<<<<<<<<<<<<<<<<<<<<<<<//

   => Libint2 <=

    Primary   basis highest AM E, G, H:  5, 4, 3
    Auxiliary basis highest AM E, G, H:  6, 5, 4
    Onebody   basis highest AM E, G, H:  6, 5, 4
    Solid Harmonics ordering:            gaussian

*** tstart() called on n2cn1134
*** at Thu Jan 25 10:02:53 2024

   => Loading Basis Set <=

    Name: JUN-CC-PVDZ
    Role: ORBITAL
    Keyword: BASIS
    atoms 1                                                   entry B          line   130 file /opt/software/pc2/EB-SW/software/PSI4/1.9-foss-2022a/share/psi4/basis/jun-cc-pvdz.gbs 
    atoms 2-5                                                 entry F          line   266 file /opt/software/pc2/EB-SW/software/PSI4/1.9-foss-2022a/share/psi4/basis/jun-cc-pvdz.gbs 
    atoms 6-23, 30-42, 45-59, 62-78, 81-93, 98-108, 111-119   entry C          line   164 file /opt/software/pc2/EB-SW/software/PSI4/1.9-foss-2022a/share/psi4/basis/jun-cc-pvdz.gbs 
    atoms 24-29, 43-44, 60-61, 79-80, 94-97, 109-110, 120-125 entry H          line    36 file /opt/software/pc2/EB-SW/software/PSI4/1.9-foss-2022a/share/psi4/basis/jun-cc-pvdz.gbs 


         ---------------------------------------------------------
                                   SCF
               by Justin Turney, Rob Parrish, Andy Simmonett
                          and Daniel G. A. Smith
                              RHF Reference
                       16 Threads,  44822 MiB Core
         ---------------------------------------------------------

  ==> Geometry <==

    Molecular point group: c1
    Full point group: C1

    Geometry (in Angstrom), charge = -1, multiplicity = 1:

       Center              X                  Y                   Z               Mass       
    ------------   -----------------  -----------------  -----------------  -----------------
         B           -0.000201921932     0.000288800891    -6.145390700346    11.009305360000
         F           -0.000004162732     0.000014527991    -4.732605700346    18.998403162730
         F            1.147855837268     0.675795727991    -6.616531700346    18.998403162730
         F            0.011913897268    -1.331996472009    -6.616329700346    18.998403162730
         F           -1.159670162732     0.656088027991    -6.616250700346    18.998403162730
      Gh(C)          -3.668445426752     7.803766698073     0.456475340989    12.000000000000
      Gh(C)          -4.847602882078     7.131256359331     0.454108766057    12.000000000000
      Gh(C)          -4.894963461907     5.696344931522     0.453535854959    12.000000000000
      Gh(C)          -3.653744841505     4.980744868950     0.461196296688    12.000000000000
      Gh(C)          -2.409429284226     7.113995564665     0.456669683250    12.000000000000
      Gh(C)          -2.425481506836     5.681136478894     0.449664794380    12.000000000000
      Gh(C)          -1.194748179167     7.786158722300     0.458141863792    12.000000000000
      Gh(C)           0.037954866205     7.099436173748     0.455971159487    12.000000000000
      Gh(C)           0.030328424687     5.669504087695     0.450487774571    12.000000000000
      Gh(C)          -1.200988670637     4.969284875906     0.459457508504    12.000000000000
      Gh(C)           1.277953663083     7.772873971185     0.457347008047    12.000000000000
      Gh(C)           2.485353921992     7.087711413228     0.455072520142    12.000000000000
      Gh(C)           2.486124522185     5.654785338231     0.448134771155    12.000000000000
      Gh(C)           1.254078756912     4.956092641655     0.459762712743    12.000000000000
      Gh(C)           3.751710428674     7.763926678971     0.455199371523    12.000000000000
      Gh(C)           4.923561893453     7.078795304981     0.453142890815    12.000000000000
      Gh(C)           4.955603108594     5.643461991360     0.452982478008    12.000000000000
      Gh(C)           3.706797371473     4.941224736324     0.458074038178    12.000000000000
      Gh(H)          -3.658525300490     8.890841947126     0.458160329240     1.007825032230
      Gh(H)          -1.189217492488     8.874135615351     0.462113740233     1.007825032230
      Gh(H)           1.284290076155     8.860847963479     0.461505832188     1.007825032230
      Gh(H)           3.753537924068     8.851049806963     0.456721895839     1.007825032230
      Gh(H)           5.869954540475     7.613809362646     0.452217523773     1.007825032230
      Gh(H)          -5.788235870234     7.676316740925     0.452548918701     1.007825032230
[...]
    1498A      2.111815  1499A      2.111961  1500A      2.112191  
    1501A      2.113034  1502A      2.114922  1503A      2.116932  
    1504A      2.117828  1505A      2.119722  1506A      2.126426  
    1507A      2.126625  1508A      2.126847  1509A      2.127341  
    1510A      2.127683  1511A      2.127861  1512A      2.129734  
    1513A      2.131054  1514A      2.134873  1515A      2.135334  
    1516A      2.138015  1517A      2.138629  1518A      2.142962  
    1519A      2.143179  1520A      2.143227  1521A      2.143884  
    1522A      2.144406  1523A      2.154435  1524A      2.154943  
    1525A      2.157256  1526A      2.157840  1527A      2.158904  
    1528A      2.159511  1529A      2.159860  1530A      2.160064  
    1531A      2.162533  1532A      2.162983  1533A      2.171247  
    1534A      2.171554  1535A      2.179872  1536A      2.180955  
    1537A      2.181143  1538A      2.182333  1539A      2.188534  
    1540A      2.189174  1541A      2.190857  1542A      2.191551  
    1543A      2.192591  1544A      2.194980  1545A      2.197392  
    1546A      2.198078  1547A      2.200353  1548A      2.200638  
    1549A      2.200864  1550A      2.201543  1551A      2.203059  
    1552A      2.204154  1553A      2.205566  1554A      2.209465  
    1555A      2.213636  1556A      2.213939  1557A      2.220145  
    1558A      2.222204  1559A      2.222704  1560A      2.224235  
    1561A      2.224760  1562A      2.224807  1563A      2.228783  
    1564A      2.231996  1565A      2.232301  1566A      2.233218  
    1567A      2.238702  1568A      2.238848  1569A      2.239437  
    1570A      2.241451  1571A      2.247520  1572A      2.248121  
    1573A      2.248852  1574A      2.249715  1575A      2.260354  
    1576A      2.261508  1577A      2.263555  1578A      2.264926  
    1579A      2.266601  1580A      2.269525  1581A      2.275233  
    1582A      2.282814  1583A      2.284252  1584A      2.290516  
    1585A      2.291017  1586A      2.296304  1587A      2.296755  
    1588A      2.303736  1589A      2.304130  1590A      2.309086  
    1591A      2.316232  1592A      2.324455  1593A      2.324889  
    1594A      2.325177  1595A      2.327147  1596A      2.329397  
    1597A      2.330546  1598A      2.331119  1599A      2.332989  
    1600A      2.334330  1601A      2.335030  1602A      2.339658  
    1603A      2.341367  1604A      2.342136  1605A      2.342308  
    1606A      2.344780  1607A      2.345800  1608A      2.346293  
    1609A      2.349063  1610A      2.349407  1611A      2.368008  
    1612A      2.372244  1613A      2.372914  1614A      2.383583  
    1615A      2.387939  1616A      2.390535  1617A      2.391625  
    1618A      2.392873  1619A      2.396946  1620A      2.418304  
    1621A      2.419481  1622A      2.423639  1623A      2.427542  
    1624A      2.432093  1625A      2.441694  1626A      2.443743  
    1627A      2.452124  1628A      2.453074  1629A      2.464295  
    1630A      2.464388  1631A      2.467740  1632A      2.468026  
    1633A      2.471903  1634A      2.472160  1635A      2.490963  
    1636A      2.491353  1637A      2.494736  1638A      2.501741  
    1639A      2.506102  1640A      2.507024  1641A      2.511437  
    1642A      2.516156  1643A      2.539160  1644A      2.539269  
    1645A      2.539974  1646A      2.541918  1647A      2.542678  
    1648A      2.544814  1649A      2.547556  1650A      2.548477  
    1651A      2.549151  1652A      2.551120  1653A      2.556525  
    1654A      2.556680  1655A      2.564189  1656A      2.571160  
    1657A      2.571458  1658A      2.579978  1659A      2.583660  
    1660A      2.584141  1661A      2.585088  1662A      2.586236  
    1663A      2.588468  1664A      2.588783  1665A      2.593195  
    1666A      2.593483  1667A      2.601303  1668A      2.601432  
    1669A      2.612683  1670A      2.612953  1671A      2.613291  
    1672A      2.613681  1673A      2.616650  1674A      2.617442  
    1675A      2.632519  1676A      2.640556  1677A      2.641504  
    1678A      2.643690  1679A      2.645381  1680A      2.647314  
    1681A      2.648620  1682A      2.649234  1683A      2.652728  
    1684A      2.655683  1685A      2.656045  1686A      2.665985  
    1687A      2.666067  1688A      2.667548  1689A      2.670338  
    1690A      2.670548  1691A      2.673566  1692A      2.677174  
    1693A      2.677573  1694A      2.684258  1695A      2.685567  
    1696A      2.687077  1697A      2.691085  1698A      2.691224  
    1699A      2.691545  1700A      2.692388  1701A      2.696042  
    1702A      2.697267  1703A      2.703957  1704A      2.720622  
    1705A      2.730678  1706A      2.730862  1707A      2.730985  
    1708A      2.731267  1709A      2.731909  1710A      2.752742  
    1711A      2.760190  1712A      2.760699  1713A      2.772783  
    1714A      2.775877  1715A      2.779990  1716A      2.780573  
    1717A      2.799061  1718A      2.799861  1719A      2.801454  
    1720A      2.802162  1721A      2.802216  1722A      2.807679  
    1723A      2.809831  1724A      2.813184  1725A      2.814293  
    1726A      2.814705  1727A      2.815604  1728A      2.816020  
    1729A      2.816254  1730A      2.819184  1731A      2.828035  
    1732A      2.828220  1733A      2.840114  1734A      2.841526  
    1735A      2.841602  1736A      2.842165  1737A      2.845902  
    1738A      2.864768  1739A      2.865146  1740A      2.865376  
    1741A      2.870074  1742A      2.871092  1743A      2.874117  
    1744A      2.895906  1745A      2.896792  1746A      2.912497  
    1747A      2.917672  1748A      2.917775  1749A      2.927402  
    1750A      2.929687  1751A      2.934799  1752A      2.934832  
    1753A      2.962989  1754A      2.964852  1755A      2.965344  
    1756A      2.976081  1757A      2.991757  1758A      2.992492  
    1759A      3.029196  1760A      3.029931  1761A      3.035305  
    1762A      3.038509  1763A      3.046777  1764A      3.047444  
    1765A      3.047962  1766A      3.057488  1767A      3.057535  
    1768A      3.063247  1769A      3.072821  1770A      3.108356  
    1771A      3.112775  1772A      3.113076  1773A      3.122486  
    1774A      3.127077  1775A      3.127767  1776A      3.132437  
    1777A      3.134037  1778A      3.141870  1779A      3.142912  
    1780A      3.148133  1781A      3.148661  1782A      3.149474  
    1783A      3.150047  1784A      3.153537  1785A      3.162067  
    1786A      3.167775  1787A      3.173116  1788A      3.174954  
    1789A      3.175215  1790A      3.193025  1791A      3.193753  
    1792A      3.220028  1793A      3.252867  1794A      3.259404  
    1795A      3.261030  1796A      3.261450  1797A      3.262094  
    1798A      3.264299  1799A      3.268160  1800A      3.271289  
    1801A      3.274702  1802A      3.275348  1803A      3.293011  
    1804A      3.294392  1805A      3.295840  1806A      3.302764  
    1807A      3.361207  1808A      3.362094  1809A      3.369546  
    1810A      3.415717  1811A      3.429665  1812A      3.432053  
    1813A      3.436871  1814A      3.445906  1815A      3.449207  
    1816A      3.460983  1817A      3.464462  1818A      3.465414  
    1819A      3.470954  1820A      3.473922  1821A      3.481384  
    1822A      3.484609  1823A      3.493571  1824A      3.509105  
    1825A      3.539558  1826A      3.574253  1827A      3.575945  
    1828A      3.582557  1829A      3.590045  1830A      3.636097  
    1831A      3.639207  1832A      3.664534  1833A      3.666676  
    1834A      3.704931  1835A      3.747338  1836A      3.749276  
    1837A      3.750524  1838A      3.763047  1839A      3.778567  
    1840A      3.779251  1841A      3.841825  1842A      3.843180  
    1843A      3.871428  1844A      3.874575  1845A      3.904650  
    1846A      3.912934  1847A      3.937931  1848A      3.940261  
    1849A      3.948258  1850A      3.949192  1851A      3.958487  
    1852A      3.964889  1853A      3.970791  1854A      4.024626  
    1855A      4.027428  1856A      4.070692  1857A      4.190717  
    1858A      4.191637  1859A      4.213810  1860A      4.229505  
    1861A      4.301551  1862A      4.334978  1863A      4.393071  
    1864A      5.748251  1865A      5.749396  1866A      5.749426  
    1867A      5.753244  1868A      5.753264  1869A      5.758172  
    1870A      5.760439  1871A      5.760469  1872A      5.779532  
    1873A      5.779583  1874A      5.788120  1875A      6.019506  
    1876A      6.020337  1877A      6.020682  1878A      6.193415  
    1879A      6.326700  1880A      6.327020  1881A      6.374741  
    1882A      6.375095  1883A      6.375657  1884A      7.159891  
    1885A      7.161833  1886A      7.229729  1887A      7.229905  
    1888A      7.232089  1889A      7.240181  1890A      7.270202  
    1891A      7.270453  1892A      7.457467  1893A      7.457768  
    1894A      7.494146  1895A      7.602406  1896A     12.601429  
    1897A     42.908837  1898A     42.908994  1899A     42.914936  
    1900A     42.939378  

    Final Occupation by Irrep:
              A 
    DOCC [   300 ]
    NA   [   300 ]
    NB   [   300 ]

  @DF-RHF Final Energy: -3650.33778999522747

   => Energetics <=

    Nuclear Repulsion Energy =          15611.4211649754324753
    One-Electron Energy =              -36072.0823294239453389
    Two-Electron Energy =               16810.3233744532844867
    Total Energy =                      -3650.3377899952283769

Computation Completed


Properties will be evaluated at   0.000000,   0.000000,   0.000000 [a0]

Properties computed using the SCF density matrix


 Multipole Moments:

 ------------------------------------------------------------------------------------
     Multipole            Electronic (a.u.)      Nuclear  (a.u.)        Total (a.u.)
 ------------------------------------------------------------------------------------

 L = 1.  Multiply by 2.5417464519 to convert [e a0] to [Debye]
 Dipole X            :         -0.0008836            0.0002304           -0.0006532
 Dipole Y            :          0.0010916           -0.0013052           -0.0002136
 Dipole Z            :       -515.4139888          515.4170838            0.0030950
 Magnitude           :                                                    0.0031704

 ------------------------------------------------------------------------------------

*** tstop() called on n2cn1134 at Thu Jan 25 12:59:07 2024
Module time:
	user time   =   17003.57 seconds =     283.39 minutes
	system time =    1176.75 seconds =      19.61 minutes
	total time  =       6269 seconds =     104.48 minutes
Total time:
	user time   =   45998.25 seconds =     766.64 minutes
	system time =    2930.60 seconds =      48.84 minutes
	total time  =      29881 seconds =     498.02 minutes
  Constructing Basis Sets for SAPT...

   => Loading Basis Set <=

    Name: (JUN-CC-PVDZ AUX)
    Role: RIFIT
    Keyword: DF_BASIS_SAPT
    atoms 1                                                   entry B          line    56 file /opt/software/pc2/EB-SW/software/PSI4/1.9-foss-2022a/share/psi4/basis/jun-cc-pvdz-ri.gbs 
    atoms 2-5                                                 entry F          line   232 file /opt/software/pc2/EB-SW/software/PSI4/1.9-foss-2022a/share/psi4/basis/jun-cc-pvdz-ri.gbs 
    atoms 6-23, 30-42, 45-59, 62-78, 81-93, 98-108, 111-119   entry C          line   100 file /opt/software/pc2/EB-SW/software/PSI4/1.9-foss-2022a/share/psi4/basis/jun-cc-pvdz-ri.gbs 
    atoms 24-29, 43-44, 60-61, 79-80, 94-97, 109-110, 120-125 entry H          line    30 file /opt/software/pc2/EB-SW/software/PSI4/1.9-foss-2022a/share/psi4/basis/jun-cc-pvdz-ri.gbs 

   => Loading Basis Set <=

    Name: (JUN-CC-PVDZ AUX)
    Role: JKFIT
    Keyword: DF_BASIS_ELST
    atoms 1                                                   entry B          line    90 file /opt/software/pc2/EB-SW/software/PSI4/1.9-foss-2022a/share/psi4/basis/jun-cc-pvdz-jkfit.gbs 
    atoms 2-5                                                 entry F          line   314 file /opt/software/pc2/EB-SW/software/PSI4/1.9-foss-2022a/share/psi4/basis/jun-cc-pvdz-jkfit.gbs 
    atoms 6-23, 30-42, 45-59, 62-78, 81-93, 98-108, 111-119   entry C          line   146 file /opt/software/pc2/EB-SW/software/PSI4/1.9-foss-2022a/share/psi4/basis/jun-cc-pvdz-jkfit.gbs 
    atoms 24-29, 43-44, 60-61, 79-80, 94-97, 109-110, 120-125 entry H          line    70 file /opt/software/pc2/EB-SW/software/PSI4/1.9-foss-2022a/share/psi4/basis/jun-cc-pvdz-jkfit.gbs 


  //>>>>>>>>>>>>>>>>>>>>>>>>>>>>>>>>>>>//
  //               SSAPT0              //
  //<<<<<<<<<<<<<<<<<<<<<<<<<<<<<<<<<<<//


*** tstart() called on n2cn1134
*** at Thu Jan 25 12:59:09 2024

        SAPT0  
    Ed Hohenstein
     6 June 2009

      Orbital Information
  --------------------------
    NSO        =      1938
    NMO        =      1900
    NRI        =      6901
    NRI (Elst) =      8531
    NOCC A     =        21
    NOCC B     =       300
    FOCC A     =         5
    FOCC B     =        96
    NVIR A     =      1879
    NVIR B     =      1600

    Elst10,r            =     0.008856848025 [Eh]
    Exch10              =     0.000000044738 [Eh]
    Exch10 (S^2)        =     0.000000044742 [Eh]

    Iter     Energy [mEh]          dE [mEh]         Residual      Time [s]
       1      -0.00418081       0.004180805       0.460188199           243
       2      -0.00487522       0.000694418       0.240065519           501
       3      -0.00516874       0.000293514       0.043496135           750
       4      -0.00516772      -0.000001016       0.009487706          1012
       5      -0.00516052      -0.000007197       0.001368771          1243
       6      -0.00516163       0.000001110       0.000312307          1481
       7      -0.00516163      -0.000000003       0.000105649          1717
       8      -0.00516159      -0.000000038       0.000021984          1945
       9      -0.00516159      -0.000000003       0.000003378          2195
      10      -0.00516159       0.000000001       0.000000742          2461

    CHF Iterations converged


    Iter     Energy [mEh]          dE [mEh]         Residual      Time [s]
       1      -6.13383493       6.133834928      43.056475056           278
       2      -3.93051089      -2.203324035       5.094413583           548
       3      -3.90986833      -0.020642565       1.695601131           829
       4      -3.97998749       0.070119164       0.534555747          1093
       5      -3.98946563       0.009478137       0.183405483          1332
       6      -3.98857050      -0.000895124       0.119804684          1645
       7      -3.98658764      -0.001982860       0.049515077          1901
       8      -3.98671663       0.000128989       0.023909622          2377
       9      -3.98710917       0.000392539       0.012978961          2859
      10      -3.98704572      -0.000063456       0.012703066          3461
      11      -3.98696077      -0.000084945       0.005743607          4115
      12      -3.98696666       0.000005887       0.002607206          4647
      13      -3.98698323       0.000016567       0.000969738          5130
      14      -3.98698727       0.000004046       0.000330283          5627
      15      -3.98698550      -0.000001770       0.000197856          6092
      16      -3.98698358      -0.000001920       0.000115400          6475
      17      -3.98698447       0.000000888       0.000062202          6819
      18      -3.98698482       0.000000351       0.000020987          7195
      19      -3.98698466      -0.000000159       0.000010237          7528
      20      -3.98698462      -0.000000040       0.000004431          7879
      21      -3.98698464       0.000000019       0.000002263          8243
      22      -3.98698465       0.000000011       0.000001154          8578
      23      -3.98698465      -0.000000002       0.000000486          8939

    CHF Iterations converged

    Ind20,r (A<-B)      =    -0.000005161592 [Eh]
    Ind20,r (B<-A)      =    -0.003986984650 [Eh]
    Ind20,r             =    -0.003992146242 [Eh]
    Exch-Ind20,r (A<-B) =     0.000000267592 [Eh]
    Exch-Ind20,r (B<-A) =     0.000001370736 [Eh]
    Exch-Ind20,r        =     0.000001638328 [Eh]
    Disp20              =    -0.000682929835 [Eh]
    Disp20 (SS)         =    -0.000341464917 [Eh]
    Disp20 (OS)         =    -0.000341464917 [Eh]
    Exch-Disp20         =     0.000000906476 [Eh]
    Exch-Disp20 (SS)    =     0.000000693067 [Eh]
    Exch-Disp20 (OS)    =     0.000000213409 [Eh]

    SAPT Results 
  --------------------------------------------------------------------------------------------------------
    Electrostatics                  8.85684802 [mEh]       5.55775604 [kcal/mol]      23.25365128 [kJ/mol]
      Elst10,r                      8.85684802 [mEh]       5.55775604 [kcal/mol]      23.25365128 [kJ/mol]

    Exchange                        0.00004474 [mEh]       0.00002807 [kcal/mol]       0.00011746 [kJ/mol]
      Exch10                        0.00004474 [mEh]       0.00002807 [kcal/mol]       0.00011746 [kJ/mol]
      Exch10(S^2)                   0.00004474 [mEh]       0.00002808 [kcal/mol]       0.00011747 [kJ/mol]

    Induction                      -3.96692899 [mEh]      -2.48928552 [kcal/mol]     -10.41517063 [kJ/mol]
      Ind20,r                      -3.99214624 [mEh]      -2.50510959 [kcal/mol]     -10.48137851 [kJ/mol]
      Exch-Ind20,r                  0.00163833 [mEh]       0.00102807 [kcal/mol]       0.00430143 [kJ/mol]
      delta HF,r (2)                0.02357892 [mEh]       0.01479600 [kcal/mol]       0.06190646 [kJ/mol]

    Dispersion                     -0.68202336 [mEh]      -0.42797612 [kcal/mol]      -1.79065208 [kJ/mol]
      Disp20                       -0.68292983 [mEh]      -0.42854494 [kcal/mol]      -1.79303203 [kJ/mol]
      Exch-Disp20                   0.00090648 [mEh]       0.00056882 [kcal/mol]       0.00237995 [kJ/mol]
      Disp20 (SS)                  -0.34146492 [mEh]      -0.21427247 [kcal/mol]      -0.89651602 [kJ/mol]
      Disp20 (OS)                  -0.34146492 [mEh]      -0.21427247 [kcal/mol]      -0.89651602 [kJ/mol]
      Exch-Disp20 (SS)              0.00069307 [mEh]       0.00043491 [kcal/mol]       0.00181965 [kJ/mol]
      Exch-Disp20 (OS)              0.00021341 [mEh]       0.00013392 [kcal/mol]       0.00056031 [kJ/mol]

  Total HF                          4.88996377 [mEh]       3.06849859 [kcal/mol]      12.83859812 [kJ/mol]
  Total SAPT0                       4.20794041 [mEh]       2.64052247 [kcal/mol]      11.04794603 [kJ/mol]

  Special recipe for scaled SAPT0 (see Manual):
    Electrostatics sSAPT0           8.85684802 [mEh]       5.55775604 [kcal/mol]      23.25365128 [kJ/mol]
    Exchange sSAPT0                 0.00004474 [mEh]       0.00002807 [kcal/mol]       0.00011746 [kJ/mol]
    Induction sSAPT0               -3.96692899 [mEh]      -2.48928552 [kcal/mol]     -10.41517063 [kJ/mol]
    Dispersion sSAPT0              -0.68202336 [mEh]      -0.42797612 [kcal/mol]      -1.79065208 [kJ/mol]
  Total sSAPT0                      4.20794041 [mEh]       2.64052247 [kcal/mol]      11.04794603 [kJ/mol]
  --------------------------------------------------------------------------------------------------------

*** tstop() called on n2cn1134 at Thu Jan 25 23:27:37 2024
Module time:
	user time   =   65682.21 seconds =    1094.70 minutes
	system time =    3860.65 seconds =      64.34 minutes
	total time  =      37708 seconds =     628.47 minutes
Total time:
	user time   =  111681.90 seconds =    1861.37 minutes
	system time =    6791.25 seconds =     113.19 minutes
	total time  =      67591 seconds =    1126.52 minutes

    Psi4 stopped on: Thursday, 25 January 2024 11:27PM
    Psi4 wall time for execution: 18:46:32.36

*** Psi4 exiting successfully. Buy a developer a beer!
