
    -----------------------------------------------------------------------
          Psi4: An Open-Source Ab Initio Electronic Structure Package
                               Psi4 1.9 release

                         Git: Rev {} zzzzzzz 


    D. G. A. Smith, L. A. Burns, A. C. Simmonett, R. M. Parrish,
    M. C. Schieber, R. Galvelis, P. Kraus, H. Kruse, R. Di Remigio,
    A. Alenaizan, A. M. James, S. Lehtola, J. P. Misiewicz, M. Scheurer,
    R. A. Shaw, J. B. Schriber, Y. Xie, Z. L. Glick, D. A. Sirianni,
    J. S. O'Brien, J. M. Waldrop, A. Kumar, E. G. Hohenstein,
    B. P. Pritchard, B. R. Brooks, H. F. Schaefer III, A. Yu. Sokolov,
    K. Patkowski, A. E. DePrince III, U. Bozkaya, R. A. King,
    F. A. Evangelista, J. M. Turney, T. D. Crawford, C. D. Sherrill,
    J. Chem. Phys. 152(18) 184108 (2020). https://doi.org/10.1063/5.0006002

                            Additional Code Authors
    E. T. Seidl, C. L. Janssen, E. F. Valeev, M. L. Leininger,
    J. F. Gonthier, R. M. Richard, H. R. McAlexander, M. Saitow, X. Wang,
    P. Verma, M. H. Lechner, A. Jiang, S. Behnle, A. G. Heide,
    M. F. Herbst, and D. L. Poole

             Previous Authors, Complete List of Code Contributors,
                       and Citations for Specific Modules
    https://github.com/psi4/psi4/blob/master/codemeta.json
    https://github.com/psi4/psi4/graphs/contributors
    http://psicode.org/psi4manual/master/introduction.html#citing-psifour

    -----------------------------------------------------------------------


    Psi4 started on: Wednesday, 07 February 2024 07:54PM

    Process ID: 1147807
    Host:       n2cn0173
    PSIDATADIR: /opt/software/pc2/EB-SW/software/PSI4/1.9-foss-2022a/share/psi4
    Memory:     500.0 MiB
    Threads:    16
    
  ==> Input File <==

--------------------------------------------------------------------------
memory 80 GB # how much memory is available ! Depends on the nodes/cores !

molecule dimer {
# monomer A
-1 1    # Charge and multiplicity
B -0.000046  0.000337 3.299994
F -1.153597  0.000048 4.115641
F  1.153661 -0.000581 4.115641
F -0.000019 -1.153637 2.484360
F -0.000019  1.153978 2.484360
--
# monomer B
0 1     # Charge and multiplicity
C   -3.66844126402057      7.80375217008252      0.00190004133558
C   -4.84759871934653      7.13124183134024     -0.00046653359696
C   -4.89495929917518      5.69633040353158     -0.00103944469517
C   -3.65374067877320      4.98073034095895      0.00662099703436
C   -2.40942512149445      7.11398103667468      0.00209438359570
C   -2.42547734410473      5.68112195090346     -0.00491050527438
C   -1.19474401643570      7.78614419430947      0.00356656413763
C   0.03795902893699      7.09942164575698      0.00139585983271
C   0.03033258741920      5.66948955970466     -0.00408752508301
C   -1.20098450790502      4.96927034791531      0.00488220885047
C   1.27795782581485      7.77285944319479      0.00277170839332
C   2.48535808472416      7.08769688523756      0.00049722048857
C   2.48612868491717      5.65477081024076     -0.00644052849921
C   1.25408291964399      4.95607811366431      0.00518741308898
C   3.75171459140595      7.76391215098033      0.00062407186893
C   4.92356605618520      7.07878077698995     -0.00143240883900
C   4.95560727132542      5.64344746336949     -0.00159282164606
C   3.70680153420475      4.94121020833308      0.00349873852374
H   -3.65852113775815      8.89082741913536      0.00358502958574
H   -1.18921332975660      8.87412108735996      0.00753844057883
H   1.28429423888630      8.86083343548850      0.00693053253426
H   3.75354208679975      8.85103527897216      0.00214659618464
H   5.86995870320703      7.61379483465560     -0.00235777588134
H   -5.78823170750226      7.67630221293400     -0.00202638095293
C   -6.09197395869619      4.99326001364347     -0.00291168518608
C   -6.12866148031747      3.58258016879823     -0.00171050815740
C   -3.66457974004527      3.56418217974434     -0.00463560277484
C   -4.89429820469869      2.86108077590057      0.00453338221034
C   -2.43733499489796      2.84761165708481      0.00719617576166
C   -1.20922785759670      3.54788693497833     -0.00648285103018
C   1.24714157216223      3.53468075142962     -0.00729145743546
C   0.01517603956900      2.83311183930540      0.00439272578912
C   2.46764517244071      2.82128997725533      0.00449278391269
C   3.70254947457969      3.52466015442405     -0.00899517692985
C   6.14498038638375      4.92757236613191     -0.00282626685777
C   6.16658835886151      3.51658447594213     -0.00065971342101
C   4.92460995845939      2.80840792535402      0.00587903281610
H   7.08990550964105      5.46688776622306     -0.00658814770723
H   -7.03104175110130      5.54268795285765     -0.00714490013730
C   -7.33969804112295      2.85841153457957     -0.00333767559888
C   -7.36488195805880      1.47032337158330     -0.00157213747140
C   -4.90350460894690      1.44442681216000     -0.00628840166334
C   -6.13225715261081      0.73993935705394      0.00600164231964
C   -3.67687480051673      0.72669714267312      0.00433931473643
C   -2.44565658606518      1.42964113326212     -0.00597039546461
C   -1.22360068130162      0.71532450163492      0.00545886906656
C   0.00763786931376      1.41738314923765      0.00392452278437
C   1.23121980774686      0.70211669058719     -0.01490206287210
C   2.46082110053113      1.40329203612573      0.00460244601878
C   3.68443025419614      0.68719842821222      0.00377365974158
C   4.91870890153864      1.39173456118907     -0.00862816189375
C   7.36980207796101      2.77948220318441     -0.00242013321349
C   7.38016266612146      1.39121750785509     -0.00087345036788
C   6.13979953912259      0.67411862320065      0.00545489144369
H   -8.27919079934664      3.40711804112415     -0.00763522772059
H   8.31511347147953      3.31811809662368     -0.00663070901292
C   -8.59175593758115      0.72483255304480     -0.00123170985383
C   -8.59902460370342     -0.63263980622873      0.00089141472904
C   -6.13981313911873     -0.67413663715361     -0.00609792660607
C   -7.38018411213749     -1.39126618958160      0.00131813493501
C   -4.91868448025621     -1.39175501803000      0.00624257154343
C   -3.68443829568458     -0.68723731573599     -0.00478966852105
C   -2.46081704024768     -1.40334517882457      0.00575341766833
C   -1.23116201232071     -0.70217386488055     -0.00636696112346
C   -0.00756962538737     -1.41741884941102      0.00108956317991
C   1.22364771588843     -0.71527537726392      0.01109518512883
C   2.44567064933149     -1.42964328900682     -0.00065482763106
C   3.67686670284649     -0.72670743155550     -0.00479541202602
C   6.13224884641929     -0.73997883984993     -0.00632338623858
C   4.90351914550401     -1.44445752054090      0.00751768830159
C   8.59901484869081      0.63260386666793     -0.00101133422380
C   8.59174548810050     -0.72485086719319      0.00072504603735
C   7.36486276438985     -1.47033266560598      0.00049486934466
H   -9.52830597181814      1.27684744919284     -0.00270163681798
H   9.54141097460619      1.17457248844457     -0.00206336648518
C   -7.36983790976868     -2.77954514593389      0.00312634335708
C   -4.92459910905015     -2.80843725734101     -0.00460528907921
C   -6.16662249566744     -3.51665219282533      0.00169655107992
C   -3.70251035970491     -3.52468154912026      0.00571878010666
C   -2.46764698511392     -2.82132596280400     -0.00632585824990
C   -0.01513347410770     -2.83314164539971     -0.00604426974092
C   -1.24712184122656     -3.53473217556300      0.00551968366725
C   1.20924506964357     -3.54791467864352      0.00805871345849
C   2.43733602215464     -2.84764173817541     -0.00608104485234
C   4.89430234377080     -2.86112296828604     -0.00526030478103
C   3.66461525504104     -3.56421984553201      0.00761911515957
C   6.12863901474565     -3.58258405771778      0.00096495711699
C   7.33967266469532     -2.85841330737039      0.00248018319869
H   -9.54144911125902     -1.17456346666430      0.00226083090216
H   9.52826186807155     -1.27691907390448      0.00197485379837
H   -8.31516504384864     -3.31814985321231      0.00729857188773
H   8.27915514249207     -3.40714078989363      0.00681973918158
C   -6.14499418870218     -4.92764727278338      0.00302254913999
C   -3.70678334799751     -4.94126171411716     -0.00679841894792
C   -4.95559005800169     -5.64349397349412      0.00116871569699
C   -2.48612132622665     -5.65478557440947      0.00614125209662
C   -1.25405833548005     -4.95612205000132     -0.00503435388927
C   1.20101257386816     -4.96928038819302     -0.00385322963129
C   -0.03033667441341     -5.66952030313900      0.00398997003238
C   3.65375010132847     -4.98074377541453     -0.00309522988330
C   2.42549269587528     -5.68117463552727      0.00628170066869
C   6.09196561781097     -4.99325796338655      0.00325918379042
C   4.89497644461045     -5.69634842095790      0.00202298796027
H   -7.08989238804069     -5.46699984223871      0.00742531082125
H   7.03105520920009     -5.54265853633254      0.00683896355417
C   -4.92354532219813     -7.07882109967734      0.00061394679214
C   -2.48534208823777     -7.08772807792913     -0.00189594564379
C   -3.75168589177895     -7.76394715763627     -0.00170126671874
C   -0.03794895698805     -7.09946487446944     -0.00168022049625
C   -1.27795610040136     -7.77290438466689     -0.00366491325785
C   2.40944432072629     -7.11402201200282     -0.00081701968533
C   1.19474993715296     -7.78618536556242     -0.00296931056689
C   4.84762105249800     -7.13126211057943      0.00168979497423
C   3.66847160587561     -7.80378799294376     -0.00065863938960
H   -5.86994035041618     -7.61383059804164      0.00215798365757
H   5.78824962538815     -7.67633218931421      0.00281691445618
H   -3.75352693944918     -8.85107156923607     -0.00353718114765
H   -1.28430440589466     -8.86087539249706     -0.00809229711623
H   1.18922157469537     -8.87416062058945     -0.00706194725726
H   3.65854661482387     -8.89086063405326     -0.00231318081200

    units angstrom      # Angstroms are the default
    no_reorient         # Geometry fixed, default
    symmetry c1         # C1 symmetry, default
}

set {
    scf_type DF         # Density fitting, faster than exact integrals
    freeze_core True    # Freeze core electrons
    basis jun-cc-pVDZ   # Jun-cc-pVDZ basis set, recommended for sSAPT0 in https://doi.org/10.1063/1.4867135
}

energy('ssapt0')        # Compute sSAPT0 energy, includes also SAPT0
--------------------------------------------------------------------------

  Memory set to  74.506 GiB by Python driver.

Scratch directory: /tmp/
   => Loading Basis Set <=

    Name: JUN-CC-PVDZ
    Role: ORBITAL
    Keyword: BASIS
    atoms 1                                                   entry B          line   130 file /opt/software/pc2/EB-SW/software/PSI4/1.9-foss-2022a/share/psi4/basis/jun-cc-pvdz.gbs 
    atoms 2-5                                                 entry F          line   266 file /opt/software/pc2/EB-SW/software/PSI4/1.9-foss-2022a/share/psi4/basis/jun-cc-pvdz.gbs 
    atoms 6-23, 30-42, 45-59, 62-78, 81-93, 98-108, 111-119   entry C          line   164 file /opt/software/pc2/EB-SW/software/PSI4/1.9-foss-2022a/share/psi4/basis/jun-cc-pvdz.gbs 
    atoms 24-29, 43-44, 60-61, 79-80, 94-97, 109-110, 120-125 entry H          line    36 file /opt/software/pc2/EB-SW/software/PSI4/1.9-foss-2022a/share/psi4/basis/jun-cc-pvdz.gbs 

   => Loading Basis Set <=

    Name: JUN-CC-PVDZ
    Role: ORBITAL
    Keyword: BASIS
    atoms 1                                                   entry B          line   130 file /opt/software/pc2/EB-SW/software/PSI4/1.9-foss-2022a/share/psi4/basis/jun-cc-pvdz.gbs 
    atoms 2-5                                                 entry F          line   266 file /opt/software/pc2/EB-SW/software/PSI4/1.9-foss-2022a/share/psi4/basis/jun-cc-pvdz.gbs 
    atoms 6-23, 30-42, 45-59, 62-78, 81-93, 98-108, 111-119   entry C          line   164 file /opt/software/pc2/EB-SW/software/PSI4/1.9-foss-2022a/share/psi4/basis/jun-cc-pvdz.gbs 
    atoms 24-29, 43-44, 60-61, 79-80, 94-97, 109-110, 120-125 entry H          line    36 file /opt/software/pc2/EB-SW/software/PSI4/1.9-foss-2022a/share/psi4/basis/jun-cc-pvdz.gbs 


  //>>>>>>>>>>>>>>>>>>>>>>>>>>>>>>>>>>>//
  //              Dimer HF             //
  //<<<<<<<<<<<<<<<<<<<<<<<<<<<<<<<<<<<//

   => Libint2 <=

    Primary   basis highest AM E, G, H:  5, 4, 3
    Auxiliary basis highest AM E, G, H:  6, 5, 4
    Onebody   basis highest AM E, G, H:  6, 5, 4
    Solid Harmonics ordering:            gaussian

*** tstart() called on n2cn0173
*** at Wed Feb  7 19:55:17 2024

   => Loading Basis Set <=

    Name: JUN-CC-PVDZ
    Role: ORBITAL
    Keyword: BASIS
    atoms 1                                                   entry B          line   130 file /opt/software/pc2/EB-SW/software/PSI4/1.9-foss-2022a/share/psi4/basis/jun-cc-pvdz.gbs 
    atoms 2-5                                                 entry F          line   266 file /opt/software/pc2/EB-SW/software/PSI4/1.9-foss-2022a/share/psi4/basis/jun-cc-pvdz.gbs 
    atoms 6-23, 30-42, 45-59, 62-78, 81-93, 98-108, 111-119   entry C          line   164 file /opt/software/pc2/EB-SW/software/PSI4/1.9-foss-2022a/share/psi4/basis/jun-cc-pvdz.gbs 
    atoms 24-29, 43-44, 60-61, 79-80, 94-97, 109-110, 120-125 entry H          line    36 file /opt/software/pc2/EB-SW/software/PSI4/1.9-foss-2022a/share/psi4/basis/jun-cc-pvdz.gbs 


         ---------------------------------------------------------
                                   SCF
               by Justin Turney, Rob Parrish, Andy Simmonett
                          and Daniel G. A. Smith
                              RHF Reference
                       16 Threads,  76293 MiB Core
         ---------------------------------------------------------

  ==> Geometry <==

    Molecular point group: c1
    Full point group: C1

    Geometry (in Angstrom), charge = -1, multiplicity = 1:

       Center              X                  Y                   Z               Mass       
    ------------   -----------------  -----------------  -----------------  -----------------
         B           -0.000050191042     0.000351518223     3.072701681333    11.009305360000
         F           -1.153601191042     0.000062518223     3.888348681333    18.998403162730
         F            1.153656808958    -0.000566481777     3.888348681333    18.998403162730
         F           -0.000023191042    -1.153622481777     2.257067681333    18.998403162730
         F           -0.000023191042     1.153992518223     2.257067681333    18.998403162730
         C           -3.668445455062     7.803766688305    -0.225392277331    12.000000000000
         C           -4.847602910388     7.131256349563    -0.227758852264    12.000000000000
         C           -4.894963490217     5.696344921754    -0.228331763362    12.000000000000
         C           -3.653744869815     4.980744859182    -0.220671321632    12.000000000000
         C           -2.409429312536     7.113995554897    -0.225197935071    12.000000000000
         C           -2.425481535146     5.681136469126    -0.232202823941    12.000000000000
         C           -1.194748207477     7.786158712532    -0.223725754529    12.000000000000
         C            0.037954837895     7.099436163980    -0.225896458834    12.000000000000
         C            0.030328396378     5.669504077927    -0.231379843750    12.000000000000
         C           -1.200988698947     4.969284866138    -0.222410109816    12.000000000000
         C            1.277953634773     7.772873961417    -0.224520610273    12.000000000000
         C            2.485353893683     7.087711403460    -0.226795098178    12.000000000000
         C            2.486124493876     5.654785328463    -0.233732847166    12.000000000000
         C            1.254078728602     4.956092631887    -0.222104905578    12.000000000000
         C            3.751710400364     7.763926669203    -0.226668246798    12.000000000000
         C            4.923561865144     7.078795295213    -0.228724727506    12.000000000000
         C            4.955603080284     5.643461981592    -0.228885140313    12.000000000000
         C            3.706797343163     4.941224726556    -0.223793580143    12.000000000000
         H           -3.658525328800     8.890841937358    -0.223707289081     1.007825032230
         H           -1.189217520798     8.874135605583    -0.219753878088     1.007825032230
         H            1.284290047845     8.860847953711    -0.220361786133     1.007825032230
         H            3.753537895758     8.851049797195    -0.225145722482     1.007825032230
         H            5.869954512165     7.613809352878    -0.229650094548     1.007825032230
         H           -5.788235898544     7.676316731157    -0.229318699620     1.007825032230
         C           -6.091978149738     4.993274531866    -0.230204003853    12.000000000000
         C           -6.128665671359     3.582594687021    -0.229002826824    12.000000000000
         C           -3.664583931087     3.564196697967    -0.231927921442    12.000000000000
         C           -4.894302395740     2.861095294123    -0.222758936456    12.000000000000
         C           -2.437339185940     2.847626175307    -0.220096142905    12.000000000000
         C           -1.209232048638     3.547901453201    -0.233775169697    12.000000000000
         C            1.247137381121     3.534695269652    -0.234583776102    12.000000000000
         C            0.015171848527     2.833126357528    -0.222899592878    12.000000000000
         C            2.467640981399     2.821304495478    -0.222799534754    12.000000000000
         C            3.702545283538     3.524674672647    -0.236287495597    12.000000000000
         C            6.144976195342     4.927586884354    -0.230118585525    12.000000000000
         C            6.166584167820     3.516598994165    -0.227952032088    12.000000000000
         C            4.924605767418     2.808422443577    -0.221413285851    12.000000000000
         H            7.089901318599     5.466902284446    -0.233880466374     1.007825032230
         H           -7.031045942143     5.542702471080    -0.234437218804     1.007825032230
         C           -7.339702232165     2.858426052802    -0.230629994266    12.000000000000
         C           -7.364886149100     1.470337889806    -0.228864456138    12.000000000000
         C           -4.903508799989     1.444441330383    -0.233580720330    12.000000000000
         C           -6.132261343652     0.739953875277    -0.221290676347    12.000000000000
         C           -3.676878991558     0.726711660896    -0.222953003930    12.000000000000
         C           -2.445660777107     1.429655651485    -0.233262714131    12.000000000000
         C           -1.223604872343     0.715339019858    -0.221833449600    12.000000000000
         C            0.007633678272     1.417397667460    -0.223367795882    12.000000000000
         C            1.231215616705     0.702131208810    -0.242194381539    12.000000000000
         C            2.460816909489     1.403306554348    -0.222689872648    12.000000000000
         C            3.684426063155     0.687212946435    -0.223518658925    12.000000000000
         C            4.918704710497     1.391749079412    -0.235920480561    12.000000000000
         C            7.369797886919     2.779496721407    -0.229712451880    12.000000000000
         C            7.380158475080     1.391232026078    -0.228165769035    12.000000000000
         C            6.139795348081     0.674133141423    -0.221837427223    12.000000000000
         H           -8.279194990388     3.407132559347    -0.234927546387     1.007825032230
         H            8.315109280438     3.318132614846    -0.233923027680     1.007825032230
         C           -8.591760128623     0.724847071267    -0.228524028521    12.000000000000
         C           -8.599028794745    -0.632625288006    -0.226400903938    12.000000000000
         C           -6.139817330160    -0.674122118931    -0.233390245273    12.000000000000
         C           -7.380188303179    -1.391251671359    -0.225974183732    12.000000000000
         C           -4.918688671298    -1.391740499807    -0.221049747123    12.000000000000
         C           -3.684442486726    -0.687222797513    -0.232081987188    12.000000000000
         C           -2.460821231289    -1.403330660602    -0.221538900998    12.000000000000
         C           -1.231166203362    -0.702159346658    -0.233659279790    12.000000000000
         C           -0.007573816429    -1.417404331188    -0.226202755487    12.000000000000
         C            1.223643524847    -0.715260859041    -0.216197133538    12.000000000000
         C            2.445666458290    -1.429628770784    -0.227947146298    12.000000000000
         C            3.676862511805    -0.726692913333    -0.232087730693    12.000000000000
         C            6.132244655378    -0.739964321627    -0.233615704905    12.000000000000
         C            4.903514954462    -1.444443002318    -0.219774630365    12.000000000000
         C            8.599010657649     0.632618384891    -0.228303652891    12.000000000000
         C            8.591741297059    -0.724836348971    -0.226567272629    12.000000000000
         C            7.364858573348    -1.470318147383    -0.226797449322    12.000000000000
         H           -9.528310162860     1.276861967415    -0.229993955485     1.007825032230
         H            9.541406783565     1.174587006667    -0.229355685152     1.007825032230
         C           -7.369842100810    -2.779530627711    -0.224165975310    12.000000000000
         C           -4.924603300092    -2.808422739118    -0.231897607746    12.000000000000
         C           -6.166626686709    -3.516637674603    -0.225595767587    12.000000000000
         C           -3.702514550747    -3.524667030898    -0.221573538560    12.000000000000
         C           -2.467651176156    -2.821311444581    -0.233618176917    12.000000000000
         C           -0.015137665149    -2.833127127177    -0.233336588408    12.000000000000
         C           -1.247126032268    -3.534717657340    -0.221772635000    12.000000000000
         C            1.209240878602    -3.547900160421    -0.219233605208    12.000000000000
         C            2.437331831113    -2.847627219953    -0.233373363519    12.000000000000
         C            4.894298152729    -2.861108450063    -0.232552623448    12.000000000000
         C            3.664611063999    -3.564205327309    -0.219673203507    12.000000000000
         C            6.128634823704    -3.582569539495    -0.226327361550    12.000000000000
         C            7.339668473654    -2.858398789148    -0.224812135468    12.000000000000
         H           -9.541453302301    -1.174548948442    -0.225031487765     1.007825032230
         H            9.528257677030    -1.276904555682    -0.225317464868     1.007825032230
         H           -8.315169234890    -3.318135334990    -0.219993746779     1.007825032230
         H            8.279150951450    -3.407126271671    -0.220472579485     1.007825032230
         C           -6.144998379744    -4.927632754561    -0.224269769527    12.000000000000
         C           -3.706787539039    -4.941247195895    -0.234090737615    12.000000000000
         C           -4.955594249043    -5.643479455272    -0.226123602970    12.000000000000
         C           -2.486125517268    -5.654771056187    -0.221151066570    12.000000000000
         C           -1.254062526522    -4.956107531779    -0.232326672556    12.000000000000
         C            1.201008382827    -4.969265869970    -0.231145548298    12.000000000000
         C           -0.030340865455    -5.669505784916    -0.223302348634    12.000000000000
         C            3.653745910287    -4.980729257192    -0.230387548550    12.000000000000
         C            2.425488504834    -5.681160117305    -0.221010617998    12.000000000000
         C            6.091961426769    -4.993243445164    -0.224033134876    12.000000000000
         C            4.894972253569    -5.696333902735    -0.225269330707    12.000000000000
         H           -7.089896579082    -5.466985324016    -0.219867007846     1.007825032230
         H            7.031051018158    -5.542644018110    -0.220453355113     1.007825032230
         C           -4.923549513240    -7.078806581455    -0.226678371875    12.000000000000
         C           -2.485346279279    -7.087713559707    -0.229188264311    12.000000000000
         C           -3.751690082821    -7.763932639414    -0.228993585386    12.000000000000
         C           -0.037953148030    -7.099450356247    -0.228972539163    12.000000000000
         C           -1.277960291443    -7.772889866444    -0.230957231925    12.000000000000
         C            2.409440129685    -7.114007493780    -0.228109338352    12.000000000000
         C            1.194745746111    -7.786170847340    -0.230261629234    12.000000000000
         C            4.847616861456    -7.131247592357    -0.225602523693    12.000000000000
         C            3.668467414834    -7.803773474721    -0.227950958056    12.000000000000
         H           -5.869944541458    -7.613816079819    -0.225134335009     1.007825032230
         H            5.788245434347    -7.676317671092    -0.224475404211     1.007825032230
         H           -3.753531130491    -8.851057051013    -0.230829499814     1.007825032230
         H           -1.284308596936    -8.860860874274    -0.235384615783     1.007825032230
         H            1.189217383654    -8.874146102367    -0.234354265924     1.007825032230
         H            3.658542423782    -8.890846115831    -0.229605499479     1.007825032230

  Running in c1 symmetry.

  Rotational constants: A =      0.00068  B =      0.00068  C =      0.00035 [cm^-1]
  Rotational constants: A =     20.31300  B =     20.30948  C =     10.55117 [MHz]
  Nuclear repulsion = 17794.319856761510891

  Charge       = -1
  Multiplicity = 1
  Electrons    = 642
  Nalpha       = 321
  Nbeta        = 321

  ==> Algorithm <==

  SCF Algorithm Type is DF.
  DIIS enabled.
  MOM disabled.
  Fractional occupation disabled.
  Guess Type is SAD.
  Energy threshold   = 1.00e-08
  Density threshold  = 1.00e-08
  Integral threshold = 1.00e-12

  ==> Primary Basis <==

  Basis Set: JUN-CC-PVDZ
    Blend: JUN-CC-PVDZ
    Number of shells: 880
    Number of basis functions: 1938
    Number of Cartesian functions: 2039
    Spherical Harmonics?: true
    Max angular momentum: 2

   => Loading Basis Set <=

    Name: (JUN-CC-PVDZ AUX)
    Role: JKFIT
    Keyword: DF_BASIS_SCF
    atoms 1                                                   entry B          line    90 file /opt/software/pc2/EB-SW/software/PSI4/1.9-foss-2022a/share/psi4/basis/jun-cc-pvdz-jkfit.gbs 
    atoms 2-5                                                 entry F          line   314 file /opt/software/pc2/EB-SW/software/PSI4/1.9-foss-2022a/share/psi4/basis/jun-cc-pvdz-jkfit.gbs 
    atoms 6-23, 30-42, 45-59, 62-78, 81-93, 98-108, 111-119   entry C          line   146 file /opt/software/pc2/EB-SW/software/PSI4/1.9-foss-2022a/share/psi4/basis/jun-cc-pvdz-jkfit.gbs 
    atoms 24-29, 43-44, 60-61, 79-80, 94-97, 109-110, 120-125 entry H          line    70 file /opt/software/pc2/EB-SW/software/PSI4/1.9-foss-2022a/share/psi4/basis/jun-cc-pvdz-jkfit.gbs 

  ==> Integral Setup <==

  ==> DiskDFJK: Density-Fitted J/K Matrices <==

    J tasked:                  Yes
    K tasked:                  Yes
    wK tasked:                  No
    OpenMP threads:             16
    Integrals threads:          16
    Memory [MiB]:            57220
    Algorithm:                Disk
    Integral Cache:           SAVE
    Schwarz Cutoff:          1E-12
    Fitting Condition:       1E-10

   => Auxiliary Basis Set <=

  Basis Set: (JUN-CC-PVDZ AUX)
    Blend: JUN-CC-PVDZ-JKFIT
    Number of shells: 2943
    Number of basis functions: 8531
    Number of Cartesian functions: 9791
    Spherical Harmonics?: true
    Max angular momentum: 3

  Minimum eigenvalue in the overlap matrix is 6.8663305049E-11.
  Reciprocal condition number of the overlap matrix is 2.8336903446E-12.
    Using canonical orthogonalization.
  Overall, 39 of 1938 possible MOs eliminated.


  ==> Pre-Iterations <==

  SCF Guess: Superposition of Atomic Densities via on-the-fly atomic UHF (no occupation information).

   -------------------------
    Irrep   Nso     Nmo    
   -------------------------
     A       1938    1899 
   -------------------------
    Total    1938    1899
   -------------------------

  ==> Iterations <==

                           Total Energy        Delta E     RMS |[F,P]|

   @DF-RHF iter SAD: -4085.31830914266266   -4.08532e+03   0.00000e+00 
   @DF-RHF iter   1: -4071.48699209906863    1.38313e+01   7.91890e-04 ADIIS/DIIS
   @DF-RHF iter   2: -4072.89599217798605   -1.40900e+00   3.13320e-04 ADIIS/DIIS
   @DF-RHF iter   3: -4073.06855154085770   -1.72559e-01   1.10699e-04 ADIIS/DIIS
   @DF-RHF iter   4: -4073.09341270456434   -2.48612e-02   4.72893e-05 DIIS
   @DF-RHF iter   5: -4073.09875578647552   -5.34308e-03   1.38953e-05 DIIS
   @DF-RHF iter   6: -4073.09938696821109   -6.31182e-04   4.98282e-06 DIIS
   @DF-RHF iter   7: -4073.09958389143321   -1.96923e-04   2.69435e-06 DIIS
   @DF-RHF iter   8: -4073.09965493228174   -7.10408e-05   1.27034e-06 DIIS
   @DF-RHF iter   9: -4073.09967806511122   -2.31328e-05   4.70509e-07 DIIS
   @DF-RHF iter  10: -4073.09967964069983   -1.57559e-06   1.84088e-07 DIIS
   @DF-RHF iter  11: -4073.09967988286917   -2.42169e-07   6.73466e-08 DIIS
   @DF-RHF iter  12: -4073.09967992299107   -4.01219e-08   3.70237e-08 DIIS
   @DF-RHF iter  13: -4073.09967993407690   -1.10858e-08   1.34646e-08 DIIS
   @DF-RHF iter  14: -4073.09967993540658   -1.32968e-09   6.68887e-09 DIIS
  Energy and wave function converged.


  ==> Post-Iterations <==

    Orbital Energies [Eh]
    ---------------------

    Doubly Occupied:                                                      

       1A    -26.106951     2A    -26.106723     3A    -26.092788  
       4A    -26.092746     5A    -11.195799     6A    -11.195792  
       7A    -11.195783     8A    -11.195770     9A    -11.195672  
      10A    -11.195667    11A    -11.195666    12A    -11.195657  
      13A    -11.195629    14A    -11.195624    15A    -11.195615  
      16A    -11.195610    17A    -11.194758    18A    -11.194754  
      19A    -11.194747    20A    -11.194740    21A    -11.194637  
      22A    -11.194620    23A    -11.192820    24A    -11.192811  
      25A    -11.192724    26A    -11.192722    27A    -11.192719  
      28A    -11.192715    29A    -11.191375    30A    -11.191371  
      31A    -11.191361    32A    -11.191353    33A    -11.191272  
      34A    -11.191270    35A    -11.191268    36A    -11.191262  
      37A    -11.191208    38A    -11.191188    39A    -11.191092  
      40A    -11.191050    41A    -11.191039    42A    -11.190975  
      43A    -11.190884    44A    -11.190835    45A    -11.190738  
      46A    -11.190708    47A    -11.190357    48A    -11.190326  
      49A    -11.190185    50A    -11.190155    51A    -11.189944  
      52A    -11.189906    53A    -11.189610    54A    -11.189582  
      55A    -11.189411    56A    -11.189360    57A    -11.189319  
      58A    -11.189272    59A    -11.189112    60A    -11.189084  
      61A    -11.189060    62A    -11.189034    63A    -11.188921  
      64A    -11.188916    65A    -11.187672    66A    -11.187628  
      67A    -11.187572    68A    -11.187554    69A    -11.187526  
      70A    -11.187521    71A    -11.187517    72A    -11.187462  
      73A    -11.187152    74A    -11.187140    75A    -11.187104  
      76A    -11.187081    77A    -11.186538    78A    -11.186519  
      79A    -11.185632    80A    -11.185618    81A    -11.185573  
      82A    -11.185546    83A    -11.185474    84A    -11.185449  
      85A    -11.184536    86A    -11.184501    87A    -11.184476  
      88A    -11.184464    89A    -11.182289    90A    -11.182276  
      91A    -11.182156    92A    -11.182107    93A    -11.180087  
      94A    -11.179998    95A    -11.178930    96A    -11.178745  
      97A    -11.177963    98A    -11.177468    99A    -11.176870  
     100A    -11.176606   101A     -7.571983   102A     -1.447154  
     103A     -1.395404   104A     -1.385082   105A     -1.376754  
     106A     -1.177408   107A     -1.166857   108A     -1.166481  
     109A     -1.150417   110A     -1.150331   111A     -1.139751  
     112A     -1.132751   113A     -1.126359   114A     -1.114686  
     115A     -1.114073   116A     -1.105917   117A     -1.105831  
     118A     -1.083446   119A     -1.083326   120A     -1.079066  
     121A     -1.077262   122A     -1.077243   123A     -1.058398  
     124A     -1.045447   125A     -1.044763   126A     -1.043003  
     127A     -1.039871   128A     -1.039466   129A     -1.018580  
     130A     -1.018386   131A     -1.009644   132A     -1.009573  
     133A     -0.996563   134A     -0.996497   135A     -0.992330  
     136A     -0.977761   137A     -0.977756   138A     -0.971360  
     139A     -0.971356   140A     -0.970989   141A     -0.953620  
     142A     -0.946591   143A     -0.946314   144A     -0.938816  
     145A     -0.936712   146A     -0.933779   147A     -0.929451  
     148A     -0.929289   149A     -0.924421   150A     -0.900339  
     151A     -0.900249   152A     -0.887512   153A     -0.887408  
     154A     -0.839433   155A     -0.839400   156A     -0.833084  
     157A     -0.833041   158A     -0.830036   159A     -0.819139  
     160A     -0.819129   161A     -0.818718   162A     -0.817597  
     163A     -0.817429   164A     -0.804726   165A     -0.804312  
     166A     -0.784281   167A     -0.776748   168A     -0.776723  
     169A     -0.773234   170A     -0.772690   171A     -0.765778  
     172A     -0.765719   173A     -0.761485   174A     -0.761436  
     175A     -0.718449   176A     -0.718423   177A     -0.712570  
     178A     -0.712497   179A     -0.710883   180A     -0.710810  
     181A     -0.710523   182A     -0.698332   183A     -0.688797  
     184A     -0.679207   185A     -0.667076   186A     -0.658242  
     187A     -0.658136   188A     -0.655710   189A     -0.655685  
     190A     -0.655443   191A     -0.645765   192A     -0.642757  
     193A     -0.642671   194A     -0.639931   195A     -0.631489  
     196A     -0.631463   197A     -0.618646   198A     -0.618579  
     199A     -0.614202   200A     -0.613955   201A     -0.613901  
     202A     -0.609641   203A     -0.585563   204A     -0.582603  
     205A     -0.582599   206A     -0.582290   207A     -0.578729  
     208A     -0.578675   209A     -0.572968   210A     -0.572305  
     211A     -0.571884   212A     -0.570409   213A     -0.569742  
     214A     -0.566081   215A     -0.566018   216A     -0.562966  
     217A     -0.560650   218A     -0.560144   219A     -0.548149  
     220A     -0.548094   221A     -0.541604   222A     -0.541368  
     223A     -0.541352   224A     -0.529380   225A     -0.528757  
     226A     -0.528613   227A     -0.528416   228A     -0.527937  
     229A     -0.527877   230A     -0.526892   231A     -0.526695  
     232A     -0.525834   233A     -0.521461   234A     -0.521373  
     235A     -0.519314   236A     -0.514755   237A     -0.512561  
     238A     -0.512522   239A     -0.506145   240A     -0.506005  
     241A     -0.505748   242A     -0.505357   243A     -0.499405  
     244A     -0.499347   245A     -0.495427   246A     -0.495380  
     247A     -0.495300   248A     -0.492378   249A     -0.488560  
     250A     -0.488459   251A     -0.484589   252A     -0.482907  
     253A     -0.482887   254A     -0.482744   255A     -0.475582  
     256A     -0.474965   257A     -0.465817   258A     -0.465793  
     259A     -0.462533   260A     -0.460525   261A     -0.460169  
     262A     -0.460117   263A     -0.455700   264A     -0.448270  
     265A     -0.448251   266A     -0.447114   267A     -0.447060  
     268A     -0.444438   269A     -0.443470   270A     -0.442617  
     271A     -0.442377   272A     -0.441322   273A     -0.429231  
     274A     -0.426751   275A     -0.426657   276A     -0.425784  
     277A     -0.422602   278A     -0.421237   279A     -0.416754  
     280A     -0.414329   281A     -0.413495   282A     -0.410677  
     283A     -0.410462   284A     -0.405736   285A     -0.404642  
     286A     -0.398353   287A     -0.396687   288A     -0.396589  
     289A     -0.388980   290A     -0.372716   291A     -0.372537  
     292A     -0.369422   293A     -0.368898   294A     -0.366439  
     295A     -0.366293   296A     -0.362245   297A     -0.337605  
     298A     -0.337202   299A     -0.319606   300A     -0.319150  
     301A     -0.314576   302A     -0.314535   303A     -0.307839  
     304A     -0.285308   305A     -0.284970   306A     -0.281165  
     307A     -0.266818   308A     -0.266752   309A     -0.262277  
     310A     -0.257259   311A     -0.252748   312A     -0.235721  
     313A     -0.231955   314A     -0.229295   315A     -0.228646  
     316A     -0.217573   317A     -0.192045   318A     -0.180794  
     319A     -0.178146   320A     -0.135156   321A     -0.134813  

    Virtual:                                                              

     322A      0.057110   323A      0.057399   324A      0.094802  
     325A      0.094862   326A      0.095446   327A      0.097164  
     328A      0.097284   329A      0.102518   330A      0.103135  
     331A      0.105039   332A      0.106478   333A      0.107016  
     334A      0.110544   335A      0.110549   336A      0.121868  
     337A      0.121891   338A      0.130838   339A      0.131819  
     340A      0.135196   341A      0.137604   342A      0.137727  
     343A      0.138673   344A      0.139779   345A      0.140972  
     346A      0.141155   347A      0.141478   348A      0.141630  
     349A      0.143008   350A      0.143170   351A      0.143201  
     352A      0.149184   353A      0.149456   354A      0.149724  
     355A      0.149908   356A      0.149938   357A      0.150552  
     358A      0.158320   359A      0.161890   360A      0.162173  
     361A      0.162437   362A      0.162564   363A      0.163775  
     364A      0.163875   365A      0.164679   366A      0.170785  
     367A      0.171745   368A      0.171791   369A      0.171977  
     370A      0.173149   371A      0.174481   372A      0.174903  
     373A      0.175479   374A      0.175790   375A      0.176887  
     376A      0.178583   377A      0.179503   378A      0.179912  
     379A      0.180004   380A      0.187962   381A      0.187998  
     382A      0.190137   383A      0.195556   384A      0.196229  
     385A      0.196415   386A      0.198610   387A      0.198622  
     388A      0.203139   389A      0.203590   390A      0.203790  
     391A      0.204622   392A      0.204738   393A      0.213350  
     394A      0.214928   395A      0.215449   396A      0.215741  
     397A      0.216245   398A      0.218026   399A      0.219766  
     400A      0.221331   401A      0.221848   402A      0.223010  
     403A      0.223525   404A      0.223600   405A      0.224250  
     406A      0.225913   407A      0.226042   408A      0.227326  
     409A      0.227444   410A      0.228657   411A      0.230487  
     412A      0.233769   413A      0.235076   414A      0.239429  
     415A      0.239471   416A      0.241956   417A      0.242661  
     418A      0.243233   419A      0.243272   420A      0.243594  
     421A      0.243652   422A      0.250405   423A      0.251433  
     424A      0.251973   425A      0.252775   426A      0.253698  
     427A      0.257021   428A      0.257677   429A      0.257840  
     430A      0.260322   431A      0.260496   432A      0.260686  
     433A      0.261720   434A      0.262987   435A      0.263682  
     436A      0.269196   437A      0.269530   438A      0.272066  
     439A      0.272222   440A      0.272337   441A      0.272439  
     442A      0.273370   443A      0.273816   444A      0.273951  
     445A      0.274267   446A      0.274947   447A      0.275765  
     448A      0.275888   449A      0.276237   450A      0.278035  
     451A      0.278207   452A      0.279764   453A      0.280108  
     454A      0.284371   455A      0.285053   456A      0.289691  
     457A      0.290420   458A      0.291380   459A      0.291926  
     460A      0.292003   461A      0.292136   462A      0.293301  
     463A      0.293509   464A      0.294536   465A      0.294705  
     466A      0.295803   467A      0.298122   468A      0.299217  
     469A      0.303002   470A      0.304645   471A      0.305719  
     472A      0.307536   473A      0.308703   474A      0.310200  
     475A      0.314699   476A      0.315219   477A      0.315791  
     478A      0.315924   479A      0.318680   480A      0.318997  
     481A      0.320531   482A      0.320787   483A      0.321517  
     484A      0.321750   485A      0.323832   486A      0.324568  
     487A      0.325330   488A      0.327581   489A      0.327906  
     490A      0.328961   491A      0.330260   492A      0.330390  
     493A      0.338306   494A      0.338337   495A      0.338887  
     496A      0.339016   497A      0.341121   498A      0.341911  
     499A      0.342222   500A      0.343350   501A      0.343560  
     502A      0.344146   503A      0.344545   504A      0.346580  
     505A      0.348294   506A      0.348766   507A      0.349980  
     508A      0.350102   509A      0.352949   510A      0.353463  
     511A      0.358347   512A      0.359164   513A      0.359967  
     514A      0.360174   515A      0.362718   516A      0.365445  
     517A      0.365979   518A      0.366081   519A      0.366975  
     520A      0.368065   521A      0.368085   522A      0.369548  
     523A      0.369811   524A      0.370802   525A      0.372021  
     526A      0.372948   527A      0.373225   528A      0.374824  
     529A      0.375047   530A      0.375162   531A      0.377334  
     532A      0.378821   533A      0.378995   534A      0.380023  
     535A      0.380936   536A      0.382401   537A      0.384793  
     538A      0.385038   539A      0.386055   540A      0.386456  
     541A      0.388661   542A      0.389121   543A      0.389390  
     544A      0.390440   545A      0.391175   546A      0.392462  
     547A      0.393809   548A      0.396125   549A      0.396303  
     550A      0.396380   551A      0.396790   552A      0.398212  
     553A      0.398515   554A      0.401522   555A      0.402497  
     556A      0.402626   557A      0.403782   558A      0.406749  
     559A      0.406881   560A      0.407089   561A      0.408918  
     562A      0.409521   563A      0.415556   564A      0.416048  
     565A      0.417731   566A      0.418671   567A      0.420662  
     568A      0.422461   569A      0.423223   570A      0.423715  
     571A      0.423983   572A      0.426037   573A      0.426292  
     574A      0.428710   575A      0.430781   576A      0.431178  
     577A      0.433737   578A      0.434702   579A      0.436924  
     580A      0.437217   581A      0.438357   582A      0.438925  
     583A      0.439349   584A      0.441054   585A      0.443367  
     586A      0.444359   587A      0.445062   588A      0.445947  
     589A      0.446848   590A      0.449869   591A      0.450138  
     592A      0.454332   593A      0.454757   594A      0.455649  
     595A      0.456277   596A      0.456510   597A      0.457637  
     598A      0.458055   599A      0.459288   600A      0.459397  
     601A      0.459646   602A      0.460493   603A      0.462415  
     604A      0.462802   605A      0.464093   606A      0.464669  
     607A      0.465015   608A      0.465689   609A      0.466366  
     610A      0.466611   611A      0.470116   612A      0.470428  
     613A      0.471289   614A      0.471769   615A      0.472317  
     616A      0.472922   617A      0.473242   618A      0.473606  
     619A      0.474324   620A      0.475566   621A      0.476020  
     622A      0.476608   623A      0.476805   624A      0.477201  
     625A      0.477728   626A      0.479224   627A      0.481626  
     628A      0.481936   629A      0.482149   630A      0.484059  
     631A      0.484767   632A      0.485185   633A      0.485471  
     634A      0.486988   635A      0.488292   636A      0.489703  
     637A      0.490372   638A      0.491549   639A      0.492443  
     640A      0.496384   641A      0.497392   642A      0.497618  
     643A      0.498489   644A      0.500005   645A      0.500684  
     646A      0.500743   647A      0.501235   648A      0.502724  
     649A      0.504064   650A      0.504526   651A      0.504655  
     652A      0.504845   653A      0.505553   654A      0.506447  
     655A      0.507745   656A      0.509668   657A      0.511275  
     658A      0.512077   659A      0.513038   660A      0.516405  
     661A      0.516590   662A      0.518081   663A      0.518313  
     664A      0.518556   665A      0.518748   666A      0.519029  
     667A      0.520743   668A      0.521854   669A      0.522017  
     670A      0.522863   671A      0.524908   672A      0.525226  
     673A      0.526870   674A      0.527155   675A      0.528061  
     676A      0.530161   677A      0.531221   678A      0.531752  
     679A      0.535970   680A      0.536634   681A      0.538516  
     682A      0.538732   683A      0.538927   684A      0.540438  
     685A      0.541094   686A      0.542781   687A      0.543579  
     688A      0.544639   689A      0.544993   690A      0.545523  
     691A      0.547355   692A      0.547666   693A      0.549453  
     694A      0.550122   695A      0.550387   696A      0.550749  
     697A      0.551312   698A      0.551507   699A      0.553109  
     700A      0.556711   701A      0.557577   702A      0.558235  
     703A      0.558460   704A      0.560686   705A      0.562939  
     706A      0.563421   707A      0.563878   708A      0.564997  
     709A      0.565354   710A      0.566851   711A      0.567181  
     712A      0.567238   713A      0.567574   714A      0.568273  
     715A      0.570234   716A      0.571552   717A      0.573210  
     718A      0.576923   719A      0.577913   720A      0.578163  
     721A      0.578529   722A      0.581840   723A      0.583518  
     724A      0.583926   725A      0.584240   726A      0.585384  
     727A      0.586304   728A      0.587366   729A      0.590627  
     730A      0.592027   731A      0.592164   732A      0.594776  
     733A      0.596551   734A      0.597644   735A      0.599737  
     736A      0.599929   737A      0.601628   738A      0.602595  
     739A      0.607039   740A      0.608595   741A      0.609818  
     742A      0.611258   743A      0.613905   744A      0.615150  
     745A      0.616827   746A      0.620061   747A      0.621226  
     748A      0.623724   749A      0.624816   750A      0.626747  
     751A      0.627613   752A      0.628014   753A      0.630478  
     754A      0.630784   755A      0.632004   756A      0.632213  
     757A      0.636375   758A      0.637274   759A      0.639165  
     760A      0.639229   761A      0.641618   762A      0.642300  
     763A      0.646330   764A      0.646518   765A      0.647926  
     766A      0.648890   767A      0.650430   768A      0.651613  
     769A      0.652472   770A      0.653549   771A      0.654554  
     772A      0.654878   773A      0.658205   774A      0.661892  
     775A      0.664063   776A      0.668158   777A      0.669139  
     778A      0.671599   779A      0.672492   780A      0.673657  
     781A      0.675082   782A      0.675242   783A      0.676443  
     784A      0.678002   785A      0.680341   786A      0.685020  
     787A      0.685473   788A      0.685785   789A      0.687027  
     790A      0.687471   791A      0.689339   792A      0.696933  
     793A      0.697761   794A      0.700936   795A      0.703132  
     796A      0.707637   797A      0.709756   798A      0.710547  
     799A      0.710898   800A      0.713991   801A      0.714536  
     802A      0.715665   803A      0.719979   804A      0.723023  
     805A      0.724413   806A      0.727214   807A      0.727532  
     808A      0.730435   809A      0.731621   810A      0.732070  
     811A      0.734070   812A      0.735802   813A      0.739567  
     814A      0.743549   815A      0.745748   816A      0.747802  
     817A      0.751814   818A      0.754929   819A      0.756269  
     820A      0.758321   821A      0.758376   822A      0.759694  
     823A      0.760631   824A      0.763018   825A      0.765068  
     826A      0.766639   827A      0.767166   828A      0.767983  
     829A      0.774185   830A      0.776881   831A      0.780160  
     832A      0.781501   833A      0.786055   834A      0.798979  
     835A      0.800633   836A      0.801298   837A      0.802339  
     838A      0.806548   839A      0.809137   840A      0.810416  
     841A      0.812918   842A      0.813987   843A      0.815577  
     844A      0.818990   845A      0.821628   846A      0.823790  
     847A      0.825791   848A      0.829829   849A      0.834140  
     850A      0.843611   851A      0.846481   852A      0.853293  
     853A      0.855984   854A      0.856796   855A      0.858112  
     856A      0.864404   857A      0.865246   858A      0.867411  
     859A      0.868594   860A      0.869678   861A      0.870590  
     862A      0.871828   863A      0.875991   864A      0.880334  
     865A      0.880889   866A      0.881218   867A      0.881674  
     868A      0.883180   869A      0.884015   870A      0.885080  
     871A      0.889134   872A      0.892442   873A      0.894340  
     874A      0.895148   875A      0.897945   876A      0.899817  
     877A      0.902111   878A      0.904817   879A      0.906977  
     880A      0.910164   881A      0.912191   882A      0.912951  
     883A      0.914513   884A      0.915105   885A      0.918786  
     886A      0.922186   887A      0.923131   888A      0.925728  
     889A      0.925901   890A      0.928475   891A      0.929471  
     892A      0.931365   893A      0.932215   894A      0.932705  
     895A      0.933644   896A      0.936510   897A      0.938868  
     898A      0.939997   899A      0.940528   900A      0.942410  
     901A      0.944587   902A      0.945257   903A      0.945984  
     904A      0.948291   905A      0.949720   906A      0.951730  
     907A      0.954312   908A      0.955886   909A      0.958076  
     910A      0.961657   911A      0.962617   912A      0.963207  
     913A      0.964771   914A      0.966594   915A      0.966815  
     916A      0.971572   917A      0.972741   918A      0.973921  
     919A      0.974731   920A      0.979147   921A      0.980707  
     922A      0.982429   923A      0.983030   924A      0.984275  
     925A      0.985821   926A      0.986157   927A      0.988739  
     928A      0.989187   929A      0.989831   930A      0.994129  
     931A      0.995474   932A      0.997316   933A      0.999326  
     934A      1.000662   935A      1.001438   936A      1.002141  
     937A      1.004241   938A      1.006229   939A      1.007939  
     940A      1.010175   941A      1.010251   942A      1.011300  
     943A      1.012984   944A      1.016153   945A      1.016962  
     946A      1.017848   947A      1.018229   948A      1.018675  
     949A      1.020522   950A      1.021899   951A      1.022458  
     952A      1.022907   953A      1.025126   954A      1.025713  
     955A      1.028491   956A      1.030472   957A      1.032100  
     958A      1.032497   959A      1.040646   960A      1.041795  
     961A      1.046229   962A      1.049418   963A      1.051187  
     964A      1.056608   965A      1.057571   966A      1.059209  
     967A      1.060327   968A      1.061944   969A      1.064288  
     970A      1.066875   971A      1.068046   972A      1.071135  
     973A      1.071795   974A      1.072313   975A      1.072798  
     976A      1.073277   977A      1.074486   978A      1.080085  
     979A      1.081170   980A      1.081265   981A      1.082609  
     982A      1.087778   983A      1.088182   984A      1.089808  
     985A      1.092523   986A      1.093605   987A      1.094055  
     988A      1.094951   989A      1.097235   990A      1.103980  
     991A      1.105963   992A      1.111220   993A      1.112884  
     994A      1.113648   995A      1.114675   996A      1.114999  
     997A      1.115595   998A      1.116390   999A      1.118669  
    1000A      1.118930  1001A      1.120438  1002A      1.121344  
    1003A      1.123434  1004A      1.124217  1005A      1.124832  
    1006A      1.126558  1007A      1.129274  1008A      1.130136  
    1009A      1.130569  1010A      1.131223  1011A      1.131847  
    1012A      1.133193  1013A      1.133806  1014A      1.137103  
    1015A      1.138463  1016A      1.138601  1017A      1.139671  
    1018A      1.140623  1019A      1.141045  1020A      1.141368  
    1021A      1.141977  1022A      1.144387  1023A      1.144599  
    1024A      1.146534  1025A      1.146750  1026A      1.147393  
    1027A      1.147961  1028A      1.149212  1029A      1.149835  
    1030A      1.149962  1031A      1.150357  1032A      1.151166  
    1033A      1.151994  1034A      1.152732  1035A      1.153031  
    1036A      1.153541  1037A      1.154757  1038A      1.155947  
    1039A      1.156888  1040A      1.159251  1041A      1.160999  
    1042A      1.161884  1043A      1.165133  1044A      1.166523  
    1045A      1.168493  1046A      1.169682  1047A      1.171660  
    1048A      1.172369  1049A      1.173421  1050A      1.174393  
    1051A      1.174889  1052A      1.176865  1053A      1.180143  
    1054A      1.181057  1055A      1.184162  1056A      1.184537  
    1057A      1.186095  1058A      1.187754  1059A      1.189184  
    1060A      1.190242  1061A      1.193385  1062A      1.193564  
    1063A      1.195200  1064A      1.199078  1065A      1.200424  
    1066A      1.201603  1067A      1.203101  1068A      1.205912  
    1069A      1.206133  1070A      1.207919  1071A      1.208520  
    1072A      1.208793  1073A      1.211797  1074A      1.216108  
    1075A      1.217503  1076A      1.220302  1077A      1.221177  
    1078A      1.222261  1079A      1.223521  1080A      1.224495  
    1081A      1.226489  1082A      1.227705  1083A      1.229138  
    1084A      1.229783  1085A      1.232443  1086A      1.233724  
    1087A      1.237550  1088A      1.238896  1089A      1.239025  
    1090A      1.241060  1091A      1.243320  1092A      1.243554  
    1093A      1.247005  1094A      1.251223  1095A      1.252444  
    1096A      1.253303  1097A      1.255108  1098A      1.256986  
    1099A      1.257941  1100A      1.261672  1101A      1.262377  
    1102A      1.262635  1103A      1.267610  1104A      1.269237  
    1105A      1.272929  1106A      1.274646  1107A      1.275398  
    1108A      1.276493  1109A      1.278322  1110A      1.279902  
    1111A      1.281632  1112A      1.282272  1113A      1.283214  
    1114A      1.283706  1115A      1.286595  1116A      1.287380  
    1117A      1.288866  1118A      1.290892  1119A      1.292348  
    1120A      1.293007  1121A      1.302298  1122A      1.303509  
    1123A      1.304398  1124A      1.312790  1125A      1.317434  
    1126A      1.320050  1127A      1.320455  1128A      1.322360  
    1129A      1.325184  1130A      1.326649  1131A      1.328845  
    1132A      1.330128  1133A      1.330606  1134A      1.334353  
    1135A      1.336090  1136A      1.337113  1137A      1.339392  
    1138A      1.340662  1139A      1.347953  1140A      1.348335  
    1141A      1.351510  1142A      1.354134  1143A      1.359063  
    1144A      1.360684  1145A      1.361467  1146A      1.361885  
    1147A      1.363493  1148A      1.364844  1149A      1.369670  
    1150A      1.371325  1151A      1.372356  1152A      1.374274  
    1153A      1.380092  1154A      1.381998  1155A      1.382507  
    1156A      1.383435  1157A      1.384274  1158A      1.386120  
    1159A      1.387408  1160A      1.388456  1161A      1.389179  
    1162A      1.390940  1163A      1.393223  1164A      1.396162  
    1165A      1.396292  1166A      1.398926  1167A      1.400225  
    1168A      1.401600  1169A      1.403358  1170A      1.408729  
    1171A      1.409551  1172A      1.410216  1173A      1.411089  
    1174A      1.421820  1175A      1.425367  1176A      1.425861  
    1177A      1.428199  1178A      1.428582  1179A      1.430160  
    1180A      1.430469  1181A      1.430533  1182A      1.431266  
    1183A      1.432710  1184A      1.442122  1185A      1.443230  
    1186A      1.443531  1187A      1.443832  1188A      1.447535  
    1189A      1.453100  1190A      1.454792  1191A      1.455365  
    1192A      1.458552  1193A      1.458977  1194A      1.460625  
    1195A      1.465178  1196A      1.472992  1197A      1.473903  
    1198A      1.474437  1199A      1.476787  1200A      1.476975  
    1201A      1.477092  1202A      1.478154  1203A      1.478754  
    1204A      1.479605  1205A      1.484666  1206A      1.486316  
    1207A      1.489979  1208A      1.490126  1209A      1.491356  
    1210A      1.496535  1211A      1.498722  1212A      1.500394  
    1213A      1.501909  1214A      1.502929  1215A      1.503749  
    1216A      1.505443  1217A      1.507740  1218A      1.510488  
    1219A      1.511155  1220A      1.511560  1221A      1.514523  
    1222A      1.515623  1223A      1.520791  1224A      1.522628  
    1225A      1.526297  1226A      1.526443  1227A      1.528431  
    1228A      1.531641  1229A      1.534931  1230A      1.537029  
    1231A      1.540191  1232A      1.542761  1233A      1.542819  
    1234A      1.545005  1235A      1.549313  1236A      1.551942  
    1237A      1.554014  1238A      1.556494  1239A      1.557119  
    1240A      1.560548  1241A      1.562108  1242A      1.566248  
    1243A      1.568089  1244A      1.571541  1245A      1.573590  
    1246A      1.579010  1247A      1.585049  1248A      1.589164  
    1249A      1.589870  1250A      1.604919  1251A      1.606062  
    1252A      1.607068  1253A      1.611121  1254A      1.618789  
    1255A      1.619270  1256A      1.626431  1257A      1.644367  
    1258A      1.652015  1259A      1.654329  1260A      1.657499  
    1261A      1.669688  1262A      1.672874  1263A      1.676876  
    1264A      1.678438  1265A      1.679615  1266A      1.681521  
    1267A      1.682693  1268A      1.684112  1269A      1.685270  
    1270A      1.687073  1271A      1.687518  1272A      1.688254  
    1273A      1.689513  1274A      1.690655  1275A      1.691387  
    1276A      1.692617  1277A      1.693251  1278A      1.696180  
    1279A      1.697469  1280A      1.699466  1281A      1.701954  
    1282A      1.702549  1283A      1.703805  1284A      1.705864  
    1285A      1.706458  1286A      1.708377  1287A      1.708586  
    1288A      1.709545  1289A      1.711025  1290A      1.712205  
    1291A      1.714796  1292A      1.715300  1293A      1.716127  
    1294A      1.718106  1295A      1.718436  1296A      1.719566  
    1297A      1.721453  1298A      1.724259  1299A      1.726309  
    1300A      1.727233  1301A      1.727375  1302A      1.729936  
    1303A      1.730550  1304A      1.731413  1305A      1.738979  
    1306A      1.739103  1307A      1.740710  1308A      1.741290  
    1309A      1.742026  1310A      1.742566  1311A      1.743326  
    1312A      1.744615  1313A      1.749676  1314A      1.751075  
    1315A      1.753335  1316A      1.756908  1317A      1.758055  
    1318A      1.762515  1319A      1.764562  1320A      1.767854  
    1321A      1.770034  1322A      1.772175  1323A      1.773430  
    1324A      1.778972  1325A      1.780697  1326A      1.782096  
    1327A      1.783349  1328A      1.783687  1329A      1.784592  
    1330A      1.790962  1331A      1.791802  1332A      1.792813  
    1333A      1.793452  1334A      1.793997  1335A      1.796544  
    1336A      1.796819  1337A      1.797352  1338A      1.808776  
    1339A      1.817429  1340A      1.819331  1341A      1.819927  
    1342A      1.821175  1343A      1.834368  1344A      1.835995  
    1345A      1.836377  1346A      1.841095  1347A      1.847147  
    1348A      1.849207  1349A      1.852734  1350A      1.853775  
    1351A      1.875882  1352A      1.877096  1353A      1.877398  
    1354A      1.889207  1355A      1.893154  1356A      1.894792  
    1357A      1.894947  1358A      1.895528  1359A      1.896753  
    1360A      1.898652  1361A      1.899785  1362A      1.901625  
    1363A      1.902988  1364A      1.903125  1365A      1.910169  
    1366A      1.915664  1367A      1.917523  1368A      1.918531  
    1369A      1.920012  1370A      1.921097  1371A      1.923271  
    1372A      1.929598  1373A      1.929919  1374A      1.933925  
    1375A      1.934155  1376A      1.934718  1377A      1.935943  
    1378A      1.938547  1379A      1.939680  1380A      1.940541  
    1381A      1.940902  1382A      1.941448  1383A      1.942142  
    1384A      1.947129  1385A      1.947430  1386A      1.951439  
    1387A      1.953429  1388A      1.954168  1389A      1.957109  
    1390A      1.959809  1391A      1.960248  1392A      1.961199  
    1393A      1.962850  1394A      1.970388  1395A      1.971360  
    1396A      1.974706  1397A      1.975347  1398A      1.977028  
    1399A      1.985532  1400A      1.988521  1401A      1.990951  
    1402A      1.991635  1403A      1.994255  1404A      1.995611  
    1405A      1.997468  1406A      1.998613  1407A      2.000181  
    1408A      2.001745  1409A      2.001905  1410A      2.007241  
    1411A      2.008091  1412A      2.008720  1413A      2.011427  
    1414A      2.012948  1415A      2.013247  1416A      2.015195  
    1417A      2.017899  1418A      2.019140  1419A      2.023638  
    1420A      2.026220  1421A      2.026311  1422A      2.027726  
    1423A      2.028599  1424A      2.030813  1425A      2.032329  
    1426A      2.034920  1427A      2.035846  1428A      2.039181  
    1429A      2.041237  1430A      2.042025  1431A      2.045066  
    1432A      2.047302  1433A      2.051056  1434A      2.055190  
    1435A      2.056392  1436A      2.058188  1437A      2.060189  
    1438A      2.061934  1439A      2.062309  1440A      2.064917  
    1441A      2.065227  1442A      2.068057  1443A      2.070776  
    1444A      2.073077  1445A      2.080089  1446A      2.081492  
    1447A      2.083072  1448A      2.083985  1449A      2.085454  
    1450A      2.086527  1451A      2.088967  1452A      2.089712  
    1453A      2.090562  1454A      2.091022  1455A      2.091248  
    1456A      2.093511  1457A      2.098441  1458A      2.099606  
    1459A      2.101450  1460A      2.102747  1461A      2.104414  
    1462A      2.105627  1463A      2.105809  1464A      2.107308  
    1465A      2.107930  1466A      2.111564  1467A      2.116482  
    1468A      2.118697  1469A      2.120667  1470A      2.123648  
    1471A      2.125894  1472A      2.127851  1473A      2.129954  
    1474A      2.130600  1475A      2.133728  1476A      2.135186  
    1477A      2.137008  1478A      2.137622  1479A      2.139912  
    1480A      2.143716  1481A      2.147286  1482A      2.148150  
    1483A      2.149822  1484A      2.151063  1485A      2.151850  
    1486A      2.153411  1487A      2.154016  1488A      2.155242  
    1489A      2.155529  1490A      2.156380  1491A      2.156793  
    1492A      2.157358  1493A      2.158011  1494A      2.158544  
    1495A      2.159448  1496A      2.161588  1497A      2.161892  
    1498A      2.163077  1499A      2.168201  1500A      2.169708  
    1501A      2.169840  1502A      2.171237  1503A      2.172832  
    1504A      2.177670  1505A      2.179575  1506A      2.179709  
    1507A      2.181797  1508A      2.183699  1509A      2.184563  
    1510A      2.185512  1511A      2.185856  1512A      2.186307  
    1513A      2.188149  1514A      2.188349  1515A      2.191788  
    1516A      2.192772  1517A      2.194581  1518A      2.194729  
    1519A      2.196770  1520A      2.197212  1521A      2.198344  
    1522A      2.201141  1523A      2.202631  1524A      2.203544  
    1525A      2.205550  1526A      2.206051  1527A      2.208829  
    1528A      2.210452  1529A      2.212365  1530A      2.213611  
    1531A      2.214506  1532A      2.216669  1533A      2.216820  
    1534A      2.221428  1535A      2.223992  1536A      2.225084  
    1537A      2.226176  1538A      2.229209  1539A      2.230249  
    1540A      2.230274  1541A      2.231180  1542A      2.235512  
    1543A      2.236939  1544A      2.237178  1545A      2.241650  
    1546A      2.245489  1547A      2.248979  1548A      2.251495  
    1549A      2.251930  1550A      2.252804  1551A      2.257567  
    1552A      2.259555  1553A      2.262237  1554A      2.265216  
    1555A      2.265814  1556A      2.267040  1557A      2.267805  
    1558A      2.268729  1559A      2.269677  1560A      2.270574  
    1561A      2.271956  1562A      2.275173  1563A      2.276991  
    1564A      2.279057  1565A      2.280221  1566A      2.284409  
    1567A      2.286818  1568A      2.288538  1569A      2.289446  
    1570A      2.291292  1571A      2.291501  1572A      2.292587  
    1573A      2.293660  1574A      2.294747  1575A      2.296237  
    1576A      2.296988  1577A      2.299688  1578A      2.300922  
    1579A      2.301649  1580A      2.302680  1581A      2.304425  
    1582A      2.308496  1583A      2.310228  1584A      2.311771  
    1585A      2.314276  1586A      2.314727  1587A      2.317762  
    1588A      2.321201  1589A      2.327546  1590A      2.334812  
    1591A      2.335868  1592A      2.338100  1593A      2.341710  
    1594A      2.344104  1595A      2.346267  1596A      2.349452  
    1597A      2.351641  1598A      2.353666  1599A      2.359904  
    1600A      2.360934  1601A      2.363856  1602A      2.368349  
    1603A      2.369065  1604A      2.371965  1605A      2.372283  
    1606A      2.384895  1607A      2.391102  1608A      2.393705  
    1609A      2.395518  1610A      2.397340  1611A      2.397885  
    1612A      2.398218  1613A      2.403293  1614A      2.405444  
    1615A      2.405697  1616A      2.406453  1617A      2.408544  
    1618A      2.410814  1619A      2.412142  1620A      2.412281  
    1621A      2.414174  1622A      2.414759  1623A      2.415279  
    1624A      2.422864  1625A      2.425369  1626A      2.431693  
    1627A      2.434859  1628A      2.449633  1629A      2.452781  
    1630A      2.455484  1631A      2.456846  1632A      2.459790  
    1633A      2.464296  1634A      2.466969  1635A      2.476819  
    1636A      2.479683  1637A      2.487261  1638A      2.491823  
    1639A      2.495756  1640A      2.497022  1641A      2.504115  
    1642A      2.512722  1643A      2.513520  1644A      2.517420  
    1645A      2.524972  1646A      2.528053  1647A      2.531569  
    1648A      2.534307  1649A      2.536510  1650A      2.537098  
    1651A      2.539737  1652A      2.540638  1653A      2.551889  
    1654A      2.558439  1655A      2.566099  1656A      2.571051  
    1657A      2.573403  1658A      2.576674  1659A      2.577642  
    1660A      2.583760  1661A      2.590297  1662A      2.609212  
    1663A      2.610720  1664A      2.611584  1665A      2.612222  
    1666A      2.613805  1667A      2.614423  1668A      2.618935  
    1669A      2.622999  1670A      2.626030  1671A      2.629903  
    1672A      2.630485  1673A      2.633334  1674A      2.634513  
    1675A      2.636918  1676A      2.640112  1677A      2.647389  
    1678A      2.649580  1679A      2.651497  1680A      2.653376  
    1681A      2.653801  1682A      2.654368  1683A      2.657260  
    1684A      2.659667  1685A      2.661220  1686A      2.670336  
    1687A      2.671845  1688A      2.681645  1689A      2.683088  
    1690A      2.683361  1691A      2.685038  1692A      2.687912  
    1693A      2.688599  1694A      2.703068  1695A      2.710564  
    1696A      2.711852  1697A      2.715170  1698A      2.716030  
    1699A      2.717466  1700A      2.719043  1701A      2.721407  
    1702A      2.723275  1703A      2.724531  1704A      2.726470  
    1705A      2.734840  1706A      2.737448  1707A      2.737815  
    1708A      2.740210  1709A      2.741017  1710A      2.745032  
    1711A      2.747314  1712A      2.748320  1713A      2.756874  
    1714A      2.759848  1715A      2.760542  1716A      2.761099  
    1717A      2.761311  1718A      2.764002  1719A      2.765251  
    1720A      2.766524  1721A      2.772852  1722A      2.786856  
    1723A      2.795198  1724A      2.797149  1725A      2.797314  
    1726A      2.798127  1727A      2.800446  1728A      2.801363  
    1729A      2.824489  1730A      2.838565  1731A      2.846027  
    1732A      2.851794  1733A      2.852815  1734A      2.855441  
    1735A      2.864402  1736A      2.871824  1737A      2.872434  
    1738A      2.873698  1739A      2.874276  1740A      2.879806  
    1741A      2.886649  1742A      2.887382  1743A      2.889102  
    1744A      2.890230  1745A      2.893767  1746A      2.896126  
    1747A      2.903778  1748A      2.910393  1749A      2.912876  
    1750A      2.913611  1751A      2.914913  1752A      2.918185  
    1753A      2.927831  1754A      2.936931  1755A      2.937668  
    1756A      2.940224  1757A      2.941256  1758A      2.945081  
    1759A      2.959993  1760A      2.972444  1761A      2.973229  
    1762A      2.983559  1763A      2.984080  1764A      2.990738  
    1765A      2.994263  1766A      2.997268  1767A      3.003035  
    1768A      3.005700  1769A      3.029167  1770A      3.032589  
    1771A      3.033017  1772A      3.043093  1773A      3.059881  
    1774A      3.064636  1775A      3.070935  1776A      3.099272  
    1777A      3.100732  1778A      3.106604  1779A      3.108865  
    1780A      3.118625  1781A      3.119907  1782A      3.124904  
    1783A      3.128452  1784A      3.128859  1785A      3.130451  
    1786A      3.142824  1787A      3.176055  1788A      3.179650  
    1789A      3.180380  1790A      3.191848  1791A      3.197819  
    1792A      3.198129  1793A      3.205433  1794A      3.207745  
    1795A      3.209144  1796A      3.209873  1797A      3.217970  
    1798A      3.219225  1799A      3.220006  1800A      3.221042  
    1801A      3.222033  1802A      3.227158  1803A      3.238391  
    1804A      3.241095  1805A      3.243586  1806A      3.244405  
    1807A      3.257255  1808A      3.259841  1809A      3.283268  
    1810A      3.300386  1811A      3.304731  1812A      3.328120  
    1813A      3.329066  1814A      3.331851  1815A      3.332949  
    1816A      3.335160  1817A      3.337842  1818A      3.341651  
    1819A      3.343716  1820A      3.345701  1821A      3.353527  
    1822A      3.369253  1823A      3.375956  1824A      3.380443  
    1825A      3.387960  1826A      3.434898  1827A      3.435243  
    1828A      3.446820  1829A      3.477707  1830A      3.492858  
    1831A      3.520753  1832A      3.526297  1833A      3.534323  
    1834A      3.537835  1835A      3.540778  1836A      3.543605  
    1837A      3.552140  1838A      3.553503  1839A      3.557164  
    1840A      3.563080  1841A      3.581863  1842A      3.589670  
    1843A      3.593257  1844A      3.625318  1845A      3.647066  
    1846A      3.652111  1847A      3.656116  1848A      3.659376  
    1849A      3.674060  1850A      3.718550  1851A      3.737783  
    1852A      3.742262  1853A      3.755206  1854A      3.782364  
    1855A      3.824298  1856A      3.829556  1857A      3.838694  
    1858A      3.843417  1859A      3.846486  1860A      3.853619  
    1861A      3.913575  1862A      3.919806  1863A      3.942055  
    1864A      3.948632  1865A      3.988563  1866A      3.993292  
    1867A      4.018142  1868A      4.018794  1869A      4.022281  
    1870A      4.036074  1871A      4.041296  1872A      4.048462  
    1873A      4.074905  1874A      4.098877  1875A      4.102202  
    1876A      4.149204  1877A      4.159918  1878A      4.163734  
    1879A      4.180900  1880A      4.182730  1881A      4.186325  
    1882A      4.206626  1883A      4.223690  1884A      4.237414  
    1885A      4.241329  1886A      4.273779  1887A      4.288363  
    1888A      4.406449  1889A      4.415792  1890A      4.447054  
    1891A      4.449427  1892A      4.474364  1893A      4.557626  
    1894A      4.641701  1895A      4.646503  1896A      4.657947  
    1897A      4.727495  1898A      4.762606  1899A      4.764169  

    Final Occupation by Irrep:
              A 
    DOCC [   321 ]
    NA   [   321 ]
    NB   [   321 ]

  @DF-RHF Final Energy: -4073.09967993540658

   => Energetics <=

    Nuclear Repulsion Energy =          17794.3198567615108914
    One-Electron Energy =              -41078.6044210684631253
    Two-Electron Energy =               19211.1848843715451949
    Total Energy =                      -4073.0996799354070390

Computation Completed


Properties will be evaluated at   0.000000,   0.000000,   0.000000 [a0]

Properties computed using the SCF density matrix


 Multipole Moments:

 ------------------------------------------------------------------------------------
     Multipole            Electronic (a.u.)      Nuclear  (a.u.)        Total (a.u.)
 ------------------------------------------------------------------------------------

 L = 1.  Multiply by 2.5417464519 to convert [e a0] to [Debye]
 Dipole X            :          0.0016437           -0.0001188            0.0015249
 Dipole Y            :          0.0014569           -0.0002727            0.0011842
 Dipole Z            :         15.5087180          -19.6391552           -4.1304372
 Magnitude           :                                                    4.1304376

 ------------------------------------------------------------------------------------

*** tstop() called on n2cn0173 at Wed Feb  7 20:48:28 2024
Module time:
	user time   =   23021.50 seconds =     383.69 minutes
	system time =    1314.48 seconds =      21.91 minutes
	total time  =       3191 seconds =      53.18 minutes
Total time:
	user time   =   23021.50 seconds =     383.69 minutes
	system time =    1314.48 seconds =      21.91 minutes
	total time  =       3191 seconds =      53.18 minutes

  //>>>>>>>>>>>>>>>>>>>>>>>>>>>>>>>>>>>//
  //            Monomer A HF           //
  //<<<<<<<<<<<<<<<<<<<<<<<<<<<<<<<<<<<//

   => Libint2 <=

    Primary   basis highest AM E, G, H:  5, 4, 3
    Auxiliary basis highest AM E, G, H:  6, 5, 4
    Onebody   basis highest AM E, G, H:  6, 5, 4
    Solid Harmonics ordering:            gaussian

*** tstart() called on n2cn0173
*** at Wed Feb  7 20:48:28 2024

   => Loading Basis Set <=

    Name: JUN-CC-PVDZ
    Role: ORBITAL
    Keyword: BASIS
    atoms 1                                                   entry B          line   130 file /opt/software/pc2/EB-SW/software/PSI4/1.9-foss-2022a/share/psi4/basis/jun-cc-pvdz.gbs 
    atoms 2-5                                                 entry F          line   266 file /opt/software/pc2/EB-SW/software/PSI4/1.9-foss-2022a/share/psi4/basis/jun-cc-pvdz.gbs 
    atoms 6-23, 30-42, 45-59, 62-78, 81-93, 98-108, 111-119   entry C          line   164 file /opt/software/pc2/EB-SW/software/PSI4/1.9-foss-2022a/share/psi4/basis/jun-cc-pvdz.gbs 
    atoms 24-29, 43-44, 60-61, 79-80, 94-97, 109-110, 120-125 entry H          line    36 file /opt/software/pc2/EB-SW/software/PSI4/1.9-foss-2022a/share/psi4/basis/jun-cc-pvdz.gbs 


         ---------------------------------------------------------
                                   SCF
               by Justin Turney, Rob Parrish, Andy Simmonett
                          and Daniel G. A. Smith
                              RHF Reference
                       16 Threads,  76293 MiB Core
         ---------------------------------------------------------

  ==> Geometry <==

    Molecular point group: c1
    Full point group: C1

    Geometry (in Angstrom), charge = -1, multiplicity = 1:

       Center              X                  Y                   Z               Mass       
    ------------   -----------------  -----------------  -----------------  -----------------
         B           -0.000050191042     0.000351518223     3.072701681333    11.009305360000
         F           -1.153601191042     0.000062518223     3.888348681333    18.998403162730
         F            1.153656808958    -0.000566481777     3.888348681333    18.998403162730
         F           -0.000023191042    -1.153622481777     2.257067681333    18.998403162730
         F           -0.000023191042     1.153992518223     2.257067681333    18.998403162730
      Gh(C)          -3.668445455062     7.803766688305    -0.225392277331    12.000000000000
      Gh(C)          -4.847602910388     7.131256349563    -0.227758852264    12.000000000000
      Gh(C)          -4.894963490217     5.696344921754    -0.228331763362    12.000000000000
      Gh(C)          -3.653744869815     4.980744859182    -0.220671321632    12.000000000000
      Gh(C)          -2.409429312536     7.113995554897    -0.225197935071    12.000000000000
      Gh(C)          -2.425481535146     5.681136469126    -0.232202823941    12.000000000000
      Gh(C)          -1.194748207477     7.786158712532    -0.223725754529    12.000000000000
      Gh(C)           0.037954837895     7.099436163980    -0.225896458834    12.000000000000
      Gh(C)           0.030328396378     5.669504077927    -0.231379843750    12.000000000000
      Gh(C)          -1.200988698947     4.969284866138    -0.222410109816    12.000000000000
      Gh(C)           1.277953634773     7.772873961417    -0.224520610273    12.000000000000
      Gh(C)           2.485353893683     7.087711403460    -0.226795098178    12.000000000000
      Gh(C)           2.486124493876     5.654785328463    -0.233732847166    12.000000000000
      Gh(C)           1.254078728602     4.956092631887    -0.222104905578    12.000000000000
      Gh(C)           3.751710400364     7.763926669203    -0.226668246798    12.000000000000
      Gh(C)           4.923561865144     7.078795295213    -0.228724727506    12.000000000000
      Gh(C)           4.955603080284     5.643461981592    -0.228885140313    12.000000000000
      Gh(C)           3.706797343163     4.941224726556    -0.223793580143    12.000000000000
      Gh(H)          -3.658525328800     8.890841937358    -0.223707289081     1.007825032230
      Gh(H)          -1.189217520798     8.874135605583    -0.219753878088     1.007825032230
      Gh(H)           1.284290047845     8.860847953711    -0.220361786133     1.007825032230
      Gh(H)           3.753537895758     8.851049797195    -0.225145722482     1.007825032230
      Gh(H)           5.869954512165     7.613809352878    -0.229650094548     1.007825032230
      Gh(H)          -5.788235898544     7.676316731157    -0.229318699620     1.007825032230
      Gh(C)          -6.091978149738     4.993274531866    -0.230204003853    12.000000000000
[...]
    1510A      2.134038  1511A      2.136572  1512A      2.139113  
    1513A      2.141549  1514A      2.143046  1515A      2.143558  
    1516A      2.145054  1517A      2.145495  1518A      2.147051  
    1519A      2.151780  1520A      2.152684  1521A      2.159560  
    1522A      2.161003  1523A      2.161271  1524A      2.161485  
    1525A      2.162307  1526A      2.163697  1527A      2.164773  
    1528A      2.167471  1529A      2.169094  1530A      2.172378  
    1531A      2.173838  1532A      2.177941  1533A      2.181135  
    1534A      2.183638  1535A      2.183783  1536A      2.189551  
    1537A      2.192417  1538A      2.193107  1539A      2.195023  
    1540A      2.196209  1541A      2.197297  1542A      2.200693  
    1543A      2.202292  1544A      2.202618  1545A      2.204167  
    1546A      2.205213  1547A      2.205628  1548A      2.207914  
    1549A      2.211449  1550A      2.212447  1551A      2.215542  
    1552A      2.218913  1553A      2.220276  1554A      2.220550  
    1555A      2.222953  1556A      2.225727  1557A      2.226279  
    1558A      2.228391  1559A      2.230365  1560A      2.232109  
    1561A      2.232538  1562A      2.233490  1563A      2.234693  
    1564A      2.238274  1565A      2.241308  1566A      2.244838  
    1567A      2.245571  1568A      2.248514  1569A      2.248959  
    1570A      2.250418  1571A      2.258785  1572A      2.264600  
    1573A      2.268195  1574A      2.270054  1575A      2.270452  
    1576A      2.274735  1577A      2.275796  1578A      2.279780  
    1579A      2.281547  1580A      2.284054  1581A      2.287567  
    1582A      2.292861  1583A      2.296165  1584A      2.297180  
    1585A      2.297729  1586A      2.304660  1587A      2.306420  
    1588A      2.312283  1589A      2.321655  1590A      2.325503  
    1591A      2.327682  1592A      2.329234  1593A      2.330522  
    1594A      2.330750  1595A      2.331860  1596A      2.334495  
    1597A      2.335520  1598A      2.336578  1599A      2.338037  
    1600A      2.341846  1601A      2.342550  1602A      2.342650  
    1603A      2.344511  1604A      2.346445  1605A      2.346553  
    1606A      2.347353  1607A      2.350099  1608A      2.351443  
    1609A      2.370372  1610A      2.374427  1611A      2.380554  
    1612A      2.384081  1613A      2.389095  1614A      2.392639  
    1615A      2.400298  1616A      2.405353  1617A      2.413769  
    1618A      2.418846  1619A      2.421286  1620A      2.424889  
    1621A      2.427863  1622A      2.433985  1623A      2.435722  
    1624A      2.444139  1625A      2.446689  1626A      2.453269  
    1627A      2.456068  1628A      2.465161  1629A      2.466234  
    1630A      2.468537  1631A      2.468841  1632A      2.472013  
    1633A      2.472396  1634A      2.491692  1635A      2.492061  
    1636A      2.502495  1637A      2.504914  1638A      2.507077  
    1639A      2.508740  1640A      2.512308  1641A      2.517182  
    1642A      2.540360  1643A      2.540672  1644A      2.541123  
    1645A      2.543330  1646A      2.546232  1647A      2.548001  
    1648A      2.548595  1649A      2.551073  1650A      2.551825  
    1651A      2.556735  1652A      2.556953  1653A      2.557688  
    1654A      2.564329  1655A      2.571719  1656A      2.571808  
    1657A      2.582161  1658A      2.585707  1659A      2.585745  
    1660A      2.586580  1661A      2.589015  1662A      2.589615  
    1663A      2.590575  1664A      2.593293  1665A      2.594219  
    1666A      2.602849  1667A      2.603763  1668A      2.614506  
    1669A      2.614776  1670A      2.615160  1671A      2.615601  
    1672A      2.619536  1673A      2.620360  1674A      2.633992  
    1675A      2.641014  1676A      2.642505  1677A      2.646041  
    1678A      2.647183  1679A      2.649651  1680A      2.651004  
    1681A      2.651019  1682A      2.653919  1683A      2.656572  
    1684A      2.657786  1685A      2.666260  1686A      2.668824  
    1687A      2.669518  1688A      2.671499  1689A      2.671697  
    1690A      2.674100  1691A      2.679895  1692A      2.681605  
    1693A      2.687024  1694A      2.688511  1695A      2.691081  
    1696A      2.691700  1697A      2.692329  1698A      2.693707  
    1699A      2.695344  1700A      2.697076  1701A      2.702914  
    1702A      2.710309  1703A      2.727612  1704A      2.730989  
    1705A      2.731169  1706A      2.731824  1707A      2.732113  
    1708A      2.733367  1709A      2.755398  1710A      2.763491  
    1711A      2.773297  1712A      2.778933  1713A      2.781388  
    1714A      2.783051  1715A      2.786623  1716A      2.799886  
    1717A      2.800524  1718A      2.802378  1719A      2.802405  
    1720A      2.805193  1721A      2.813458  1722A      2.815118  
    1723A      2.816972  1724A      2.817339  1725A      2.818666  
    1726A      2.824290  1727A      2.831433  1728A      2.833314  
    1729A      2.841513  1730A      2.842626  1731A      2.843717  
    1732A      2.845419  1733A      2.846458  1734A      2.850908  
    1735A      2.865348  1736A      2.865604  1737A      2.871288  
    1738A      2.871717  1739A      2.875841  1740A      2.876224  
    1741A      2.896116  1742A      2.897040  1743A      2.917564  
    1744A      2.918206  1745A      2.923927  1746A      2.924845  
    1747A      2.928723  1748A      2.933442  1749A      2.935466  
    1750A      2.939277  1751A      2.964044  1752A      2.964476  
    1753A      2.966381  1754A      2.976355  1755A      2.979002  
    1756A      2.992656  1757A      3.002108  1758A      3.030462  
    1759A      3.032222  1760A      3.040650  1761A      3.042670  
    1762A      3.047476  1763A      3.050495  1764A      3.053415  
    1765A      3.057998  1766A      3.058788  1767A      3.068749  
    1768A      3.073560  1769A      3.111636  1770A      3.113717  
    1771A      3.114724  1772A      3.123842  1773A      3.129524  
    1774A      3.129977  1775A      3.139532  1776A      3.140396  
    1777A      3.143510  1778A      3.143719  1779A      3.150833  
    1780A      3.151516  1781A      3.153543  1782A      3.153909  
    1783A      3.156117  1784A      3.162246  1785A      3.169601  
    1786A      3.173304  1787A      3.178845  1788A      3.179915  
    1789A      3.194211  1790A      3.195544  1791A      3.222266  
    1792A      3.261538  1793A      3.262570  1794A      3.263207  
    1795A      3.263457  1796A      3.263826  1797A      3.266383  
    1798A      3.273266  1799A      3.275391  1800A      3.276658  
    1801A      3.276909  1802A      3.298721  1803A      3.302774  
    1804A      3.307997  1805A      3.313344  1806A      3.362703  
    1807A      3.363203  1808A      3.397661  1809A      3.419021  
    1810A      3.443985  1811A      3.452122  1812A      3.459328  
    1813A      3.462019  1814A      3.465969  1815A      3.468884  
    1816A      3.474510  1817A      3.478305  1818A      3.480214  
    1819A      3.486575  1820A      3.500567  1821A      3.510255  
    1822A      3.511933  1823A      3.547596  1824A      3.569297  
    1825A      3.579132  1826A      3.583410  1827A      3.590977  
    1828A      3.609469  1829A      3.645702  1830A      3.667477  
    1831A      3.668945  1832A      3.678766  1833A      3.709364  
    1834A      3.756736  1835A      3.761449  1836A      3.766801  
    1837A      3.772793  1838A      3.778865  1839A      3.803742  
    1840A      3.845130  1841A      3.850192  1842A      3.872867  
    1843A      3.879216  1844A      3.920035  1845A      3.925349  
    1846A      3.948681  1847A      3.949615  1848A      3.954176  
    1849A      3.966194  1850A      3.973363  1851A      3.980456  
    1852A      4.003562  1853A      4.024834  1854A      4.027715  
    1855A      4.091747  1856A      4.250219  1857A      4.312070  
    1858A      4.372964  1859A      4.435956  1860A      4.478789  
    1861A      4.613501  1862A      4.643762  1863A      5.759222  
    1864A      5.760621  1865A      5.770475  1866A      5.775863  
    1867A      5.778917  1868A      5.783734  1869A      5.799483  
    1870A      5.819860  1871A      5.830261  1872A      5.844288  
    1873A      5.852964  1874A      6.036570  1875A      6.040693  
    1876A      6.050258  1877A      6.218559  1878A      6.337195  
    1879A      6.338993  1880A      6.395203  1881A      6.396784  
    1882A      6.400972  1883A      7.263842  1884A      7.322726  
    1885A      7.342183  1886A      7.360625  1887A      7.509103  
    1888A      7.514465  1889A      7.549852  1890A      7.591771  
    1891A      7.618562  1892A      7.629832  1893A      7.819497  
    1894A      7.891921  1895A     12.808228  1896A     42.931952  
    1897A     42.959087  1898A     42.987095  1899A     42.990337  

    Final Occupation by Irrep:
              A 
    DOCC [   300 ]
    NA   [   300 ]
    NB   [   300 ]

  @DF-RHF Final Energy: -3650.33999098491086

   => Energetics <=

    Nuclear Repulsion Energy =          15611.4211649754324753
    One-Electron Energy =              -36072.1461336132560973
    Two-Electron Energy =               16810.3849776529132214
    Total Energy =                      -3650.3399909849104006

Computation Completed


Properties will be evaluated at   0.000000,   0.000000,   0.000000 [a0]

Properties computed using the SCF density matrix


 Multipole Moments:

 ------------------------------------------------------------------------------------
     Multipole            Electronic (a.u.)      Nuclear  (a.u.)        Total (a.u.)
 ------------------------------------------------------------------------------------

 L = 1.  Multiply by 2.5417464519 to convert [e a0] to [Debye]
 Dipole X            :          0.0002393            0.0001983            0.0004376
 Dipole Y            :          0.0013933           -0.0013163            0.0000770
 Dipole Z            :        257.7080927         -257.7087477           -0.0006550
 Magnitude           :                                                    0.0007915

 ------------------------------------------------------------------------------------

*** tstop() called on n2cn0173 at Wed Feb  7 21:33:13 2024
Module time:
	user time   =   15975.00 seconds =     266.25 minutes
	system time =     975.46 seconds =      16.26 minutes
	total time  =       1853 seconds =      30.88 minutes
Total time:
	user time   =   42880.98 seconds =     714.68 minutes
	system time =    2605.42 seconds =      43.42 minutes
	total time  =       5876 seconds =      97.93 minutes
  Constructing Basis Sets for SAPT...

   => Loading Basis Set <=

    Name: (JUN-CC-PVDZ AUX)
    Role: RIFIT
    Keyword: DF_BASIS_SAPT
    atoms 1                                                   entry B          line    56 file /opt/software/pc2/EB-SW/software/PSI4/1.9-foss-2022a/share/psi4/basis/jun-cc-pvdz-ri.gbs 
    atoms 2-5                                                 entry F          line   232 file /opt/software/pc2/EB-SW/software/PSI4/1.9-foss-2022a/share/psi4/basis/jun-cc-pvdz-ri.gbs 
    atoms 6-23, 30-42, 45-59, 62-78, 81-93, 98-108, 111-119   entry C          line   100 file /opt/software/pc2/EB-SW/software/PSI4/1.9-foss-2022a/share/psi4/basis/jun-cc-pvdz-ri.gbs 
    atoms 24-29, 43-44, 60-61, 79-80, 94-97, 109-110, 120-125 entry H          line    30 file /opt/software/pc2/EB-SW/software/PSI4/1.9-foss-2022a/share/psi4/basis/jun-cc-pvdz-ri.gbs 

   => Loading Basis Set <=

    Name: (JUN-CC-PVDZ AUX)
    Role: JKFIT
    Keyword: DF_BASIS_ELST
    atoms 1                                                   entry B          line    90 file /opt/software/pc2/EB-SW/software/PSI4/1.9-foss-2022a/share/psi4/basis/jun-cc-pvdz-jkfit.gbs 
    atoms 2-5                                                 entry F          line   314 file /opt/software/pc2/EB-SW/software/PSI4/1.9-foss-2022a/share/psi4/basis/jun-cc-pvdz-jkfit.gbs 
    atoms 6-23, 30-42, 45-59, 62-78, 81-93, 98-108, 111-119   entry C          line   146 file /opt/software/pc2/EB-SW/software/PSI4/1.9-foss-2022a/share/psi4/basis/jun-cc-pvdz-jkfit.gbs 
    atoms 24-29, 43-44, 60-61, 79-80, 94-97, 109-110, 120-125 entry H          line    70 file /opt/software/pc2/EB-SW/software/PSI4/1.9-foss-2022a/share/psi4/basis/jun-cc-pvdz-jkfit.gbs 


  //>>>>>>>>>>>>>>>>>>>>>>>>>>>>>>>>>>>//
  //               SSAPT0              //
  //<<<<<<<<<<<<<<<<<<<<<<<<<<<<<<<<<<<//


*** tstart() called on n2cn0173
*** at Wed Feb  7 21:33:15 2024

        SAPT0  
    Ed Hohenstein
     6 June 2009

      Orbital Information
  --------------------------
    NSO        =      1938
    NMO        =      1899
    NRI        =      6901
    NRI (Elst) =      8531
    NOCC A     =        21
    NOCC B     =       300
    FOCC A     =         5
    FOCC B     =        96
    NVIR A     =      1878
    NVIR B     =      1599

    Elst10,r            =    -0.008787653638 [Eh]
    Exch10              =     0.050317751392 [Eh]
    Exch10 (S^2)        =     0.049909322088 [Eh]

    Iter     Energy [mEh]          dE [mEh]         Residual      Time [s]
       1      -5.90507211       5.905072107      14.483140906           110
       2      -7.40257135       1.497499244       6.262130187           198
       3      -7.60696625       0.204394903       1.007733519           270
       4      -7.58174741      -0.025218841       0.302418604           351
       5      -7.57998173      -0.001765682       0.074398837           420
       6      -7.58074040       0.000758670       0.021944812           495
       7      -7.58098472       0.000244324       0.004401068           575
       8      -7.58091949      -0.000065232       0.000715635           651
       9      -7.58092547       0.000005984       0.000122253           731
      10      -7.58092518      -0.000000299       0.000022752           814
      11      -7.58092509      -0.000000090       0.000004652           932
      12      -7.58092511       0.000000020       0.000001607          1065
      13      -7.58092511       0.000000006       0.000000390          1176

    CHF Iterations converged


    Iter     Energy [mEh]          dE [mEh]         Residual      Time [s]
       1     -46.75956168      46.759561677     106.602363381           137
       2     -33.79677465     -12.962787027      13.884833068           284
       3     -34.26690395       0.470129304       5.439498995           406
       4     -35.01141607       0.744512114       1.561249751           518
       5     -35.05825772       0.046841648       0.619067513           629
       6     -35.01473079      -0.043526930       0.300597408           742
       7     -35.00525030      -0.009480490       0.134743229           849
       8     -35.01163708       0.006386780       0.062527579           960
       9     -35.01385248       0.002215403       0.024302407          1073
      10     -35.01282740      -0.001025076       0.017672677          1196
      11     -35.01231116      -0.000516247       0.013615973          1336
      12     -35.01267861       0.000367454       0.008801045          1471
      13     -35.01287950       0.000200891       0.003484805          1592
      14     -35.01282330      -0.000056202       0.001313376          1736
      15     -35.01279663      -0.000026670       0.000627799          1857
      16     -35.01279393      -0.000002698       0.000388078          1975
      17     -35.01280285       0.000008915       0.000203239          2105
      18     -35.01280286       0.000000012       0.000078007          2216
      19     -35.01280109      -0.000001765       0.000038393          2327
      20     -35.01280060      -0.000000492       0.000016098          2438
      21     -35.01280093       0.000000327       0.000007832          2547
      22     -35.01280106       0.000000128       0.000003628          2656
      23     -35.01280100      -0.000000054       0.000001522          2768
      24     -35.01280098      -0.000000025       0.000000743          2884

    CHF Iterations converged

    Ind20,r (A<-B)      =    -0.007580925111 [Eh]
    Ind20,r (B<-A)      =    -0.035012800977 [Eh]
    Ind20,r             =    -0.042593726089 [Eh]
    Exch-Ind20,r (A<-B) =     0.006887627177 [Eh]
    Exch-Ind20,r (B<-A) =     0.013237684699 [Eh]
    Exch-Ind20,r        =     0.020125311877 [Eh]
    Disp20              =    -0.023748720971 [Eh]
    Disp20 (SS)         =    -0.011874360485 [Eh]
    Disp20 (OS)         =    -0.011874360485 [Eh]
    Exch-Disp20         =     0.005094484548 [Eh]
    Exch-Disp20 (SS)    =     0.002803511783 [Eh]
    Exch-Disp20 (OS)    =     0.002290972766 [Eh]

    SAPT Results 
  --------------------------------------------------------------------------------------------------------
    Electrostatics                 -8.78765364 [mEh]      -5.51433591 [kcal/mol]     -23.07198145 [kJ/mol]
      Elst10,r                     -8.78765364 [mEh]      -5.51433591 [kcal/mol]     -23.07198145 [kJ/mol]

    Exchange                       50.31775139 [mEh]      31.57486570 [kcal/mol]     132.10923808 [kJ/mol]
      Exch10                       50.31775139 [mEh]      31.57486570 [kcal/mol]     132.10923808 [kJ/mol]
      Exch10(S^2)                  49.90932209 [mEh]      31.31857244 [kcal/mol]     131.03690709 [kJ/mol]

    Induction                     -26.68344394 [mEh]     -16.74411386 [kcal/mol]     -70.05737240 [kJ/mol]
      Ind20,r                     -42.59372609 [mEh]     -26.72796664 [kcal/mol]    -111.82981244 [kJ/mol]
      Exch-Ind20,r                 20.12531188 [mEh]      12.62882387 [kcal/mol]      52.83899905 [kJ/mol]
      delta HF,r (2)               -4.21502972 [mEh]      -2.64497108 [kcal/mol]     -11.06655902 [kJ/mol]

    Dispersion                    -18.65423642 [mEh]     -11.70571008 [kcal/mol]     -48.97669098 [kJ/mol]
      Disp20                      -23.74872097 [mEh]     -14.90254740 [kcal/mol]     -62.35225832 [kJ/mol]
      Exch-Disp20                   5.09448455 [mEh]       3.19683732 [kcal/mol]      13.37556734 [kJ/mol]
      Disp20 (SS)                 -11.87436049 [mEh]      -7.45127370 [kcal/mol]     -31.17612916 [kJ/mol]
      Disp20 (OS)                 -11.87436049 [mEh]      -7.45127370 [kcal/mol]     -31.17612916 [kJ/mol]
      Exch-Disp20 (SS)              2.80351178 [mEh]       1.75923020 [kcal/mol]       7.36061917 [kJ/mol]
      Exch-Disp20 (OS)              2.29097277 [mEh]       1.43760711 [kcal/mol]       6.01494817 [kJ/mol]

  Total HF                         14.84665382 [mEh]       9.31641592 [kcal/mol]      38.97988423 [kJ/mol]
  Total SAPT0                      -3.80758260 [mEh]      -2.38929416 [kcal/mol]      -9.99680675 [kJ/mol]

  Special recipe for scaled SAPT0 (see Manual):
    Electrostatics sSAPT0          -8.78765364 [mEh]      -5.51433591 [kcal/mol]     -23.07198145 [kJ/mol]
    Exchange sSAPT0                50.31775139 [mEh]      31.57486570 [kcal/mol]     132.10923808 [kJ/mol]
    Induction sSAPT0              -26.18530755 [mEh]     -16.43152856 [kcal/mol]     -68.74951550 [kJ/mol]
    Dispersion sSAPT0             -18.52813909 [mEh]     -11.62658281 [kcal/mol]     -48.64562248 [kJ/mol]
  Total sSAPT0                     -3.18334888 [mEh]      -1.99758158 [kcal/mol]      -8.35788134 [kJ/mol]
  --------------------------------------------------------------------------------------------------------

*** tstop() called on n2cn0173 at Thu Feb  8 00:18:27 2024
Module time:
	user time   =   62969.76 seconds =    1049.50 minutes
	system time =    2996.43 seconds =      49.94 minutes
	total time  =       9912 seconds =     165.20 minutes
Total time:
	user time   =  105852.06 seconds =    1764.20 minutes
	system time =    5601.85 seconds =      93.36 minutes
	total time  =      15790 seconds =     263.17 minutes

    Psi4 stopped on: Thursday, 08 February 2024 12:18AM
    Psi4 wall time for execution: 4:23:11.00

*** Psi4 exiting successfully. Buy a developer a beer!
