
    -----------------------------------------------------------------------
          Psi4: An Open-Source Ab Initio Electronic Structure Package
                               Psi4 1.9 release

                         Git: Rev {} zzzzzzz 


    D. G. A. Smith, L. A. Burns, A. C. Simmonett, R. M. Parrish,
    M. C. Schieber, R. Galvelis, P. Kraus, H. Kruse, R. Di Remigio,
    A. Alenaizan, A. M. James, S. Lehtola, J. P. Misiewicz, M. Scheurer,
    R. A. Shaw, J. B. Schriber, Y. Xie, Z. L. Glick, D. A. Sirianni,
    J. S. O'Brien, J. M. Waldrop, A. Kumar, E. G. Hohenstein,
    B. P. Pritchard, B. R. Brooks, H. F. Schaefer III, A. Yu. Sokolov,
    K. Patkowski, A. E. DePrince III, U. Bozkaya, R. A. King,
    F. A. Evangelista, J. M. Turney, T. D. Crawford, C. D. Sherrill,
    J. Chem. Phys. 152(18) 184108 (2020). https://doi.org/10.1063/5.0006002

                            Additional Code Authors
    E. T. Seidl, C. L. Janssen, E. F. Valeev, M. L. Leininger,
    J. F. Gonthier, R. M. Richard, H. R. McAlexander, M. Saitow, X. Wang,
    P. Verma, M. H. Lechner, A. Jiang, S. Behnle, A. G. Heide,
    M. F. Herbst, and D. L. Poole

             Previous Authors, Complete List of Code Contributors,
                       and Citations for Specific Modules
    https://github.com/psi4/psi4/blob/master/codemeta.json
    https://github.com/psi4/psi4/graphs/contributors
    http://psicode.org/psi4manual/master/introduction.html#citing-psifour

    -----------------------------------------------------------------------


    Psi4 started on: Saturday, 20 January 2024 10:16PM

    Process ID: 434499
    Host:       d-6-7-1
    PSIDATADIR: /home/gridsan/tfroembgen/.conda/envs/psi4test/share/psi4
    Memory:     500.0 MiB
    Threads:    12
    
  ==> Input File <==

--------------------------------------------------------------------------
memory 32 GB # how much memory is available ! Depends on the nodes/cores !

molecule dimer {
# monomer A
-1 1    # Charge and multiplicity
B -1.977592e-04  2.742729e-04 -4.199966
F  1.123153e-16  1.430594e-17 -2.787181
F  1.147860e+00  6.757812e-01 -4.671107
F  1.191806e-02 -1.332011e+00 -4.670905
F -1.159666e+00  6.560735e-01 -4.670826
--
# monomer B
0 1     # Charge and multiplicity
C   1.22531237526482      0.70753866091955      0.00613762728373
C   1.22532433589282     -0.70753852257020     -0.00619318228664
C   -0.00000567409046      1.41496628609039     -0.00672680580738
C   2.45644923379077      1.41832825917820      0.00902448468363
C   0.00001130712078     -1.41497612663474      0.00347275151708
C   -1.22530046906674      0.70754574598412      0.00838914760619
C   2.45643823516184     -1.41832293188077     -0.00843833914343
C   -0.00000085313587      2.83680140328112     -0.00913035594137
C   3.68182717731192      0.70931832800114     -0.00808954934571
C   2.45512052870677      2.83422403348893     -0.00819210630633
C   3.68182158506039     -0.70933346742900      0.00798293467272
C   -1.22531311884624     -0.70752714354401     -0.00512042085974
C   1.22670006104402      3.54346985599427      0.00816696660346
C   0.00000526469929     -2.83678176723568      0.00832091913869
C   -2.45643555300670      1.41831729028492      0.00842454345199
C   2.45512389762097     -2.83422965658853      0.00783102630520
C   -1.22671388474763      3.54346943575023      0.00827029982280
C   4.91451777504333      1.42717324448953     -0.00160886631602
C   3.69315067131765      3.54279566454522     -0.00155906667985
C   -2.45643712022637     -1.41831290883911     -0.00846337726810
C   1.22670532178455     -3.54347386990643     -0.00780316414624
C   -2.45512491866593      2.83421703463423     -0.00818572995999
C   4.91452486062398     -1.42718653794377      0.00136387641845
C   1.22142509354026      4.97013443726031      0.00150231067809
C   4.89300870916237      2.82518837202648     -0.00039219795739
C   -1.22669652864725     -3.54347062507680     -0.00753595973677
C   -3.68181849668397      0.70932533873199     -0.00807686886569
C   3.69314758099218     -3.54280096939050      0.00148176697923
C   -1.22143177215231      4.97012866986289      0.00168580605083
C   6.13477145276790      0.68054831910577     -0.00083909176631
C   3.65678936045204      4.97295361556775     -0.00065042889723
C   -2.45512642789169     -2.83421472106065      0.00758666850712
C   -3.68181869921921     -0.70932533146830      0.00810055625144
C   4.89301309775526     -2.82519973363176      0.00021895393805
C   -0.00000059327114      5.65044773803267      0.00045449734393
C   6.13477559217374     -0.68055448207492      0.00042622874941
C   2.47813196269732      5.65357712333155      0.00063835075260
C   1.22142288457925     -4.97012668293268     -0.00129718634452
C   -3.69316190412301      3.54279732619245     -0.00139355922051
C   -1.22142804110313     -4.97011793159564     -0.00140994817719
C   -4.91452132810043      1.42717581899491     -0.00153192130862
C   3.65678749952045     -4.97295485423912      0.00080007163680
C   -2.47813805026426      5.65357479452875      0.00092287576113
C   -3.69314125872231     -3.54278984697859      0.00136564082345
C   -4.91451200321153     -1.42718062802730      0.00139857359209
C   -0.00000552908399     -5.65043791501335      0.00005899322272
C   -4.89302000425900      2.82518897091939     -0.00040227981744
C   2.47812647313991     -5.65357317188818     -0.00029052915548
C   -3.65679823041642      4.97295655404175     -0.00047374852278
C   -4.89299899901461     -2.82519139505969      0.00006491824035
C   -2.47812801824129     -5.65356579800621     -0.00056571680280
C   -6.13477002348955      0.68054913825639     -0.00086464346868
C   -3.65678835334731     -4.97294365097028      0.00058578382008
C   -6.13476456307132     -0.68055354348201      0.00040575295444
H   5.83528897565761      3.36927626695423      0.00396712770529
H   7.07385965258860      1.22821762089947     -0.00037744837300
H   4.60066374401555      5.51238117445323     -0.00014522814529
H   5.83528386714679     -3.36930568472863     -0.00423551337640
H   -0.00001167146422      6.73853104613662     -0.00389474766392
H   7.07386165167227     -1.22822657074368     -0.00008250934481
H   2.47331421164041      6.74068466339473      0.00017162982210
H   4.60066897122302     -5.51237575717576      0.00039007446835
H   -2.47331820069565      6.74068209160650      0.00047297644710
H   -0.00000978838621     -6.73852780445195      0.00458867820736
H   -5.83530143450167      3.36927132229595      0.00410314985360
H   2.47330840367253     -6.74068500242887      0.00027980126949
H   -4.60067436136587      5.51237839860371      0.00002010017831
H   -5.83527902699321     -3.36928859177951     -0.00451481925734
H   -2.47329986759855     -6.74067870613986     -0.00016951527498
H   -7.07385728692578      1.22822084484047     -0.00046143985387
H   -4.60067330624313     -5.51236229778631      0.00021776644566
H   -7.07385645456741     -1.22822025997701     -0.00017736581114

    units angstrom      # Angstroms are the default
    no_reorient         # Geometry fixed, default
    symmetry c1         # C1 symmetry, default
}

set {
    scf_type DF         # Density fitting, faster than exact integrals
    freeze_core True    # Freeze core electrons
    basis jun-cc-pVDZ   # Jun-cc-pVDZ basis set, recommended for sSAPT0 in https://doi.org/10.1063/1.4867135
}

energy('ssapt0')        # Compute sSAPT0 energy, includes also SAPT0
--------------------------------------------------------------------------

  Memory set to  29.802 GiB by Python driver.

Scratch directory: /state/partition1/slurm_tmp/24778934.4294967291.0/
   => Loading Basis Set <=

    Name: JUN-CC-PVDZ
    Role: ORBITAL
    Keyword: BASIS
    atoms 1     entry B          line   130 file /home/gridsan/tfroembgen/.conda/envs/psi4test/share/psi4/basis/jun-cc-pvdz.gbs 
    atoms 2-5   entry F          line   266 file /home/gridsan/tfroembgen/.conda/envs/psi4test/share/psi4/basis/jun-cc-pvdz.gbs 
    atoms 6-59  entry C          line   164 file /home/gridsan/tfroembgen/.conda/envs/psi4test/share/psi4/basis/jun-cc-pvdz.gbs 
    atoms 60-77 entry H          line    36 file /home/gridsan/tfroembgen/.conda/envs/psi4test/share/psi4/basis/jun-cc-pvdz.gbs 

   => Loading Basis Set <=

    Name: JUN-CC-PVDZ
    Role: ORBITAL
    Keyword: BASIS
    atoms 1     entry B          line   130 file /home/gridsan/tfroembgen/.conda/envs/psi4test/share/psi4/basis/jun-cc-pvdz.gbs 
    atoms 2-5   entry F          line   266 file /home/gridsan/tfroembgen/.conda/envs/psi4test/share/psi4/basis/jun-cc-pvdz.gbs 
    atoms 6-59  entry C          line   164 file /home/gridsan/tfroembgen/.conda/envs/psi4test/share/psi4/basis/jun-cc-pvdz.gbs 
    atoms 60-77 entry H          line    36 file /home/gridsan/tfroembgen/.conda/envs/psi4test/share/psi4/basis/jun-cc-pvdz.gbs 


  //>>>>>>>>>>>>>>>>>>>>>>>>>>>>>>>>>>>//
  //              Dimer HF             //
  //<<<<<<<<<<<<<<<<<<<<<<<<<<<<<<<<<<<//

   => Libint2 <=

    Primary   basis highest AM E, G, H:  7, 7, 4
    Auxiliary basis highest AM E, G, H:  7, 7, 5
    Onebody   basis highest AM E, G, H:  7, 7, 5
    Solid Harmonics ordering:            gaussian

*** tstart() called on d-6-7-1
*** at Sat Jan 20 22:16:02 2024

   => Loading Basis Set <=

    Name: JUN-CC-PVDZ
    Role: ORBITAL
    Keyword: BASIS
    atoms 1     entry B          line   130 file /home/gridsan/tfroembgen/.conda/envs/psi4test/share/psi4/basis/jun-cc-pvdz.gbs 
    atoms 2-5   entry F          line   266 file /home/gridsan/tfroembgen/.conda/envs/psi4test/share/psi4/basis/jun-cc-pvdz.gbs 
    atoms 6-59  entry C          line   164 file /home/gridsan/tfroembgen/.conda/envs/psi4test/share/psi4/basis/jun-cc-pvdz.gbs 
    atoms 60-77 entry H          line    36 file /home/gridsan/tfroembgen/.conda/envs/psi4test/share/psi4/basis/jun-cc-pvdz.gbs 


         ---------------------------------------------------------
                                   SCF
               by Justin Turney, Rob Parrish, Andy Simmonett
                          and Daniel G. A. Smith
                              RHF Reference
                       12 Threads,  30517 MiB Core
         ---------------------------------------------------------

  ==> Geometry <==

    Molecular point group: c1
    Full point group: C1

    Geometry (in Angstrom), charge = -1, multiplicity = 1:

       Center              X                  Y                   Z               Mass       
    ------------   -----------------  -----------------  -----------------  -----------------
         B           -0.000198161052     0.000273808717    -3.714781183723    11.009305360000
         F           -0.000000401852    -0.000000464183    -2.301996183723    18.998403162730
         F            1.147859598148     0.675780735817    -4.185922183723    18.998403162730
         F            0.011917658148    -1.332011464183    -4.185720183723    18.998403162730
         F           -1.159666401852     0.656073035817    -4.185641183723    18.998403162730
         C            1.225311973413     0.707538196736     0.491322443561    12.000000000000
         C            1.225323934041    -0.707538986754     0.478991633991    12.000000000000
         C           -0.000006075942     1.414965821907     0.478458010470    12.000000000000
         C            2.456448831939     1.418327794995     0.494209300961    12.000000000000
         C            0.000010905269    -1.414976590818     0.488657567795    12.000000000000
         C           -1.225300870919     0.707545281801     0.493573963884    12.000000000000
         C            2.456437833310    -1.418323396064     0.476746477134    12.000000000000
         C           -0.000001254988     2.836800939098     0.476054460336    12.000000000000
         C            3.681826775460     0.709317863818     0.477095266932    12.000000000000
         C            2.455120126855     2.834223569306     0.476992709971    12.000000000000
         C            3.681821183209    -0.709333931612     0.493167750950    12.000000000000
         C           -1.225313520698    -0.707527607727     0.480064395418    12.000000000000
         C            1.226699659192     3.543469391811     0.493351782881    12.000000000000
         C            0.000004862847    -2.836782231419     0.493505735416    12.000000000000
         C           -2.456435954859     1.418316826102     0.493609359729    12.000000000000
         C            2.455123495769    -2.834230120772     0.493015842583    12.000000000000
         C           -1.226714286599     3.543468971567     0.493455116100    12.000000000000
         C            4.914517373191     1.427172780306     0.483575949961    12.000000000000
         C            3.693150269466     3.542795200362     0.483625749598    12.000000000000
         C           -2.456437522078    -1.418313373022     0.476721439009    12.000000000000
         C            1.226704919933    -3.543474334090     0.477381652131    12.000000000000
         C           -2.455125320518     2.834216570451     0.476999086317    12.000000000000
         C            4.914524458772    -1.427187002127     0.486548692696    12.000000000000
         C            1.221424691688     4.970133973077     0.486687126956    12.000000000000
         C            4.893008307311     2.825187907843     0.484792618320    12.000000000000
         C           -1.226696930499    -3.543471089260     0.477648856541    12.000000000000
         C           -3.681818898536     0.709324874549     0.477107947412    12.000000000000
         C            3.693147179140    -3.542801433574     0.486666583257    12.000000000000
         C           -1.221432174004     4.970128205680     0.486870622328    12.000000000000
         C            6.134771050916     0.680547854922     0.484345724511    12.000000000000
         C            3.656788958600     4.972953151384     0.484534387380    12.000000000000
         C           -2.455126829744    -2.834215185244     0.492771484785    12.000000000000
         C           -3.681819101071    -0.709325795652     0.493285372529    12.000000000000
         C            4.893012695903    -2.825200197815     0.485403770216    12.000000000000
         C           -0.000000995123     5.650447273849     0.485639313621    12.000000000000
         C            6.134775190322    -0.680554946258     0.485611045027    12.000000000000
         C            2.478131560845     5.653576659148     0.485823167030    12.000000000000
         C            1.221422482727    -4.970127147116     0.483887629933    12.000000000000
         C           -3.693162305975     3.542796862009     0.483791257057    12.000000000000
         C           -1.221428442955    -4.970118395779     0.483774868100    12.000000000000
         C           -4.914521729952     1.427175354812     0.483652894969    12.000000000000
         C            3.656787097669    -4.972955318422     0.485984887914    12.000000000000
         C           -2.478138452116     5.653574330345     0.486107692039    12.000000000000
         C           -3.693141660574    -3.542790311162     0.486550457101    12.000000000000
         C           -4.914512405063    -1.427181092211     0.486583389870    12.000000000000
         C           -0.000005930936    -5.650438379197     0.485243809500    12.000000000000
         C           -4.893020406111     2.825188506736     0.484782536460    12.000000000000
         C            2.478126071288    -5.653573636072     0.484894287122    12.000000000000
         C           -3.656798632268     4.972956089858     0.484711067755    12.000000000000
         C           -4.892999400866    -2.825191859243     0.485249734518    12.000000000000
         C           -2.478128420093    -5.653566262190     0.484619099475    12.000000000000
         C           -6.134770425341     0.680548674073     0.484320172809    12.000000000000
         C           -3.656788755199    -4.972944115154     0.485770600098    12.000000000000
         C           -6.134764964923    -0.680554007665     0.485590569232    12.000000000000
         H            5.835288573806     3.369275802771     0.489151943983     1.007825032230
         H            7.073859250737     1.228217156716     0.484807367904     1.007825032230
         H            4.600663342164     5.512380710270     0.485039588132     1.007825032230
         H            5.835283465295    -3.369306148912     0.480949302901     1.007825032230
         H           -0.000012073316     6.738530581953     0.481290068614     1.007825032230
         H            7.073861249820    -1.228227034927     0.485102306933     1.007825032230
         H            2.473313809789     6.740684199211     0.485356446100     1.007825032230
         H            4.600668569371    -5.512376221359     0.485574890746     1.007825032230
         H           -2.473318602548     6.740681627423     0.485657792725     1.007825032230
         H           -0.000010190238    -6.738528268635     0.489773494485     1.007825032230
         H           -5.835301836354     3.369270858113     0.489287966131     1.007825032230
         H            2.473308001821    -6.740685466612     0.485464617547     1.007825032230
         H           -4.600674763218     5.512377934420     0.485204916456     1.007825032230
         H           -5.835279428845    -3.369289055963     0.480669997020     1.007825032230
         H           -2.473300269450    -6.740679170323     0.485015301003     1.007825032230
         H           -7.073857688778     1.228220380657     0.484723376424     1.007825032230
         H           -4.600673708095    -5.512362761970     0.485402582723     1.007825032230
         H           -7.073856856419    -1.228220724160     0.485007450466     1.007825032230

  Running in c1 symmetry.

  Rotational constants: A =      0.00186  B =      0.00186  C =      0.00110 [cm^-1]
  Rotational constants: A =     55.78460  B =     55.77741  C =     33.02251 [MHz]
  Nuclear repulsion = 7844.313677505833766

  Charge       = -1
  Multiplicity = 1
  Electrons    = 384
  Nalpha       = 192
  Nbeta        = 192

  ==> Algorithm <==

  SCF Algorithm Type is DF.
  DIIS enabled.
  MOM disabled.
  Fractional occupation disabled.
  Guess Type is SAD.
  Energy threshold   = 1.00e-08
  Density threshold  = 1.00e-08
  Integral threshold = 1.00e-12

  ==> Primary Basis <==

  Basis Set: JUN-CC-PVDZ
    Blend: JUN-CC-PVDZ
    Number of shells: 526
    Number of basis functions: 1152
    Number of Cartesian functions: 1211
    Spherical Harmonics?: true
    Max angular momentum: 2

   => Loading Basis Set <=

    Name: (JUN-CC-PVDZ AUX)
    Role: JKFIT
    Keyword: DF_BASIS_SCF
    atoms 1     entry B          line    90 file /home/gridsan/tfroembgen/.conda/envs/psi4test/share/psi4/basis/jun-cc-pvdz-jkfit.gbs 
    atoms 2-5   entry F          line   314 file /home/gridsan/tfroembgen/.conda/envs/psi4test/share/psi4/basis/jun-cc-pvdz-jkfit.gbs 
    atoms 6-59  entry C          line   146 file /home/gridsan/tfroembgen/.conda/envs/psi4test/share/psi4/basis/jun-cc-pvdz-jkfit.gbs 
    atoms 60-77 entry H          line    70 file /home/gridsan/tfroembgen/.conda/envs/psi4test/share/psi4/basis/jun-cc-pvdz-jkfit.gbs 

  ==> Integral Setup <==

  ==> DiskDFJK: Density-Fitted J/K Matrices <==

    J tasked:                  Yes
    K tasked:                  Yes
    wK tasked:                  No
    OpenMP threads:             12
    Integrals threads:          12
    Memory [MiB]:            22888
    Algorithm:                Core
    Integral Cache:           SAVE
    Schwarz Cutoff:          1E-12
    Fitting Condition:       1E-10

   => Auxiliary Basis Set <=

  Basis Set: (JUN-CC-PVDZ AUX)
    Blend: JUN-CC-PVDZ-JKFIT
    Number of shells: 1755
    Number of basis functions: 5075
    Number of Cartesian functions: 5819
    Spherical Harmonics?: true
    Max angular momentum: 3

  Minimum eigenvalue in the overlap matrix is 8.3000448428E-10.
  Reciprocal condition number of the overlap matrix is 3.5877202601E-11.
    Using canonical orthogonalization.
  Overall, 14 of 1152 possible MOs eliminated.


  ==> Pre-Iterations <==

  SCF Guess: Superposition of Atomic Densities via on-the-fly atomic UHF (no occupation information).

   -------------------------
    Irrep   Nso     Nmo    
   -------------------------
     A       1152    1138 
   -------------------------
    Total    1152    1138
   -------------------------

  ==> Iterations <==

                           Total Energy        Delta E     RMS |[F,P]|

   @DF-RHF iter SAD: -2483.34100330763795   -2.48334e+03   0.00000e+00 
   @DF-RHF iter   1: -2477.60251923910300    5.73848e+00   1.10690e-03 DIIS/ADIIS
   @DF-RHF iter   2: -2478.49946597172311   -8.96947e-01   4.90209e-04 DIIS/ADIIS
   @DF-RHF iter   3: -2478.64202502311628   -1.42559e-01   1.43353e-04 DIIS/ADIIS
   @DF-RHF iter   4: -2478.65668881897955   -1.46638e-02   6.71613e-05 DIIS
   @DF-RHF iter   5: -2478.66040702913642   -3.71821e-03   1.76879e-05 DIIS
   @DF-RHF iter   6: -2478.66073508361387   -3.28054e-04   5.34934e-06 DIIS
   @DF-RHF iter   7: -2478.66081685187191   -8.17683e-05   2.65471e-06 DIIS
   @DF-RHF iter   8: -2478.66083946661774   -2.26147e-05   1.21195e-06 DIIS
   @DF-RHF iter   9: -2478.66084628845283   -6.82184e-06   2.73936e-07 DIIS
   @DF-RHF iter  10: -2478.66084654393308   -2.55480e-07   9.69688e-08 DIIS
   @DF-RHF iter  11: -2478.66084656339854   -1.94655e-08   3.74564e-08 DIIS
   @DF-RHF iter  12: -2478.66084656741123   -4.01269e-09   1.30313e-08 DIIS
   @DF-RHF iter  13: -2478.66084656789462   -4.83396e-10   4.90496e-09 DIIS
  Energy and wave function converged.


  ==> Post-Iterations <==

    Orbital Energies [Eh]
    ---------------------

    Doubly Occupied:                                                      

       1A    -26.082771     2A    -26.074354     3A    -26.074261  
       4A    -26.074177     5A    -11.183267     6A    -11.183251  
       7A    -11.183250     8A    -11.183183     9A    -11.183168  
      10A    -11.183166    11A    -11.183121    12A    -11.183113  
      13A    -11.183112    14A    -11.183037    15A    -11.183029  
      16A    -11.183028    17A    -11.180660    18A    -11.180657  
      19A    -11.180656    20A    -11.180654    21A    -11.180651  
      22A    -11.180649    23A    -11.179460    24A    -11.179404  
      25A    -11.179402    26A    -11.179253    27A    -11.179251  
      28A    -11.179249    29A    -11.179245    30A    -11.179242  
      31A    -11.179241    32A    -11.179219    33A    -11.179219  
      34A    -11.179007    35A    -11.178890    36A    -11.178609  
      37A    -11.178606    38A    -11.178252    39A    -11.178249  
      40A    -11.177983    41A    -11.177812    42A    -11.177606  
      43A    -11.177604    44A    -11.177409    45A    -11.177407  
      46A    -11.177347    47A    -11.176473    48A    -11.176468  
      49A    -11.176467    50A    -11.176409    51A    -11.176407  
      52A    -11.176403    53A    -11.174674    54A    -11.174186  
      55A    -11.174169    56A    -11.173098    57A    -11.173084  
      58A    -11.172560    59A     -7.548619    60A     -1.420822  
      61A     -1.365610    62A     -1.358404    63A     -1.358241  
      64A     -1.162484    65A     -1.141393    66A     -1.141392  
      67A     -1.112761    68A     -1.112754    69A     -1.100510  
      70A     -1.082345    71A     -1.072570    72A     -1.056490  
      73A     -1.056482    74A     -1.038122    75A     -1.038118  
      76A     -1.004706    77A     -1.004696    78A     -1.000121  
      79A     -0.991261    80A     -0.991256    81A     -0.963476  
      82A     -0.945413    83A     -0.942908    84A     -0.942090  
      85A     -0.942048    86A     -0.938308    87A     -0.909761  
      88A     -0.909718    89A     -0.886309    90A     -0.886260  
      91A     -0.819267    92A     -0.819237    93A     -0.808812  
      94A     -0.806666    95A     -0.806611    96A     -0.804099  
      97A     -0.804050    98A     -0.786668    99A     -0.764312  
     100A     -0.742718   101A     -0.738550   102A     -0.734929  
     103A     -0.734923   104A     -0.720200   105A     -0.720190  
     106A     -0.668869   107A     -0.667652   108A     -0.657520  
     109A     -0.657497   110A     -0.655748   111A     -0.655741  
     112A     -0.639848   113A     -0.623771   114A     -0.623758  
     115A     -0.617574   116A     -0.617556   117A     -0.613099  
     118A     -0.586870   119A     -0.576199   120A     -0.576195  
     121A     -0.576088   122A     -0.573355   123A     -0.564557  
     124A     -0.564554   125A     -0.553064   126A     -0.551023  
     127A     -0.551008   128A     -0.542902   129A     -0.537261  
     130A     -0.537180   131A     -0.534496   132A     -0.524820  
     133A     -0.524788   134A     -0.524549   135A     -0.521525  
     136A     -0.517293   137A     -0.512781   138A     -0.512767  
     139A     -0.512539   140A     -0.497552   141A     -0.497546  
     142A     -0.493366   143A     -0.493350   144A     -0.489229  
     145A     -0.489219   146A     -0.481389   147A     -0.480228  
     148A     -0.480217   149A     -0.464269   150A     -0.464266  
     151A     -0.461442   152A     -0.461437   153A     -0.457309  
     154A     -0.457273   155A     -0.454140   156A     -0.447253  
     157A     -0.447243   158A     -0.446924   159A     -0.426521  
     160A     -0.420864   161A     -0.418585   162A     -0.418210  
     163A     -0.418132   164A     -0.417120   165A     -0.411754  
     166A     -0.408380   167A     -0.405771   168A     -0.405762  
     169A     -0.396694   170A     -0.396635   171A     -0.391932  
     172A     -0.388648   173A     -0.388642   174A     -0.372433  
     175A     -0.372353   176A     -0.364627   177A     -0.364618  
     178A     -0.326621   179A     -0.326598   180A     -0.322674  
     181A     -0.301515   182A     -0.301512   183A     -0.273144  
     184A     -0.256480   185A     -0.253589   186A     -0.253550  
     187A     -0.236259   188A     -0.224870   189A     -0.205637  
     190A     -0.205583   191A     -0.148154   192A     -0.148098  

    Virtual:                                                              

     193A      0.089677   194A      0.089743   195A      0.106208  
     196A      0.106215   197A      0.107888   198A      0.108679  
     199A      0.108685   200A      0.115226   201A      0.119571  
     202A      0.130567   203A      0.130568   204A      0.142110  
     205A      0.142154   206A      0.145333   207A      0.145336  
     208A      0.147209   209A      0.153341   210A      0.153348  
     211A      0.153731   212A      0.153756   213A      0.154414  
     214A      0.159511   215A      0.159514   216A      0.160009  
     217A      0.162407   218A      0.165056   219A      0.167307  
     220A      0.174326   221A      0.174936   222A      0.174944  
     223A      0.177207   224A      0.179585   225A      0.187090  
     226A      0.187125   227A      0.188547   228A      0.188563  
     229A      0.189529   230A      0.189539   231A      0.193277  
     232A      0.193847   233A      0.194922   234A      0.197151  
     235A      0.199087   236A      0.199105   237A      0.204797  
     238A      0.212460   239A      0.212462   240A      0.215630  
     241A      0.215640   242A      0.217289   243A      0.217293  
     244A      0.221814   245A      0.221820   246A      0.222304  
     247A      0.233320   248A      0.237763   249A      0.237786  
     250A      0.242477   251A      0.247723   252A      0.249809  
     253A      0.249827   254A      0.250606   255A      0.250621  
     256A      0.254079   257A      0.257959   258A      0.258014  
     259A      0.259740   260A      0.259784   261A      0.262964  
     262A      0.266146   263A      0.266152   264A      0.267486  
     265A      0.267490   266A      0.269196   267A      0.271111  
     268A      0.273145   269A      0.273168   270A      0.275244  
     271A      0.276348   272A      0.276366   273A      0.276802  
     274A      0.279977   275A      0.281084   276A      0.288558  
     277A      0.288573   278A      0.288674   279A      0.289955  
     280A      0.289975   281A      0.293744   282A      0.294932  
     283A      0.294939   284A      0.300289   285A      0.302530  
     286A      0.302566   287A      0.302587   288A      0.307527  
     289A      0.307531   290A      0.307989   291A      0.310456  
     292A      0.316454   293A      0.319122   294A      0.319124  
     295A      0.321653   296A      0.321662   297A      0.324870  
     298A      0.324881   299A      0.329948   300A      0.329986  
     301A      0.331830   302A      0.331859   303A      0.339921  
     304A      0.339925   305A      0.340209   306A      0.340212  
     307A      0.346347   308A      0.350853   309A      0.350874  
     310A      0.354928   311A      0.354981   312A      0.357002  
     313A      0.358068   314A      0.358127   315A      0.359148  
     316A      0.359168   317A      0.364471   318A      0.367511  
     319A      0.369161   320A      0.369173   321A      0.371394  
     322A      0.376363   323A      0.377221   324A      0.377253  
     325A      0.378524   326A      0.378592   327A      0.380073  
     328A      0.382686   329A      0.383626   330A      0.383630  
     331A      0.387749   332A      0.388644   333A      0.388661  
     334A      0.388776   335A      0.390809   336A      0.395344  
     337A      0.396206   338A      0.400750   339A      0.400894  
     340A      0.404366   341A      0.405242   342A      0.407089  
     343A      0.407122   344A      0.410428   345A      0.410441  
     346A      0.411744   347A      0.417933   348A      0.417956  
     349A      0.418549   350A      0.420988   351A      0.422823  
     352A      0.422866   353A      0.431867   354A      0.433998  
     355A      0.434026   356A      0.434440   357A      0.437611  
     358A      0.437633   359A      0.442766   360A      0.442806  
     361A      0.445841   362A      0.447424   363A      0.455648  
     364A      0.455677   365A      0.457197   366A      0.457276  
     367A      0.460751   368A      0.460774   369A      0.460836  
     370A      0.461899   371A      0.461938   372A      0.463317  
     373A      0.463521   374A      0.468235   375A      0.468267  
     376A      0.468853   377A      0.470109   378A      0.470145  
     379A      0.473326   380A      0.474882   381A      0.474939  
     382A      0.476050   383A      0.484392   384A      0.484446  
     385A      0.485438   386A      0.486445   387A      0.486600  
     388A      0.487989   389A      0.488967   390A      0.489018  
     391A      0.493793   392A      0.493844   393A      0.497248  
     394A      0.499423   395A      0.499446   396A      0.499545  
     397A      0.502297   398A      0.502359   399A      0.505477  
     400A      0.509136   401A      0.509241   402A      0.509523  
     403A      0.510118   404A      0.510954   405A      0.511030  
     406A      0.513512   407A      0.519245   408A      0.519299  
     409A      0.520257   410A      0.523541   411A      0.523600  
     412A      0.523932   413A      0.523963   414A      0.531761  
     415A      0.531836   416A      0.536074   417A      0.538380  
     418A      0.538390   419A      0.542906   420A      0.543725  
     421A      0.547045   422A      0.547068   423A      0.547518  
     424A      0.550562   425A      0.550643   426A      0.551659  
     427A      0.554404   428A      0.554418   429A      0.556470  
     430A      0.562489   431A      0.562558   432A      0.564947  
     433A      0.564997   434A      0.567698   435A      0.567718  
     436A      0.571682   437A      0.575659   438A      0.576168  
     439A      0.576210   440A      0.579109   441A      0.580365  
     442A      0.580380   443A      0.583213   444A      0.587083  
     445A      0.587120   446A      0.590445   447A      0.598106  
     448A      0.598133   449A      0.605218   450A      0.605346  
     451A      0.608554   452A      0.609543   453A      0.610412  
     454A      0.613900   455A      0.615407   456A      0.618693  
     457A      0.618721   458A      0.620086   459A      0.623714  
     460A      0.623727   461A      0.625642   462A      0.626830  
     463A      0.634182   464A      0.637463   465A      0.638945  
     466A      0.639016   467A      0.640382   468A      0.640446  
     469A      0.644040   470A      0.645176   471A      0.652886  
     472A      0.652943   473A      0.654467   474A      0.662200  
     475A      0.662335   476A      0.669581   477A      0.675038  
     478A      0.675062   479A      0.680061   480A      0.693750  
     481A      0.693848   482A      0.700242   483A      0.700379  
     484A      0.703470   485A      0.703601   486A      0.711609  
     487A      0.716561   488A      0.716616   489A      0.721344  
     490A      0.727439   491A      0.729597   492A      0.729602  
     493A      0.732687   494A      0.744377   495A      0.744453  
     496A      0.744802   497A      0.752978   498A      0.753003  
     499A      0.764042   500A      0.786749   501A      0.787168  
     502A      0.794429   503A      0.794515   504A      0.811379  
     505A      0.813065   506A      0.814476   507A      0.815276  
     508A      0.815344   509A      0.820228   510A      0.820304  
     511A      0.823774   512A      0.823784   513A      0.831893  
     514A      0.831930   515A      0.833347   516A      0.849063  
     517A      0.861981   518A      0.866213   519A      0.875535  
     520A      0.875609   521A      0.881071   522A      0.888468  
     523A      0.891960   524A      0.894259   525A      0.894279  
     526A      0.896269   527A      0.896531   528A      0.902245  
     529A      0.902269   530A      0.902563   531A      0.902587  
     532A      0.912846   533A      0.927724   534A      0.927739  
     535A      0.936856   536A      0.938062   537A      0.938307  
     538A      0.938347   539A      0.943275   540A      0.943377  
     541A      0.948907   542A      0.948977   543A      0.956961  
     544A      0.957063   545A      0.963228   546A      0.963322  
     547A      0.969346   548A      0.969408   549A      0.971416  
     550A      0.972104   551A      0.972130   552A      0.980554  
     553A      0.980604   554A      0.981013   555A      0.982459  
     556A      0.983954   557A      0.985596   558A      0.988415  
     559A      0.988581   560A      0.993907   561A      0.993975  
     562A      0.998438   563A      0.998569   564A      1.006839  
     565A      1.010520   566A      1.010561   567A      1.013084  
     568A      1.013300   569A      1.014016   570A      1.016233  
     571A      1.019591   572A      1.019685   573A      1.023623  
     574A      1.023743   575A      1.041114   576A      1.041954  
     577A      1.042429   578A      1.042436   579A      1.046814  
     580A      1.047161   581A      1.053578   582A      1.055634  
     583A      1.059173   584A      1.059345   585A      1.064413  
     586A      1.066119   587A      1.073367   588A      1.073389  
     589A      1.077896   590A      1.078091   591A      1.081774  
     592A      1.087787   593A      1.088270   594A      1.088305  
     595A      1.091883   596A      1.091926   597A      1.093933  
     598A      1.108034   599A      1.108080   600A      1.111262  
     601A      1.115228   602A      1.115284   603A      1.118971  
     604A      1.118994   605A      1.120223   606A      1.123612  
     607A      1.123862   608A      1.125407   609A      1.127013  
     610A      1.127233   611A      1.127673   612A      1.130162  
     613A      1.130201   614A      1.131456   615A      1.131906  
     616A      1.132013   617A      1.144963   618A      1.145951  
     619A      1.145967   620A      1.151448   621A      1.151576  
     622A      1.153069   623A      1.159668   624A      1.163330  
     625A      1.166231   626A      1.166278   627A      1.171906  
     628A      1.171914   629A      1.174621   630A      1.174659  
     631A      1.178758   632A      1.178876   633A      1.180598  
     634A      1.187241   635A      1.187331   636A      1.190271  
     637A      1.190349   638A      1.192998   639A      1.202632  
     640A      1.206417   641A      1.206671   642A      1.206803  
     643A      1.214236   644A      1.214352   645A      1.218213  
     646A      1.218357   647A      1.219308   648A      1.219664  
     649A      1.224896   650A      1.225288   651A      1.225293  
     652A      1.230580   653A      1.230749   654A      1.230933  
     655A      1.232272   656A      1.238310   657A      1.252503  
     658A      1.261772   659A      1.262638   660A      1.262740  
     661A      1.266530   662A      1.266547   663A      1.275408  
     664A      1.275496   665A      1.275602   666A      1.278147  
     667A      1.278221   668A      1.287931   669A      1.295840  
     670A      1.295897   671A      1.297430   672A      1.298156  
     673A      1.298187   674A      1.309148   675A      1.311272  
     676A      1.311322   677A      1.322407   678A      1.333393  
     679A      1.333503   680A      1.337180   681A      1.337266  
     682A      1.339168   683A      1.339304   684A      1.340605  
     685A      1.340681   686A      1.350550   687A      1.351802  
     688A      1.368345   689A      1.372284   690A      1.372297  
     691A      1.372992   692A      1.380515   693A      1.380662  
     694A      1.382842   695A      1.384282   696A      1.384306  
     697A      1.386891   698A      1.386940   699A      1.390000  
     700A      1.399509   701A      1.399544   702A      1.402384  
     703A      1.406679   704A      1.406768   705A      1.410871  
     706A      1.410920   707A      1.415302   708A      1.415799  
     709A      1.423692   710A      1.432224   711A      1.432230  
     712A      1.433774   713A      1.433805   714A      1.435637  
     715A      1.435656   716A      1.437198   717A      1.452210  
     718A      1.452308   719A      1.452337   720A      1.455892  
     721A      1.456035   722A      1.466189   723A      1.470851  
     724A      1.479029   725A      1.479050   726A      1.486832  
     727A      1.486853   728A      1.489466   729A      1.489499  
     730A      1.494533   731A      1.498728   732A      1.507872  
     733A      1.511319   734A      1.511345   735A      1.514354  
     736A      1.514388   737A      1.514670   738A      1.515395  
     739A      1.523906   740A      1.523928   741A      1.525968  
     742A      1.528157   743A      1.528194   744A      1.531500  
     745A      1.545384   746A      1.545450   747A      1.562489  
     748A      1.562508   749A      1.592722   750A      1.592742  
     751A      1.599537   752A      1.599560   753A      1.601587  
     754A      1.609999   755A      1.629799   756A      1.651522  
     757A      1.651660   758A      1.653723   759A      1.661878  
     760A      1.681375   761A      1.681766   762A      1.689691  
     763A      1.694376   764A      1.694536   765A      1.696163  
     766A      1.696547   767A      1.697980   768A      1.705277  
     769A      1.706616   770A      1.706657   771A      1.715858  
     772A      1.716045   773A      1.718657   774A      1.718673  
     775A      1.721647   776A      1.722758   777A      1.724652  
     778A      1.724984   779A      1.737459   780A      1.737499  
     781A      1.742577   782A      1.743557   783A      1.751968  
     784A      1.751995   785A      1.755017   786A      1.759248  
     787A      1.759270   788A      1.759380   789A      1.765647  
     790A      1.765692   791A      1.771490   792A      1.774314  
     793A      1.774341   794A      1.774728   795A      1.783895  
     796A      1.784962   797A      1.785023   798A      1.791346  
     799A      1.791355   800A      1.818408   801A      1.829679  
     802A      1.832984   803A      1.835989   804A      1.836005  
     805A      1.838139   806A      1.852967   807A      1.852998  
     808A      1.868115   809A      1.868123   810A      1.890745  
     811A      1.891267   812A      1.891305   813A      1.903728  
     814A      1.903821   815A      1.907080   816A      1.907157  
     817A      1.914259   818A      1.917285   819A      1.920070  
     820A      1.923209   821A      1.934837   822A      1.934856  
     823A      1.939841   824A      1.941259   825A      1.941291  
     826A      1.948885   827A      1.952653   828A      1.958188  
     829A      1.958234   830A      1.973331   831A      1.973449  
     832A      1.976284   833A      1.979454   834A      1.979755  
     835A      1.985110   836A      1.985280   837A      1.990607  
     838A      1.990824   839A      1.994623   840A      1.994783  
     841A      1.995868   842A      1.997669   843A      1.997706  
     844A      2.011409   845A      2.016134   846A      2.016279  
     847A      2.018306   848A      2.018317   849A      2.019140  
     850A      2.025225   851A      2.025279   852A      2.033715  
     853A      2.033767   854A      2.034301   855A      2.049470  
     856A      2.049547   857A      2.050273   858A      2.052804  
     859A      2.060769   860A      2.063728   861A      2.063833  
     862A      2.072977   863A      2.073508   864A      2.073646  
     865A      2.080974   866A      2.082320   867A      2.085215  
     868A      2.085256   869A      2.098544   870A      2.100597  
     871A      2.100968   872A      2.106105   873A      2.107041  
     874A      2.111215   875A      2.111418   876A      2.111915  
     877A      2.112865   878A      2.113293   879A      2.126704  
     880A      2.128233   881A      2.128426   882A      2.137745  
     883A      2.138355   884A      2.147676   885A      2.147963  
     886A      2.148299   887A      2.151327   888A      2.151496  
     889A      2.156408   890A      2.156468   891A      2.157052  
     892A      2.164735   893A      2.165167   894A      2.166736  
     895A      2.168333   896A      2.168982   897A      2.170759  
     898A      2.170854   899A      2.171742   900A      2.175745  
     901A      2.177263   902A      2.177406   903A      2.186192  
     904A      2.190255   905A      2.190467   906A      2.190686  
     907A      2.191858   908A      2.191884   909A      2.196505  
     910A      2.196853   911A      2.196974   912A      2.202938  
     913A      2.203185   914A      2.205560   915A      2.205794  
     916A      2.210220   917A      2.211126   918A      2.211173  
     919A      2.214858   920A      2.218637   921A      2.218701  
     922A      2.228920   923A      2.239259   924A      2.239319  
     925A      2.241692   926A      2.241751   927A      2.244936  
     928A      2.253568   929A      2.253795   930A      2.253857  
     931A      2.259287   932A      2.259444   933A      2.265407  
     934A      2.265508   935A      2.267453   936A      2.270278  
     937A      2.287129   938A      2.287247   939A      2.289746  
     940A      2.296216   941A      2.300260   942A      2.300302  
     943A      2.301879   944A      2.312330   945A      2.313774  
     946A      2.313893   947A      2.316277   948A      2.316484  
     949A      2.319625   950A      2.319762   951A      2.320324  
     952A      2.335093   953A      2.335216   954A      2.345671  
     955A      2.345703   956A      2.346749   957A      2.346775  
     958A      2.352956   959A      2.374710   960A      2.381438  
     961A      2.392603   962A      2.393309   963A      2.398899  
     964A      2.417299   965A      2.417473   966A      2.418735  
     967A      2.420813   968A      2.422260   969A      2.429452  
     970A      2.430080   971A      2.430377   972A      2.430795  
     973A      2.447378   974A      2.447640   975A      2.456008  
     976A      2.462850   977A      2.490222   978A      2.500310  
     979A      2.501153   980A      2.501189   981A      2.510877  
     982A      2.519648   983A      2.519796   984A      2.527764  
     985A      2.546979   986A      2.550349   987A      2.550468  
     988A      2.563057   989A      2.563085   990A      2.578689  
     991A      2.598716   992A      2.607834   993A      2.614939  
     994A      2.622359   995A      2.622433   996A      2.622940  
     997A      2.627060   998A      2.627116   999A      2.634966  
    1000A      2.635863  1001A      2.635875  1002A      2.649376  
    1003A      2.649424  1004A      2.649536  1005A      2.649897  
    1006A      2.661795  1007A      2.661989  1008A      2.663984  
    1009A      2.666952  1010A      2.670088  1011A      2.681868  
    1012A      2.699118  1013A      2.699191  1014A      2.709589  
    1015A      2.709989  1016A      2.716104  1017A      2.716170  
    1018A      2.725318  1019A      2.727267  1020A      2.727528  
    1021A      2.731128  1022A      2.759096  1023A      2.761281  
    1024A      2.762336  1025A      2.767362  1026A      2.782786  
    1027A      2.783026  1028A      2.791048  1029A      2.791068  
    1030A      2.796377  1031A      2.796405  1032A      2.800293  
    1033A      2.800473  1034A      2.829883  1035A      2.830340  
    1036A      2.851608  1037A      2.856021  1038A      2.873751  
    1039A      2.873823  1040A      2.899329  1041A      2.905926  
    1042A      2.906566  1043A      2.931496  1044A      2.931625  
    1045A      2.937142  1046A      2.938786  1047A      2.938853  
    1048A      2.939260  1049A      2.964084  1050A      2.989724  
    1051A      2.989768  1052A      3.003740  1053A      3.009814  
    1054A      3.009871  1055A      3.022404  1056A      3.022463  
    1057A      3.030024  1058A      3.030153  1059A      3.038100  
    1060A      3.084317  1061A      3.088854  1062A      3.088969  
    1063A      3.107846  1064A      3.143844  1065A      3.143856  
    1066A      3.150490  1067A      3.150553  1068A      3.165229  
    1069A      3.191228  1070A      3.191774  1071A      3.203793  
    1072A      3.207806  1073A      3.208070  1074A      3.212264  
    1075A      3.222743  1076A      3.222780  1077A      3.223491  
    1078A      3.224219  1079A      3.224260  1080A      3.236431  
    1081A      3.236751  1082A      3.241002  1083A      3.241586  
    1084A      3.265141  1085A      3.284160  1086A      3.297833  
    1087A      3.322864  1088A      3.351504  1089A      3.353255  
    1090A      3.353593  1091A      3.364965  1092A      3.365298  
    1093A      3.370412  1094A      3.497971  1095A      3.498325  
    1096A      3.540174  1097A      3.563923  1098A      3.566336  
    1099A      3.635816  1100A      3.667764  1101A      3.669760  
    1102A      3.673995  1103A      3.704372  1104A      3.706274  
    1105A      3.742777  1106A      3.755332  1107A      3.846782  
    1108A      3.868760  1109A      3.869794  1110A      3.945876  
    1111A      3.945889  1112A      3.990323  1113A      3.990364  
    1114A      4.056053  1115A      4.090498  1116A      4.109518  
    1117A      4.117168  1118A      4.167508  1119A      4.185756  
    1120A      4.187979  1121A      4.194242  1122A      4.198784  
    1123A      4.200719  1124A      4.202431  1125A      4.204680  
    1126A      4.205803  1127A      4.234959  1128A      4.235058  
    1129A      4.266638  1130A      4.442242  1131A      4.442552  
    1132A      4.443908  1133A      4.643381  1134A      4.654628  
    1135A      4.654681  1136A      4.746270  1137A      4.780813  
    1138A      4.781161  

    Final Occupation by Irrep:
              A 
    DOCC [   192 ]
    NA   [   192 ]
    NB   [   192 ]

  @DF-RHF Final Energy: -2478.66084656789462

   => Energetics <=

    Nuclear Repulsion Energy =           7844.3136775058337662
    One-Electron Energy =              -19045.9063970088936912
    Two-Electron Energy =                8722.9318729351653019
    Total Energy =                      -2478.6608465678946231

Computation Completed


Properties will be evaluated at   0.000000,   0.000000,   0.000000 [a0]

Properties computed using the SCF density matrix


 Multipole Moments:

 ------------------------------------------------------------------------------------
     Multipole            Electronic (a.u.)      Nuclear  (a.u.)        Total (a.u.)
 ------------------------------------------------------------------------------------

 L = 1.  Multiply by 2.5417464519 to convert [e a0] to [Debye]
 Dipole X            :         -0.0004205            0.0000481           -0.0003724
 Dipole Y            :          0.0008706           -0.0001453            0.0007253
 Dipole Z            :        -19.9957757           25.7475563            5.7517807
 Magnitude           :                                                    5.7517807

 ------------------------------------------------------------------------------------

*** tstop() called on d-6-7-1 at Sat Jan 20 22:22:09 2024
Module time:
	user time   =    3373.23 seconds =      56.22 minutes
	system time =      97.74 seconds =       1.63 minutes
	total time  =        367 seconds =       6.12 minutes
Total time:
	user time   =    3373.23 seconds =      56.22 minutes
	system time =      97.74 seconds =       1.63 minutes
	total time  =        367 seconds =       6.12 minutes

  //>>>>>>>>>>>>>>>>>>>>>>>>>>>>>>>>>>>//
  //            Monomer A HF           //
  //<<<<<<<<<<<<<<<<<<<<<<<<<<<<<<<<<<<//

   => Libint2 <=

    Primary   basis highest AM E, G, H:  7, 7, 4
    Auxiliary basis highest AM E, G, H:  7, 7, 5
    Onebody   basis highest AM E, G, H:  7, 7, 5
    Solid Harmonics ordering:            gaussian

*** tstart() called on d-6-7-1
*** at Sat Jan 20 22:22:09 2024

   => Loading Basis Set <=

    Name: JUN-CC-PVDZ
    Role: ORBITAL
    Keyword: BASIS
    atoms 1     entry B          line   130 file /home/gridsan/tfroembgen/.conda/envs/psi4test/share/psi4/basis/jun-cc-pvdz.gbs 
    atoms 2-5   entry F          line   266 file /home/gridsan/tfroembgen/.conda/envs/psi4test/share/psi4/basis/jun-cc-pvdz.gbs 
    atoms 6-59  entry C          line   164 file /home/gridsan/tfroembgen/.conda/envs/psi4test/share/psi4/basis/jun-cc-pvdz.gbs 
    atoms 60-77 entry H          line    36 file /home/gridsan/tfroembgen/.conda/envs/psi4test/share/psi4/basis/jun-cc-pvdz.gbs 


         ---------------------------------------------------------
                                   SCF
               by Justin Turney, Rob Parrish, Andy Simmonett
                          and Daniel G. A. Smith
                              RHF Reference
                       12 Threads,  30517 MiB Core
         ---------------------------------------------------------

  ==> Geometry <==

    Molecular point group: c1
    Full point group: C1

    Geometry (in Angstrom), charge = -1, multiplicity = 1:

       Center              X                  Y                   Z               Mass       
    ------------   -----------------  -----------------  -----------------  -----------------
         B           -0.000198161052     0.000273808717    -3.714781183723    11.009305360000
         F           -0.000000401852    -0.000000464183    -2.301996183723    18.998403162730
         F            1.147859598148     0.675780735817    -4.185922183723    18.998403162730
         F            0.011917658148    -1.332011464183    -4.185720183723    18.998403162730
         F           -1.159666401852     0.656073035817    -4.185641183723    18.998403162730
      Gh(C)           1.225311973413     0.707538196736     0.491322443561    12.000000000000
      Gh(C)           1.225323934041    -0.707538986754     0.478991633991    12.000000000000
      Gh(C)          -0.000006075942     1.414965821907     0.478458010470    12.000000000000
      Gh(C)           2.456448831939     1.418327794995     0.494209300961    12.000000000000
      Gh(C)           0.000010905269    -1.414976590818     0.488657567795    12.000000000000
      Gh(C)          -1.225300870919     0.707545281801     0.493573963884    12.000000000000
      Gh(C)           2.456437833310    -1.418323396064     0.476746477134    12.000000000000
      Gh(C)          -0.000001254988     2.836800939098     0.476054460336    12.000000000000
      Gh(C)           3.681826775460     0.709317863818     0.477095266932    12.000000000000
      Gh(C)           2.455120126855     2.834223569306     0.476992709971    12.000000000000
      Gh(C)           3.681821183209    -0.709333931612     0.493167750950    12.000000000000
      Gh(C)          -1.225313520698    -0.707527607727     0.480064395418    12.000000000000
      Gh(C)           1.226699659192     3.543469391811     0.493351782881    12.000000000000
      Gh(C)           0.000004862847    -2.836782231419     0.493505735416    12.000000000000
      Gh(C)          -2.456435954859     1.418316826102     0.493609359729    12.000000000000
      Gh(C)           2.455123495769    -2.834230120772     0.493015842583    12.000000000000
      Gh(C)          -1.226714286599     3.543468971567     0.493455116100    12.000000000000
      Gh(C)           4.914517373191     1.427172780306     0.483575949961    12.000000000000
      Gh(C)           3.693150269466     3.542795200362     0.483625749598    12.000000000000
      Gh(C)          -2.456437522078    -1.418313373022     0.476721439009    12.000000000000
      Gh(C)           1.226704919933    -3.543474334090     0.477381652131    12.000000000000
      Gh(C)          -2.455125320518     2.834216570451     0.476999086317    12.000000000000
      Gh(C)           4.914524458772    -1.427187002127     0.486548692696    12.000000000000
      Gh(C)           1.221424691688     4.970133973077     0.486687126956    12.000000000000
      Gh(C)           4.893008307311     2.825187907843     0.484792618320    12.000000000000
      Gh(C)          -1.226696930499    -3.543471089260     0.477648856541    12.000000000000
      Gh(C)          -3.681818898536     0.709324874549     0.477107947412    12.000000000000
      Gh(C)           3.693147179140    -3.542801433574     0.486666583257    12.000000000000
      Gh(C)          -1.221432174004     4.970128205680     0.486870622328    12.000000000000
      Gh(C)           6.134771050916     0.680547854922     0.484345724511    12.000000000000
      Gh(C)           3.656788958600     4.972953151384     0.484534387380    12.000000000000
      Gh(C)          -2.455126829744    -2.834215185244     0.492771484785    12.000000000000
      Gh(C)          -3.681819101071    -0.709325795652     0.493285372529    12.000000000000
      Gh(C)           4.893012695903    -2.825200197815     0.485403770216    12.000000000000
      Gh(C)          -0.000000995123     5.650447273849     0.485639313621    12.000000000000
      Gh(C)           6.134775190322    -0.680554946258     0.485611045027    12.000000000000
      Gh(C)           2.478131560845     5.653576659148     0.485823167030    12.000000000000
      Gh(C)           1.221422482727    -4.970127147116     0.483887629933    12.000000000000
      Gh(C)          -3.693162305975     3.542796862009     0.483791257057    12.000000000000
      Gh(C)          -1.221428442955    -4.970118395779     0.483774868100    12.000000000000
      Gh(C)          -4.914521729952     1.427175354812     0.483652894969    12.000000000000
      Gh(C)           3.656787097669    -4.972955318422     0.485984887914    12.000000000000
      Gh(C)          -2.478138452116     5.653574330345     0.486107692039    12.000000000000
      Gh(C)          -3.693141660574    -3.542790311162     0.486550457101    12.000000000000
      Gh(C)          -4.914512405063    -1.427181092211     0.486583389870    12.000000000000
      Gh(C)          -0.000005930936    -5.650438379197     0.485243809500    12.000000000000
      Gh(C)          -4.893020406111     2.825188506736     0.484782536460    12.000000000000
      Gh(C)           2.478126071288    -5.653573636072     0.484894287122    12.000000000000
      Gh(C)          -3.656798632268     4.972956089858     0.484711067755    12.000000000000
      Gh(C)          -4.892999400866    -2.825191859243     0.485249734518    12.000000000000
      Gh(C)          -2.478128420093    -5.653566262190     0.484619099475    12.000000000000
      Gh(C)          -6.134770425341     0.680548674073     0.484320172809    12.000000000000
      Gh(C)          -3.656788755199    -4.972944115154     0.485770600098    12.000000000000
      Gh(C)          -6.134764964923    -0.680554007665     0.485590569232    12.000000000000
      Gh(H)           5.835288573806     3.369275802771     0.489151943983     1.007825032230
      Gh(H)           7.073859250737     1.228217156716     0.484807367904     1.007825032230
      Gh(H)           4.600663342164     5.512380710270     0.485039588132     1.007825032230
      Gh(H)           5.835283465295    -3.369306148912     0.480949302901     1.007825032230
      Gh(H)          -0.000012073316     6.738530581953     0.481290068614     1.007825032230
      Gh(H)           7.073861249820    -1.228227034927     0.485102306933     1.007825032230
      Gh(H)           2.473313809789     6.740684199211     0.485356446100     1.007825032230
      Gh(H)           4.600668569371    -5.512376221359     0.485574890746     1.007825032230
      Gh(H)          -2.473318602548     6.740681627423     0.485657792725     1.007825032230
      Gh(H)          -0.000010190238    -6.738528268635     0.489773494485     1.007825032230
      Gh(H)          -5.835301836354     3.369270858113     0.489287966131     1.007825032230
      Gh(H)           2.473308001821    -6.740685466612     0.485464617547     1.007825032230
      Gh(H)          -4.600674763218     5.512377934420     0.485204916456     1.007825032230
      Gh(H)          -5.835279428845    -3.369289055963     0.480669997020     1.007825032230
      Gh(H)          -2.473300269450    -6.740679170323     0.485015301003     1.007825032230
      Gh(H)          -7.073857688778     1.228220380657     0.484723376424     1.007825032230
      Gh(H)          -4.600673708095    -5.512362761970     0.485402582723     1.007825032230
      Gh(H)          -7.073856856419    -1.228220724160     0.485007450466     1.007825032230

  Running in c1 symmetry.

  Rotational constants: A =      0.00186  B =      0.00186  C =      0.00110 [cm^-1]
  Rotational constants: A =     55.78460  B =     55.77741  C =     33.02251 [MHz]
  Nuclear repulsion =  178.879455044809077

  Charge       = -1
  Multiplicity = 1
  Electrons    = 42
  Nalpha       = 21
  Nbeta        = 21

  ==> Algorithm <==

  SCF Algorithm Type is DF.
  DIIS enabled.
  MOM disabled.
  Fractional occupation disabled.
  Guess Type is SAD.
  Energy threshold   = 1.00e-08
  Density threshold  = 1.00e-08
  Integral threshold = 1.00e-12

  ==> Primary Basis <==

  Basis Set: JUN-CC-PVDZ
    Blend: JUN-CC-PVDZ
    Number of shells: 526
    Number of basis functions: 1152
    Number of Cartesian functions: 1211
    Spherical Harmonics?: true
    Max angular momentum: 2

   => Loading Basis Set <=

    Name: (JUN-CC-PVDZ AUX)
    Role: JKFIT
    Keyword: DF_BASIS_SCF
    atoms 1     entry B          line    90 file /home/gridsan/tfroembgen/.conda/envs/psi4test/share/psi4/basis/jun-cc-pvdz-jkfit.gbs 
    atoms 2-5   entry F          line   314 file /home/gridsan/tfroembgen/.conda/envs/psi4test/share/psi4/basis/jun-cc-pvdz-jkfit.gbs 
    atoms 6-59  entry C          line   146 file /home/gridsan/tfroembgen/.conda/envs/psi4test/share/psi4/basis/jun-cc-pvdz-jkfit.gbs 
    atoms 60-77 entry H          line    70 file /home/gridsan/tfroembgen/.conda/envs/psi4test/share/psi4/basis/jun-cc-pvdz-jkfit.gbs 

  ==> Integral Setup <==

  ==> DiskDFJK: Density-Fitted J/K Matrices <==

    J tasked:                  Yes
    K tasked:                  Yes
    wK tasked:                  No
    OpenMP threads:             12
    Integrals threads:          12
    Memory [MiB]:            22888
    Algorithm:                Core
    Integral Cache:           LOAD
    Schwarz Cutoff:          1E-12
    Fitting Condition:       1E-10

   => Auxiliary Basis Set <=

  Basis Set: (JUN-CC-PVDZ AUX)
    Blend: JUN-CC-PVDZ-JKFIT
    Number of shells: 1755
    Number of basis functions: 5075
    Number of Cartesian functions: 5819
    Spherical Harmonics?: true
    Max angular momentum: 3

  Minimum eigenvalue in the overlap matrix is 8.3000448428E-10.
  Reciprocal condition number of the overlap matrix is 3.5877202601E-11.
    Using canonical orthogonalization.
  Overall, 14 of 1152 possible MOs eliminated.


  ==> Pre-Iterations <==

  SCF Guess: Superposition of Atomic Densities via on-the-fly atomic UHF (no occupation information).

   -------------------------
    Irrep   Nso     Nmo    
   -------------------------
     A       1152    1138 
   -------------------------
    Total    1152    1138
   -------------------------

  ==> Iterations <==

                           Total Energy        Delta E     RMS |[F,P]|

   @DF-RHF iter SAD:  -421.23044820353533   -4.21230e+02   0.00000e+00 
   @DF-RHF iter   1:  -422.65068396799370   -1.42024e+00   5.30533e-04 DIIS/ADIIS
   @DF-RHF iter   2:  -422.73363638537774   -8.29524e-02   3.23679e-04 DIIS/ADIIS
   @DF-RHF iter   3:  -422.77217772636988   -3.85413e-02   1.74697e-05 DIIS
   @DF-RHF iter   4:  -422.77254014186389   -3.62415e-04   2.77152e-06 DIIS
   @DF-RHF iter   5:  -422.77254884358831   -8.70172e-06   7.16501e-07 DIIS
   @DF-RHF iter   6:  -422.77254942414010   -5.80552e-07   1.49559e-07 DIIS
   @DF-RHF iter   7:  -422.77254944621677   -2.20767e-08   2.65681e-08 DIIS
   @DF-RHF iter   8:  -422.77254944660740   -3.90628e-10   9.25774e-09 DIIS
  Energy and wave function converged.


  ==> Post-Iterations <==

    Orbital Energies [Eh]
    ---------------------

    Doubly Occupied:                                                      

       1A    -26.067085     2A    -26.066992     3A    -26.066970  
       4A    -26.066905     5A     -7.538900     6A     -1.410682  
       7A     -1.351149     8A     -1.350988     9A     -1.350701  
      10A     -0.601985    11A     -0.528211    12A     -0.528132  
      13A     -0.528094    14A     -0.447037    15A     -0.446994  
      16A     -0.408299    17A     -0.408263    18A     -0.408180  
      19A     -0.384904    20A     -0.384666    21A     -0.384602  

    Virtual:                                                              

      22A      0.089598    23A      0.090177    24A      0.090181  
      25A      0.096968    26A      0.096973    27A      0.108292  
      28A      0.109011    29A      0.118895    30A      0.124619  
      31A      0.124619    32A      0.131343    33A      0.131348  
      34A      0.142551    35A      0.142559    36A      0.143759  
      37A      0.146137    38A      0.146147    39A      0.147364  
      40A      0.147379    41A      0.158011    42A      0.158644  
      43A      0.158649    44A      0.163941    45A      0.164180  
      46A      0.167613    47A      0.174172    48A      0.176782  
      49A      0.177466    50A      0.178793    51A      0.179685  
      52A      0.179686    53A      0.187332    54A      0.187341  
      55A      0.187743    56A      0.187762    57A      0.193908  
      58A      0.193948    59A      0.194133    60A      0.199975  
      61A      0.199982    62A      0.201983    63A      0.201986  
      64A      0.202908    65A      0.202926    66A      0.204819  
      67A      0.211911    68A      0.211923    69A      0.212324  
      70A      0.212332    71A      0.218571    72A      0.220183  
      73A      0.222152    74A      0.222159    75A      0.223380  
      76A      0.228997    77A      0.229018    78A      0.231837  
      79A      0.231851    80A      0.233242    81A      0.233255  
      82A      0.233262    83A      0.238654    84A      0.241783  
      85A      0.244059    86A      0.244063    87A      0.246130  
      88A      0.247043    89A      0.252611    90A      0.252640  
      91A      0.256226    92A      0.259278    93A      0.262619  
      94A      0.265631    95A      0.267958    96A      0.267967  
      97A      0.268501    98A      0.268505    99A      0.268912  
     100A      0.274131   101A      0.275887   102A      0.275893  
     103A      0.278951   104A      0.278964   105A      0.282719  
     106A      0.282732   107A      0.287245   108A      0.287248  
     109A      0.290933   110A      0.293276   111A      0.296702  
     112A      0.296713   113A      0.300338   114A      0.300349  
     115A      0.302232   116A      0.302264   117A      0.305453  
     118A      0.307224   119A      0.307244   120A      0.308991  
     121A      0.313127   122A      0.315141   123A      0.317859  
     124A      0.322609   125A      0.322619   126A      0.326294  
     127A      0.326298   128A      0.328076   129A      0.328083  
     130A      0.330490   131A      0.330506   132A      0.333119  
     133A      0.339994   134A      0.340007   135A      0.345006  
     136A      0.345039   137A      0.347454   138A      0.349988  
     139A      0.351559   140A      0.351612   141A      0.351629  
     142A      0.354712   143A      0.354714   144A      0.357325  
     145A      0.357334   146A      0.361252   147A      0.362948  
     148A      0.368643   149A      0.376971   150A      0.381078  
     151A      0.381089   152A      0.381250   153A      0.383273  
     154A      0.383338   155A      0.391089   156A      0.391267  
     157A      0.391288   158A      0.396269   159A      0.399182  
     160A      0.399195   161A      0.399821   162A      0.404231  
     163A      0.404249   164A      0.406940   165A      0.406985  
     166A      0.410115   167A      0.410164   168A      0.414857  
     169A      0.414955   170A      0.420118   171A      0.424646  
     172A      0.424721   173A      0.426497   174A      0.430200  
     175A      0.430209   176A      0.435271   177A      0.435775  
     178A      0.436206   179A      0.439476   180A      0.439799  
     181A      0.439821   182A      0.440218   183A      0.440605  
     184A      0.440616   185A      0.445561   186A      0.445741  
     187A      0.447723   188A      0.450961   189A      0.455939  
     190A      0.455989   191A      0.456869   192A      0.459576  
     193A      0.459616   194A      0.464428   195A      0.464457  
     196A      0.467995   197A      0.468039   198A      0.477081  
     199A      0.477102   200A      0.481172   201A      0.485954  
     202A      0.486005   203A      0.488476   204A      0.491724  
     205A      0.491790   206A      0.492614   207A      0.498921  
     208A      0.498946   209A      0.499433   210A      0.499621  
     211A      0.501783   212A      0.508108   213A      0.508121  
     214A      0.513921   215A      0.514013   216A      0.514911  
     217A      0.514919   218A      0.516887   219A      0.516912  
     220A      0.519141   221A      0.520172   222A      0.520235  
     223A      0.523959   224A      0.524037   225A      0.525322  
     226A      0.530761   227A      0.530969   228A      0.532093  
     229A      0.537917   230A      0.543850   231A      0.544094  
     232A      0.544767   233A      0.547484   234A      0.547602  
     235A      0.548355   236A      0.548397   237A      0.552137  
     238A      0.556821   239A      0.558283   240A      0.559864  
     241A      0.559902   242A      0.562899   243A      0.562901  
     244A      0.564020   245A      0.564071   246A      0.570883  
     247A      0.576042   248A      0.577965   249A      0.580193  
     250A      0.580294   251A      0.584109   252A      0.584152  
     253A      0.590277   254A      0.590735   255A      0.590908  
     256A      0.598547   257A      0.598713   258A      0.600474  
     259A      0.600507   260A      0.601732   261A      0.602826  
     262A      0.605433   263A      0.605481   264A      0.605935  
     265A      0.611608   266A      0.613881   267A      0.616852  
     268A      0.616896   269A      0.625971   270A      0.631534  
     271A      0.631590   272A      0.633670   273A      0.634908  
     274A      0.634973   275A      0.643249   276A      0.643302  
     277A      0.648768   278A      0.648770   279A      0.649496  
     280A      0.650859   281A      0.653885   282A      0.655560  
     283A      0.655566   284A      0.661770   285A      0.666309  
     286A      0.666343   287A      0.667795   288A      0.667867  
     289A      0.668483   290A      0.675070   291A      0.675110  
     292A      0.676052   293A      0.679516   294A      0.680385  
     295A      0.680475   296A      0.685666   297A      0.690310  
     298A      0.690325   299A      0.693573   300A      0.693606  
     301A      0.695294   302A      0.695307   303A      0.697546  
     304A      0.703364   305A      0.703444   306A      0.712351  
     307A      0.719956   308A      0.721601   309A      0.724174  
     310A      0.724187   311A      0.724633   312A      0.725776  
     313A      0.725828   314A      0.726173   315A      0.731239  
     316A      0.731251   317A      0.743304   318A      0.747538  
     319A      0.749928   320A      0.756514   321A      0.756567  
     322A      0.758965   323A      0.759021   324A      0.761490  
     325A      0.763608   326A      0.768556   327A      0.768577  
     328A      0.771408   329A      0.771533   330A      0.775050  
     331A      0.781052   332A      0.782416   333A      0.782466  
     334A      0.787834   335A      0.787884   336A      0.796237  
     337A      0.796274   338A      0.799520   339A      0.811814  
     340A      0.811864   341A      0.812536   342A      0.812619  
     343A      0.816783   344A      0.820292   345A      0.824555  
     346A      0.824565   347A      0.827817   348A      0.827868  
     349A      0.831284   350A      0.831347   351A      0.834508  
     352A      0.835843   353A      0.837892   354A      0.837930  
     355A      0.850536   356A      0.852233   357A      0.852245  
     358A      0.863061   359A      0.865874   360A      0.868117  
     361A      0.868164   362A      0.868786   363A      0.868826  
     364A      0.870844   365A      0.876588   366A      0.879472  
     367A      0.879488   368A      0.883171   369A      0.883215  
     370A      0.884931   371A      0.885130   372A      0.885581  
     373A      0.886137   374A      0.892826   375A      0.898445  
     376A      0.898616   377A      0.901645   378A      0.910512  
     379A      0.910521   380A      0.914852   381A      0.926961  
     382A      0.926966   383A      0.949861   384A      0.949963  
     385A      0.957086   386A      0.959105   387A      0.962002  
     388A      0.962030   389A      0.975654   390A      0.975814  
     391A      0.976976   392A      0.977038   393A      0.979205  
     394A      0.979255   395A      0.980885   396A      0.981816  
     397A      0.994148   398A      1.012749   399A      1.012988  
     400A      1.013637   401A      1.026214   402A      1.026217  
     403A      1.035453   404A      1.037455   405A      1.037493  
     406A      1.042777   407A      1.049622   408A      1.049654  
     409A      1.057563   410A      1.058721   411A      1.067424  
     412A      1.067434   413A      1.094454   414A      1.095924  
     415A      1.123325   416A      1.123355   417A      1.140180  
     418A      1.140195   419A      1.141754   420A      1.145108  
     421A      1.145135   422A      1.156688   423A      1.156716  
     424A      1.177778   425A      1.177797   426A      1.178364  
     427A      1.188770   428A      1.243674   429A      1.246495  
     430A      1.246608   431A      1.246909   432A      1.246944  
     433A      1.258786   434A      1.258797   435A      1.263158  
     436A      1.281735   437A      1.281776   438A      1.304149  
     439A      1.304154   440A      1.309028   441A      1.315623  
     442A      1.321029   443A      1.377168   444A      1.383187  
     445A      1.383386   446A      1.386299   447A      1.386393  
     448A      1.391158   449A      1.391213   450A      1.395158  
     451A      1.403709   452A      1.403782   453A      1.415768  
     454A      1.420595   455A      1.441715   456A      1.458259  
     457A      1.458329   458A      1.519472   459A      1.522763  
     460A      1.542168   461A      1.542389   462A      1.554001  
     463A      1.554030   464A      1.560857   465A      1.561208  
     466A      1.562935   467A      1.572069   468A      1.572910  
     469A      1.616085   470A      1.639830   471A      1.643936  
     472A      1.643973   473A      1.652718   474A      1.652729  
     475A      1.660207   476A      1.665789   477A      1.666947  
     478A      1.667244   479A      1.726814   480A      1.727800  
     481A      1.728282   482A      1.748616   483A      1.750925  
     484A      1.751322   485A      1.767282   486A      1.768084  
     487A      1.772793   488A      1.787997   489A      1.789023  
     490A      1.789392   491A      1.796232   492A      1.826750  
     493A      1.828003   494A      1.828704   495A      1.829186  
     496A      1.831520   497A      1.835677   498A      1.839156  
     499A      1.839300   500A      1.857608   501A      1.859476  
     502A      1.860358   503A      1.861090   504A      1.874654  
     505A      1.875691   506A      1.879542   507A      1.880390  
     508A      1.901661   509A      1.904021   510A      1.909821  
     511A      1.911312   512A      1.911762   513A      1.912808  
     514A      1.914580   515A      1.914937   516A      1.919637  
     517A      1.920544   518A      1.924224   519A      1.924304  
     520A      1.931593   521A      1.935307   522A      1.935397  
     523A      1.941231   524A      1.943600   525A      1.944504  
     526A      1.960921   527A      1.964847   528A      1.966720  
     529A      1.970706   530A      1.971168   531A      1.973937  
     532A      1.974160   533A      1.975136   534A      1.975497  
     535A      1.994480   536A      1.995010   537A      1.995161  
     538A      1.998869   539A      2.000756   540A      2.004918  
     541A      2.007006   542A      2.007496   543A      2.013159  
     544A      2.013896   545A      2.015835   546A      2.016909  
     547A      2.017066   548A      2.023354   549A      2.032135  
     550A      2.032218   551A      2.033605   552A      2.044674  
     553A      2.044736   554A      2.055304   555A      2.056541  
     556A      2.057860   557A      2.058344   558A      2.066911  
     559A      2.067191   560A      2.074971   561A      2.075110  
     562A      2.077000   563A      2.079654   564A      2.083110  
     565A      2.083229   566A      2.086524   567A      2.087714  
     568A      2.091073   569A      2.091154   570A      2.094184  
     571A      2.094319   572A      2.108833   573A      2.110919  
     574A      2.111009   575A      2.120929   576A      2.121100  
     577A      2.139062   578A      2.139121   579A      2.157380  
     580A      2.160177   581A      2.160293   582A      2.160435  
     583A      2.166163   584A      2.174111   585A      2.174206  
     586A      2.178221   587A      2.178466   588A      2.178772  
     589A      2.188615   590A      2.199381   591A      2.199943  
     592A      2.200114   593A      2.200583   594A      2.205334  
     595A      2.206043   596A      2.206100   597A      2.212375  
     598A      2.219032   599A      2.219043   600A      2.222848  
     601A      2.222924   602A      2.223000   603A      2.230168  
     604A      2.230242   605A      2.230708   606A      2.231780  
     607A      2.231806   608A      2.232895   609A      2.240802  
     610A      2.240820   611A      2.242508   612A      2.245824  
     613A      2.245828   614A      2.246447   615A      2.247030  
     616A      2.247051   617A      2.249275   618A      2.252206  
     619A      2.252511   620A      2.252573   621A      2.257579  
     622A      2.257685   623A      2.260734   624A      2.260781  
     625A      2.266431   626A      2.266651   627A      2.267690  
     628A      2.268839   629A      2.274418   630A      2.274628  
     631A      2.275004   632A      2.279436   633A      2.279473  
     634A      2.282407   635A      2.288814   636A      2.288868  
     637A      2.292291   638A      2.305727   639A      2.311222  
     640A      2.311467   641A      2.318013   642A      2.326292  
     643A      2.329847   644A      2.329993   645A      2.332686  
     646A      2.332759   647A      2.335063   648A      2.335083  
     649A      2.338213   650A      2.338322   651A      2.349766  
     652A      2.356936   653A      2.358983   654A      2.359045  
     655A      2.359947   656A      2.362384   657A      2.362488  
     658A      2.370009   659A      2.370104   660A      2.380403  
     661A      2.380640   662A      2.380883   663A      2.393179  
     664A      2.393241   665A      2.398113   666A      2.414238  
     667A      2.414392   668A      2.415544   669A      2.420895  
     670A      2.422078   671A      2.422126   672A      2.434047  
     673A      2.434051   674A      2.442338   675A      2.443709  
     676A      2.450164   677A      2.451325   678A      2.454564  
     679A      2.454606   680A      2.458309   681A      2.458372  
     682A      2.463157   683A      2.463180   684A      2.464343  
     685A      2.468336   686A      2.474255   687A      2.476402  
     688A      2.476477   689A      2.479499   690A      2.481751  
     691A      2.481825   692A      2.491792   693A      2.493688  
     694A      2.493714   695A      2.497803   696A      2.506131  
     697A      2.506164   698A      2.511893   699A      2.524757  
     700A      2.524778   701A      2.530856   702A      2.530861  
     703A      2.542073   704A      2.542160   705A      2.545794  
     706A      2.545811   707A      2.553124   708A      2.558156  
     709A      2.560779   710A      2.563289   711A      2.563429  
     712A      2.568086   713A      2.568353   714A      2.572262  
     715A      2.578239   716A      2.587899   717A      2.587933  
     718A      2.590496   719A      2.595255   720A      2.595302  
     721A      2.597813   722A      2.607271   723A      2.610267  
     724A      2.618800   725A      2.618906   726A      2.626057  
     727A      2.628051   728A      2.628308   729A      2.630828  
     730A      2.638565   731A      2.638595   732A      2.640614  
     733A      2.640762   734A      2.642148   735A      2.648932  
     736A      2.649676   737A      2.649721   738A      2.653810  
     739A      2.665230   740A      2.665256   741A      2.678383  
     742A      2.689418   743A      2.689479   744A      2.709109  
     745A      2.709159   746A      2.710519   747A      2.715188  
     748A      2.715220   749A      2.716017   750A      2.721844  
     751A      2.721896   752A      2.725753   753A      2.736073  
     754A      2.737870   755A      2.739351   756A      2.739848  
     757A      2.742523   758A      2.742783   759A      2.748591  
     760A      2.748681   761A      2.763196   762A      2.763379  
     763A      2.775578   764A      2.775594   765A      2.784394  
     766A      2.784520   767A      2.792428   768A      2.793072  
     769A      2.801222   770A      2.801246   771A      2.801438  
     772A      2.802940   773A      2.802987   774A      2.808770  
     775A      2.808816   776A      2.826076   777A      2.830417  
     778A      2.830523   779A      2.832619   780A      2.841489  
     781A      2.842043   782A      2.842161   783A      2.844497  
     784A      2.844547   785A      2.853348   786A      2.871652  
[...]
     718A      1.429010   719A      1.429038   720A      1.429699  
     721A      1.433006   722A      1.438049   723A      1.438087  
     724A      1.439668   725A      1.439703   726A      1.439969  
     727A      1.450052   728A      1.450142   729A      1.450633  
     730A      1.451132   731A      1.451572   732A      1.451616  
     733A      1.467845   734A      1.467934   735A      1.482910  
     736A      1.482941   737A      1.511803   738A      1.517764  
     739A      1.517784   740A      1.524547   741A      1.524557  
     742A      1.533816   743A      1.552431   744A      1.580150  
     745A      1.604530   746A      1.604929   747A      1.608169  
     748A      1.608235   749A      1.609298   750A      1.611232  
     751A      1.613353   752A      1.613604   753A      1.620719  
     754A      1.625425   755A      1.625548   756A      1.635446  
     757A      1.635648   758A      1.642489   759A      1.643197  
     760A      1.643239   761A      1.643661   762A      1.648609  
     763A      1.648917   764A      1.655409   765A      1.661589  
     766A      1.661642   767A      1.667967   768A      1.675159  
     769A      1.675261   770A      1.677178   771A      1.677749  
     772A      1.677956   773A      1.681389   774A      1.687065  
     775A      1.687103   776A      1.689807   777A      1.692487  
     778A      1.692597   779A      1.696187   780A      1.699292  
     781A      1.699315   782A      1.701750   783A      1.705219  
     784A      1.705282   785A      1.716092   786A      1.716112  
     787A      1.723750   788A      1.741808   789A      1.751696  
     790A      1.759977   791A      1.760042   792A      1.761151  
     793A      1.762511   794A      1.776553   795A      1.776588  
     796A      1.786006   797A      1.786227   798A      1.794220  
     799A      1.794232   800A      1.807433   801A      1.816996  
     802A      1.817039   803A      1.818327   804A      1.825283  
     805A      1.825375   806A      1.832402   807A      1.832464  
     808A      1.841866   809A      1.842499   810A      1.845568  
     811A      1.851943   812A      1.861768   813A      1.861787  
     814A      1.864524   815A      1.870368   816A      1.870442  
     817A      1.873390   818A      1.879507   819A      1.881442  
     820A      1.881468   821A      1.897882   822A      1.897959  
     823A      1.903353   824A      1.907320   825A      1.907609  
     826A      1.909915   827A      1.909996   828A      1.917733  
     829A      1.917799   830A      1.918399   831A      1.918528  
     832A      1.919372   833A      1.925358   834A      1.925447  
     835A      1.940580   836A      1.942740   837A      1.943794  
     838A      1.943918   839A      1.947301   840A      1.947303  
     841A      1.955800   842A      1.955890   843A      1.958155  
     844A      1.960709   845A      1.960843   846A      1.978157  
     847A      1.984594   848A      1.984724   849A      1.996188  
     850A      1.997232   851A      1.998901   852A      1.998921  
     853A      2.006659   854A      2.008743   855A      2.013229  
     856A      2.013417   857A      2.028073   858A      2.029214  
     859A      2.031241   860A      2.031621   861A      2.031869  
     862A      2.036050   863A      2.036197   864A      2.039045  
     865A      2.048627   866A      2.053268   867A      2.053453  
     868A      2.059408   869A      2.060312   870A      2.066351  
     871A      2.066499   872A      2.069772   873A      2.074905  
     874A      2.075145   875A      2.079233   876A      2.079477  
     877A      2.080019   878A      2.093233   879A      2.093390  
     880A      2.093612   881A      2.095457   882A      2.096985  
     883A      2.098624   884A      2.100583   885A      2.101489  
     886A      2.101546   887A      2.109845   888A      2.109850  
     889A      2.112317   890A      2.113024   891A      2.113095  
     892A      2.120148   893A      2.120308   894A      2.120403  
     895A      2.122424   896A      2.122478   897A      2.128935  
     898A      2.129078   899A      2.132622   900A      2.134707  
     901A      2.136322   902A      2.136389   903A      2.143541  
     904A      2.143579   905A      2.153862   906A      2.161207  
     907A      2.161256   908A      2.162019   909A      2.164773  
     910A      2.164842   911A      2.172944   912A      2.178881  
     913A      2.178957   914A      2.192330   915A      2.192514  
     916A      2.192659   917A      2.195668   918A      2.197189  
     919A      2.197270   920A      2.204571   921A      2.219825  
     922A      2.220626   923A      2.220660   924A      2.228285  
     925A      2.229912   926A      2.233944   927A      2.234001  
     928A      2.243826   929A      2.244095   930A      2.246167  
     931A      2.246326   932A      2.247792   933A      2.260752  
     934A      2.260862   935A      2.270452   936A      2.270463  
     937A      2.272685   938A      2.272720   939A      2.281133  
     940A      2.300349   941A      2.306771   942A      2.315889  
     943A      2.316763   944A      2.327408   945A      2.332952  
     946A      2.333047   947A      2.338698   948A      2.340878  
     949A      2.349931   950A      2.351345   951A      2.351930  
     952A      2.353565   953A      2.354112   954A      2.370101  
     955A      2.370404   956A      2.374991   957A      2.390882  
     958A      2.416382   959A      2.424129   960A      2.424570  
     961A      2.424597   962A      2.436558   963A      2.441889  
     964A      2.441960   965A      2.470258   966A      2.474772  
     967A      2.474920   968A      2.487798   969A      2.487840  
     970A      2.502436   971A      2.523005   972A      2.530537  
     973A      2.540645   974A      2.547196   975A      2.547237  
     976A      2.547805   977A      2.554573   978A      2.554632  
     979A      2.555027   980A      2.560302   981A      2.560311  
     982A      2.573154   983A      2.573188   984A      2.576843  
     985A      2.577257   986A      2.586828   987A      2.586930  
     988A      2.589900   989A      2.590340   990A      2.591509  
     991A      2.607729   992A      2.624660   993A      2.624736  
     994A      2.631068   995A      2.632498   996A      2.632932  
     997A      2.642283   998A      2.642355   999A      2.653639  
    1000A      2.653928  1001A      2.656937  1002A      2.684081  
    1003A      2.684148  1004A      2.685187  1005A      2.695722  
    1006A      2.702743  1007A      2.703011  1008A      2.713258  
    1009A      2.713270  1010A      2.719216  1011A      2.719241  
    1012A      2.723799  1013A      2.723991  1014A      2.741546  
    1015A      2.754667  1016A      2.755103  1017A      2.777991  
    1018A      2.795489  1019A      2.795582  1020A      2.824511  
    1021A      2.827254  1022A      2.829214  1023A      2.842007  
    1024A      2.842556  1025A      2.855012  1026A      2.855134  
    1027A      2.856146  1028A      2.858543  1029A      2.860807  
    1030A      2.860922  1031A      2.863774  1032A      2.918710  
    1033A      2.918744  1034A      2.922644  1035A      2.936029  
    1036A      2.936079  1037A      2.953385  1038A      2.953488  
    1039A      2.963605  1040A      2.963708  1041A      3.011504  
    1042A      3.011512  1043A      3.012075  1044A      3.046639  
    1045A      3.064682  1046A      3.064700  1047A      3.073033  
    1048A      3.073115  1049A      3.116702  1050A      3.117255  
    1051A      3.130985  1052A      3.132692  1053A      3.132952  
    1054A      3.137587  1055A      3.147893  1056A      3.147928  
    1057A      3.148209  1058A      3.150095  1059A      3.150123  
    1060A      3.161518  1061A      3.161794  1062A      3.166492  
    1063A      3.167060  1064A      3.191975  1065A      3.211218  
    1066A      3.220388  1067A      3.246327  1068A      3.277334  
    1069A      3.277633  1070A      3.279972  1071A      3.288372  
    1072A      3.288693  1073A      3.419340  1074A      3.419711  
    1075A      3.448806  1076A      3.484043  1077A      3.486509  
    1078A      3.553757  1079A      3.587145  1080A      3.589138  
    1081A      3.594371  1082A      3.627923  1083A      3.629818  
    1084A      3.665839  1085A      3.677811  1086A      3.769438  
    1087A      3.789061  1088A      3.790016  1089A      3.871117  
    1090A      3.871131  1091A      3.914519  1092A      3.914565  
    1093A      3.977110  1094A      4.011498  1095A      4.047146  
    1096A      4.058705  1097A      4.115534  1098A      4.255561  
    1099A      4.255621  1100A      4.361404  1101A      4.456415  
    1102A      5.752605  1103A      5.758500  1104A      5.758552  
    1105A      5.763603  1106A      5.764889  1107A      5.764897  
    1108A      5.770991  1109A      5.771023  1110A      5.795585  
    1111A      5.795612  1112A      5.818493  1113A      6.024514  
    1114A      6.027887  1115A      6.028202  1116A      6.202862  
    1117A      6.333585  1118A      6.333912  1119A      6.385434  
    1120A      6.385772  1121A      6.386205  1122A      7.263953  
    1123A      7.263981  1124A      7.273151  1125A      7.294759  
    1126A      7.331322  1127A      7.331524  1128A      7.438694  
    1129A      7.438869  1130A      7.545810  1131A      7.546061  
    1132A      7.646256  1133A      7.854483  1134A     12.663353  
    1135A     42.924842  1136A     42.924922  1137A     42.944299  
    1138A     42.966324  

    Final Occupation by Irrep:
              A 
    DOCC [   171 ]
    NA   [   171 ]
    NB   [   171 ]

  @DF-RHF Final Energy: -2055.89315955378788

   => Energetics <=

    Nuclear Repulsion Energy =           6452.5568002797772351
    One-Electron Energy =              -15636.4684896767539612
    Two-Electron Energy =                7128.0185298431888441
    Total Energy =                      -2055.8931595537878820

Computation Completed


Properties will be evaluated at   0.000000,   0.000000,   0.000000 [a0]

Properties computed using the SCF density matrix


 Multipole Moments:

 ------------------------------------------------------------------------------------
     Multipole            Electronic (a.u.)      Nuclear  (a.u.)        Total (a.u.)
 ------------------------------------------------------------------------------------

 L = 1.  Multiply by 2.5417464519 to convert [e a0] to [Debye]
 Dipole X            :          0.0000303            0.0000419            0.0000722
 Dipole Y            :          0.0000516           -0.0000426            0.0000091
 Dipole Z            :       -313.5649401          313.5668737            0.0019336
 Magnitude           :                                                    0.0019349

 ------------------------------------------------------------------------------------

*** tstop() called on d-6-7-1 at Sat Jan 20 22:29:10 2024
Module time:
	user time   =    2374.95 seconds =      39.58 minutes
	system time =      40.86 seconds =       0.68 minutes
	total time  =        260 seconds =       4.33 minutes
Total time:
	user time   =    6895.91 seconds =     114.93 minutes
	system time =     157.00 seconds =       2.62 minutes
	total time  =        788 seconds =      13.13 minutes
  Constructing Basis Sets for SAPT...

   => Loading Basis Set <=

    Name: (JUN-CC-PVDZ AUX)
    Role: RIFIT
    Keyword: DF_BASIS_SAPT
    atoms 1     entry B          line    56 file /home/gridsan/tfroembgen/.conda/envs/psi4test/share/psi4/basis/jun-cc-pvdz-ri.gbs 
    atoms 2-5   entry F          line   232 file /home/gridsan/tfroembgen/.conda/envs/psi4test/share/psi4/basis/jun-cc-pvdz-ri.gbs 
    atoms 6-59  entry C          line   100 file /home/gridsan/tfroembgen/.conda/envs/psi4test/share/psi4/basis/jun-cc-pvdz-ri.gbs 
    atoms 60-77 entry H          line    30 file /home/gridsan/tfroembgen/.conda/envs/psi4test/share/psi4/basis/jun-cc-pvdz-ri.gbs 

   => Loading Basis Set <=

    Name: (JUN-CC-PVDZ AUX)
    Role: JKFIT
    Keyword: DF_BASIS_ELST
    atoms 1     entry B          line    90 file /home/gridsan/tfroembgen/.conda/envs/psi4test/share/psi4/basis/jun-cc-pvdz-jkfit.gbs 
    atoms 2-5   entry F          line   314 file /home/gridsan/tfroembgen/.conda/envs/psi4test/share/psi4/basis/jun-cc-pvdz-jkfit.gbs 
    atoms 6-59  entry C          line   146 file /home/gridsan/tfroembgen/.conda/envs/psi4test/share/psi4/basis/jun-cc-pvdz-jkfit.gbs 
    atoms 60-77 entry H          line    70 file /home/gridsan/tfroembgen/.conda/envs/psi4test/share/psi4/basis/jun-cc-pvdz-jkfit.gbs 


  //>>>>>>>>>>>>>>>>>>>>>>>>>>>>>>>>>>>//
  //               SSAPT0              //
  //<<<<<<<<<<<<<<<<<<<<<<<<<<<<<<<<<<<//


*** tstart() called on d-6-7-1
*** at Sat Jan 20 22:29:11 2024

        SAPT0  
    Ed Hohenstein
     6 June 2009

      Orbital Information
  --------------------------
    NSO        =      1152
    NMO        =      1138
    NRI        =      4087
    NRI (Elst) =      5075
    NOCC A     =        21
    NOCC B     =       171
    FOCC A     =         5
    FOCC B     =        54
    NVIR A     =      1117
    NVIR B     =       967

    Elst10,r            =     0.009863655248 [Eh]
    Exch10              =     0.007027890565 [Eh]
    Exch10 (S^2)        =     0.007026030855 [Eh]

    Iter     Energy [mEh]          dE [mEh]         Residual      Time [s]
       1      -0.69160140       0.691601398       4.172150930           457
       2      -0.84430373       0.152702328       1.693321783           942
       3      -0.86148820       0.017184470       0.230359618          1207
       4      -0.85955083      -0.001937363       0.063688378          1403
       5      -0.85948389      -0.000066945       0.017219129          1563
       6      -0.85954727       0.000063379       0.004948942          1601
       7      -0.85956083       0.000013568       0.001025259          1616
       8      -0.85955672      -0.000004111       0.000228328          1632
       9      -0.85955679       0.000000069       0.000042291          1648
      10      -0.85955691       0.000000115       0.000006177          1682
      11      -0.85955689      -0.000000019       0.000001296          1701
      12      -0.85955689       0.000000002       0.000000309          1718

    CHF Iterations converged


    Iter     Energy [mEh]          dE [mEh]         Residual      Time [s]
       1     -17.93354287      17.933542872      69.869549151           196
       2     -12.27026589      -5.663276984       9.032210927           490
       3     -12.24543009      -0.024835803       2.936684458           572
       4     -12.48804975       0.242619669       0.774420608           630
       5     -12.50466565       0.016615894       0.244585893           648
       6     -12.49438343      -0.010282216       0.106064293           666
       7     -12.49352739      -0.000856044       0.046981086           683
       8     -12.49490536       0.001377971       0.017980969           700
       9     -12.49509310       0.000187743       0.010892004           719
      10     -12.49487464      -0.000218461       0.008614263           738
      11     -12.49483592      -0.000038717       0.004013753           762
      12     -12.49488612       0.000050197       0.001816517           778
      13     -12.49490526       0.000019136       0.000684854           796
      14     -12.49490021      -0.000005050       0.000268233           813
      15     -12.49489606      -0.000004150       0.000095520           829
      16     -12.49489730       0.000001240       0.000042721           844
      17     -12.49489764       0.000000340       0.000017939           858
      18     -12.49489757      -0.000000069       0.000006956           873
      19     -12.49489746      -0.000000103       0.000002510           895
      20     -12.49489747       0.000000003       0.000001108           911
      21     -12.49489748       0.000000013       0.000000541           926

    CHF Iterations converged

    Ind20,r (A<-B)      =    -0.000859556891 [Eh]
    Ind20,r (B<-A)      =    -0.012494897479 [Eh]
    Ind20,r             =    -0.013354454371 [Eh]
    Exch-Ind20,r (A<-B) =     0.000795473162 [Eh]
    Exch-Ind20,r (B<-A) =     0.000917281373 [Eh]
    Exch-Ind20,r        =     0.001712754535 [Eh]
    Disp20              =    -0.007618404366 [Eh]
    Disp20 (SS)         =    -0.003809202183 [Eh]
    Disp20 (OS)         =    -0.003809202183 [Eh]
    Exch-Disp20         =     0.000892884697 [Eh]
    Exch-Disp20 (SS)    =     0.000514583795 [Eh]
    Exch-Disp20 (OS)    =     0.000378300901 [Eh]

    SAPT Results 
  --------------------------------------------------------------------------------------------------------
    Electrostatics                  9.86365525 [mEh]       6.18953711 [kcal/mol]      25.89702329 [kJ/mol]
      Elst10,r                      9.86365525 [mEh]       6.18953711 [kcal/mol]      25.89702329 [kJ/mol]

    Exchange                        7.02789057 [mEh]       4.41006791 [kcal/mol]      18.45172414 [kJ/mol]
      Exch10                        7.02789057 [mEh]       4.41006791 [kcal/mol]      18.45172414 [kJ/mol]
      Exch10(S^2)                   7.02603085 [mEh]       4.40890092 [kcal/mol]      18.44684147 [kJ/mol]

    Induction                     -12.02911331 [mEh]      -7.54838256 [kcal/mol]     -31.58243265 [kJ/mol]
      Ind20,r                     -13.35445437 [mEh]      -8.38004663 [kcal/mol]     -35.06211512 [kJ/mol]
      Exch-Ind20,r                  1.71275454 [mEh]       1.07476970 [kcal/mol]       4.49683641 [kJ/mol]
      delta HF,r (2)               -0.38741348 [mEh]      -0.24310563 [kcal/mol]      -1.01715394 [kJ/mol]

    Dispersion                     -6.72551967 [mEh]      -4.22032731 [kcal/mol]     -17.65784946 [kJ/mol]
      Disp20                       -7.61840437 [mEh]      -4.78062091 [kcal/mol]     -20.00211791 [kJ/mol]
      Exch-Disp20                   0.89288470 [mEh]       0.56029361 [kcal/mol]       2.34426845 [kJ/mol]
      Disp20 (SS)                  -3.80920218 [mEh]      -2.39031046 [kcal/mol]     -10.00105895 [kJ/mol]
      Disp20 (OS)                  -3.80920218 [mEh]      -2.39031046 [kcal/mol]     -10.00105895 [kJ/mol]
      Exch-Disp20 (SS)              0.51458380 [mEh]       0.32290621 [kcal/mol]       1.35103957 [kJ/mol]
      Exch-Disp20 (OS)              0.37830090 [mEh]       0.23738740 [kcal/mol]       0.99322888 [kJ/mol]

  Total HF                          4.86243250 [mEh]       3.05122246 [kcal/mol]      12.76631477 [kJ/mol]
  Total SAPT0                      -1.86308717 [mEh]      -1.16910485 [kcal/mol]      -4.89153469 [kJ/mol]

  Special recipe for scaled SAPT0 (see Manual):
    Electrostatics sSAPT0           9.86365525 [mEh]       6.18953711 [kcal/mol]      25.89702329 [kJ/mol]
    Exchange sSAPT0                 7.02789057 [mEh]       4.41006791 [kcal/mol]      18.45172414 [kJ/mol]
    Induction sSAPT0              -12.02775291 [mEh]      -7.54752890 [kcal/mol]     -31.57886092 [kJ/mol]
    Dispersion sSAPT0              -6.72481047 [mEh]      -4.21988228 [kcal/mol]     -17.65598746 [kJ/mol]
  Total sSAPT0                     -1.86101757 [mEh]      -1.16780616 [kcal/mol]      -4.88610096 [kJ/mol]
  --------------------------------------------------------------------------------------------------------

*** tstop() called on d-6-7-1 at Sat Jan 20 23:47:24 2024
Module time:
	user time   =    7106.97 seconds =     118.45 minutes
	system time =     782.57 seconds =      13.04 minutes
	total time  =       4693 seconds =      78.22 minutes
Total time:
	user time   =   14004.54 seconds =     233.41 minutes
	system time =     939.58 seconds =      15.66 minutes
	total time  =       5482 seconds =      91.37 minutes

    Psi4 stopped on: Saturday, 20 January 2024 11:47PM
    Psi4 wall time for execution: 1:31:23.00

*** Psi4 exiting successfully. Buy a developer a beer!
