
    -----------------------------------------------------------------------
          Psi4: An Open-Source Ab Initio Electronic Structure Package
                               Psi4 1.9 release

                         Git: Rev {} zzzzzzz 


    D. G. A. Smith, L. A. Burns, A. C. Simmonett, R. M. Parrish,
    M. C. Schieber, R. Galvelis, P. Kraus, H. Kruse, R. Di Remigio,
    A. Alenaizan, A. M. James, S. Lehtola, J. P. Misiewicz, M. Scheurer,
    R. A. Shaw, J. B. Schriber, Y. Xie, Z. L. Glick, D. A. Sirianni,
    J. S. O'Brien, J. M. Waldrop, A. Kumar, E. G. Hohenstein,
    B. P. Pritchard, B. R. Brooks, H. F. Schaefer III, A. Yu. Sokolov,
    K. Patkowski, A. E. DePrince III, U. Bozkaya, R. A. King,
    F. A. Evangelista, J. M. Turney, T. D. Crawford, C. D. Sherrill,
    J. Chem. Phys. 152(18) 184108 (2020). https://doi.org/10.1063/5.0006002

                            Additional Code Authors
    E. T. Seidl, C. L. Janssen, E. F. Valeev, M. L. Leininger,
    J. F. Gonthier, R. M. Richard, H. R. McAlexander, M. Saitow, X. Wang,
    P. Verma, M. H. Lechner, A. Jiang, S. Behnle, A. G. Heide,
    M. F. Herbst, and D. L. Poole

             Previous Authors, Complete List of Code Contributors,
                       and Citations for Specific Modules
    https://github.com/psi4/psi4/blob/master/codemeta.json
    https://github.com/psi4/psi4/graphs/contributors
    http://psicode.org/psi4manual/master/introduction.html#citing-psifour

    -----------------------------------------------------------------------


    Psi4 started on: Friday, 26 January 2024 11:41PM

    Process ID: 3313009
    Host:       n2cn0487.ab2021.local
    PSIDATADIR: /opt/software/pc2/EB-SW/software/PSI4/1.9-foss-2022a/share/psi4
    Memory:     500.0 MiB
    Threads:    16
    
  ==> Input File <==

--------------------------------------------------------------------------
memory 64 GB # how much memory is available ! Depends on the nodes/cores !

molecule dimer {
# monomer A
+1 1    # Charge and multiplicity
C  0.680067 -0.008042 -5.215929
C -0.680504 -0.006014 -5.215545
N -1.085635 -0.005016 -3.897221
C  0.000108 -0.001740 -3.115820
C -2.477365  0.044390 -3.429242
N  1.085222 -0.005016 -3.897221
H  1.385146 -0.015870 -6.033368
H -1.385302 -0.006204 -6.033214
H -0.000009  0.000007 -2.034731
C  2.478117 -0.021908 -3.432123
H  2.490592  0.005437 -2.341870
H  2.967028 -0.935354 -3.779299
H  3.001428  0.853575 -3.823595
H -2.857359  1.066461 -3.509201
H -3.082679 -0.625694 -4.042306
H -2.518128 -0.282594 -2.389294
--
# monomer B
0 1     # Charge and multiplicity
C   -3.66844126402057      7.80375217008252      0.00190004133558
C   -4.84759871934653      7.13124183134024     -0.00046653359696
C   -4.89495929917518      5.69633040353158     -0.00103944469517
C   -3.65374067877320      4.98073034095895      0.00662099703436
C   -2.40942512149445      7.11398103667468      0.00209438359570
C   -2.42547734410473      5.68112195090346     -0.00491050527438
C   -1.19474401643570      7.78614419430947      0.00356656413763
C   0.03795902893699      7.09942164575698      0.00139585983271
C   0.03033258741920      5.66948955970466     -0.00408752508301
C   -1.20098450790502      4.96927034791531      0.00488220885047
C   1.27795782581485      7.77285944319479      0.00277170839332
C   2.48535808472416      7.08769688523756      0.00049722048857
C   2.48612868491717      5.65477081024076     -0.00644052849921
C   1.25408291964399      4.95607811366431      0.00518741308898
C   3.75171459140595      7.76391215098033      0.00062407186893
C   4.92356605618520      7.07878077698995     -0.00143240883900
C   4.95560727132542      5.64344746336949     -0.00159282164606
C   3.70680153420475      4.94121020833308      0.00349873852374
H   -3.65852113775815      8.89082741913536      0.00358502958574
H   -1.18921332975660      8.87412108735996      0.00753844057883
H   1.28429423888630      8.86083343548850      0.00693053253426
H   3.75354208679975      8.85103527897216      0.00214659618464
H   5.86995870320703      7.61379483465560     -0.00235777588134
H   -5.78823170750226      7.67630221293400     -0.00202638095293
C   -6.09197395869619      4.99326001364347     -0.00291168518608
C   -6.12866148031747      3.58258016879823     -0.00171050815740
C   -3.66457974004527      3.56418217974434     -0.00463560277484
C   -4.89429820469869      2.86108077590057      0.00453338221034
C   -2.43733499489796      2.84761165708481      0.00719617576166
C   -1.20922785759670      3.54788693497833     -0.00648285103018
C   1.24714157216223      3.53468075142962     -0.00729145743546
C   0.01517603956900      2.83311183930540      0.00439272578912
C   2.46764517244071      2.82128997725533      0.00449278391269
C   3.70254947457969      3.52466015442405     -0.00899517692985
C   6.14498038638375      4.92757236613191     -0.00282626685777
C   6.16658835886151      3.51658447594213     -0.00065971342101
C   4.92460995845939      2.80840792535402      0.00587903281610
H   7.08990550964105      5.46688776622306     -0.00658814770723
H   -7.03104175110130      5.54268795285765     -0.00714490013730
C   -7.33969804112295      2.85841153457957     -0.00333767559888
C   -7.36488195805880      1.47032337158330     -0.00157213747140
C   -4.90350460894690      1.44442681216000     -0.00628840166334
C   -6.13225715261081      0.73993935705394      0.00600164231964
C   -3.67687480051673      0.72669714267312      0.00433931473643
C   -2.44565658606518      1.42964113326212     -0.00597039546461
C   -1.22360068130162      0.71532450163492      0.00545886906656
C   0.00763786931376      1.41738314923765      0.00392452278437
C   1.23121980774686      0.70211669058719     -0.01490206287210
C   2.46082110053113      1.40329203612573      0.00460244601878
C   3.68443025419614      0.68719842821222      0.00377365974158
C   4.91870890153864      1.39173456118907     -0.00862816189375
C   7.36980207796101      2.77948220318441     -0.00242013321349
C   7.38016266612146      1.39121750785509     -0.00087345036788
C   6.13979953912259      0.67411862320065      0.00545489144369
H   -8.27919079934664      3.40711804112415     -0.00763522772059
H   8.31511347147953      3.31811809662368     -0.00663070901292
C   -8.59175593758115      0.72483255304480     -0.00123170985383
C   -8.59902460370342     -0.63263980622873      0.00089141472904
C   -6.13981313911873     -0.67413663715361     -0.00609792660607
C   -7.38018411213749     -1.39126618958160      0.00131813493501
C   -4.91868448025621     -1.39175501803000      0.00624257154343
C   -3.68443829568458     -0.68723731573599     -0.00478966852105
C   -2.46081704024768     -1.40334517882457      0.00575341766833
C   -1.23116201232071     -0.70217386488055     -0.00636696112346
C   -0.00756962538737     -1.41741884941102      0.00108956317991
C   1.22364771588843     -0.71527537726392      0.01109518512883
C   2.44567064933149     -1.42964328900682     -0.00065482763106
C   3.67686670284649     -0.72670743155550     -0.00479541202602
C   6.13224884641929     -0.73997883984993     -0.00632338623858
C   4.90351914550401     -1.44445752054090      0.00751768830159
C   8.59901484869081      0.63260386666793     -0.00101133422380
C   8.59174548810050     -0.72485086719319      0.00072504603735
C   7.36486276438985     -1.47033266560598      0.00049486934466
H   -9.52830597181814      1.27684744919284     -0.00270163681798
H   9.54141097460619      1.17457248844457     -0.00206336648518
C   -7.36983790976868     -2.77954514593389      0.00312634335708
C   -4.92459910905015     -2.80843725734101     -0.00460528907921
C   -6.16662249566744     -3.51665219282533      0.00169655107992
C   -3.70251035970491     -3.52468154912026      0.00571878010666
C   -2.46764698511392     -2.82132596280400     -0.00632585824990
C   -0.01513347410770     -2.83314164539971     -0.00604426974092
C   -1.24712184122656     -3.53473217556300      0.00551968366725
C   1.20924506964357     -3.54791467864352      0.00805871345849
C   2.43733602215464     -2.84764173817541     -0.00608104485234
C   4.89430234377080     -2.86112296828604     -0.00526030478103
C   3.66461525504104     -3.56421984553201      0.00761911515957
C   6.12863901474565     -3.58258405771778      0.00096495711699
C   7.33967266469532     -2.85841330737039      0.00248018319869
H   -9.54144911125902     -1.17456346666430      0.00226083090216
H   9.52826186807155     -1.27691907390448      0.00197485379837
H   -8.31516504384864     -3.31814985321231      0.00729857188773
H   8.27915514249207     -3.40714078989363      0.00681973918158
C   -6.14499418870218     -4.92764727278338      0.00302254913999
C   -3.70678334799751     -4.94126171411716     -0.00679841894792
C   -4.95559005800169     -5.64349397349412      0.00116871569699
C   -2.48612132622665     -5.65478557440947      0.00614125209662
C   -1.25405833548005     -4.95612205000132     -0.00503435388927
C   1.20101257386816     -4.96928038819302     -0.00385322963129
C   -0.03033667441341     -5.66952030313900      0.00398997003238
C   3.65375010132847     -4.98074377541453     -0.00309522988330
C   2.42549269587528     -5.68117463552727      0.00628170066869
C   6.09196561781097     -4.99325796338655      0.00325918379042
C   4.89497644461045     -5.69634842095790      0.00202298796027
H   -7.08989238804069     -5.46699984223871      0.00742531082125
H   7.03105520920009     -5.54265853633254      0.00683896355417
C   -4.92354532219813     -7.07882109967734      0.00061394679214
C   -2.48534208823777     -7.08772807792913     -0.00189594564379
C   -3.75168589177895     -7.76394715763627     -0.00170126671874
C   -0.03794895698805     -7.09946487446944     -0.00168022049625
C   -1.27795610040136     -7.77290438466689     -0.00366491325785
C   2.40944432072629     -7.11402201200282     -0.00081701968533
C   1.19474993715296     -7.78618536556242     -0.00296931056689
C   4.84762105249800     -7.13126211057943      0.00168979497423
C   3.66847160587561     -7.80378799294376     -0.00065863938960
H   -5.86994035041618     -7.61383059804164      0.00215798365757
H   5.78824962538815     -7.67633218931421      0.00281691445618
H   -3.75352693944918     -8.85107156923607     -0.00353718114765
H   -1.28430440589466     -8.86087539249706     -0.00809229711623
H   1.18922157469537     -8.87416062058945     -0.00706194725726
H   3.65854661482387     -8.89086063405326     -0.00231318081200

    units angstrom      # Angstroms are the default
    no_reorient         # Geometry fixed, default
    symmetry c1         # C1 symmetry, default
}

set {
    scf_type DF         # Density fitting, faster than exact integrals
    freeze_core True    # Freeze core electrons
    basis jun-cc-pVDZ   # Jun-cc-pVDZ basis set, recommended for sSAPT0 in https://doi.org/10.1063/1.4867135
}

energy('ssapt0')        # Compute sSAPT0 energy, includes also SAPT0
--------------------------------------------------------------------------

  Memory set to  59.605 GiB by Python driver.

Scratch directory: /tmp/
   => Loading Basis Set <=

    Name: JUN-CC-PVDZ
    Role: ORBITAL
    Keyword: BASIS
    atoms 1-2, 4-5, 10, 17-34, 41-53, 56-70, 73-89, 92-104, 109-119, 122-130 entry C          line   164 file /opt/software/pc2/EB-SW/software/PSI4/1.9-foss-2022a/share/psi4/basis/jun-cc-pvdz.gbs 
    atoms 3, 6                                                               entry N          line   198 file /opt/software/pc2/EB-SW/software/PSI4/1.9-foss-2022a/share/psi4/basis/jun-cc-pvdz.gbs 
    atoms 7-9, 11-16, 35-40, 54-55, 71-72, 90-91, 105-108, 120-121, 131-136  entry H          line    36 file /opt/software/pc2/EB-SW/software/PSI4/1.9-foss-2022a/share/psi4/basis/jun-cc-pvdz.gbs 

   => Loading Basis Set <=

    Name: JUN-CC-PVDZ
    Role: ORBITAL
    Keyword: BASIS
    atoms 1-2, 4-5, 10, 17-34, 41-53, 56-70, 73-89, 92-104, 109-119, 122-130 entry C          line   164 file /opt/software/pc2/EB-SW/software/PSI4/1.9-foss-2022a/share/psi4/basis/jun-cc-pvdz.gbs 
    atoms 3, 6                                                               entry N          line   198 file /opt/software/pc2/EB-SW/software/PSI4/1.9-foss-2022a/share/psi4/basis/jun-cc-pvdz.gbs 
    atoms 7-9, 11-16, 35-40, 54-55, 71-72, 90-91, 105-108, 120-121, 131-136  entry H          line    36 file /opt/software/pc2/EB-SW/software/PSI4/1.9-foss-2022a/share/psi4/basis/jun-cc-pvdz.gbs 


  //>>>>>>>>>>>>>>>>>>>>>>>>>>>>>>>>>>>//
  //              Dimer HF             //
  //<<<<<<<<<<<<<<<<<<<<<<<<<<<<<<<<<<<//

   => Libint2 <=

    Primary   basis highest AM E, G, H:  5, 4, 3
    Auxiliary basis highest AM E, G, H:  6, 5, 4
    Onebody   basis highest AM E, G, H:  6, 5, 4
    Solid Harmonics ordering:            gaussian

*** tstart() called on n2cn0487.ab2021.local
*** at Fri Jan 26 23:41:34 2024

   => Loading Basis Set <=

    Name: JUN-CC-PVDZ
    Role: ORBITAL
    Keyword: BASIS
    atoms 1-2, 4-5, 10, 17-34, 41-53, 56-70, 73-89, 92-104, 109-119, 122-130 entry C          line   164 file /opt/software/pc2/EB-SW/software/PSI4/1.9-foss-2022a/share/psi4/basis/jun-cc-pvdz.gbs 
    atoms 3, 6                                                               entry N          line   198 file /opt/software/pc2/EB-SW/software/PSI4/1.9-foss-2022a/share/psi4/basis/jun-cc-pvdz.gbs 
    atoms 7-9, 11-16, 35-40, 54-55, 71-72, 90-91, 105-108, 120-121, 131-136  entry H          line    36 file /opt/software/pc2/EB-SW/software/PSI4/1.9-foss-2022a/share/psi4/basis/jun-cc-pvdz.gbs 


         ---------------------------------------------------------
                                   SCF
               by Justin Turney, Rob Parrish, Andy Simmonett
                          and Daniel G. A. Smith
                              RHF Reference
                       16 Threads,  61035 MiB Core
         ---------------------------------------------------------

  ==> Geometry <==

    Molecular point group: c1
    Full point group: C1

    Geometry (in Angstrom), charge = 1, multiplicity = 1:

       Center              X                  Y                   Z               Mass       
    ------------   -----------------  -----------------  -----------------  -----------------
         C            0.680062820275    -0.008027535675    -4.910965675448    12.000000000000
         C           -0.680508179725    -0.005999535675    -4.910581675448    12.000000000000
         N           -1.085639179725    -0.005001535675    -3.592257675448    14.003074004430
         C            0.000103820275    -0.001725535675    -2.810856675448    12.000000000000
         C           -2.477369179725     0.044404464325    -3.124278675448    12.000000000000
         N            1.085217820275    -0.005001535675    -3.592257675448    14.003074004430
         H            1.385141820275    -0.015855535675    -5.728404675448     1.007825032230
         H           -1.385306179725    -0.006189535675    -5.728250675448     1.007825032230
         H           -0.000013179725     0.000021464325    -1.729767675448     1.007825032230
         C            2.478112820275    -0.021893535675    -3.127159675448    12.000000000000
         H            2.490587820275     0.005451464325    -2.036906675448     1.007825032230
         H            2.967023820275    -0.935339535675    -3.474335675448     1.007825032230
         H            3.001423820275     0.853589464325    -3.518631675448     1.007825032230
         H           -2.857363179725     1.066475464325    -3.204237675448     1.007825032230
         H           -3.082683179725    -0.625679535675    -3.737342675448     1.007825032230
         H           -2.518132179725    -0.282579535675    -2.084330675448     1.007825032230
         C           -3.668445443746     7.803766634408     0.306863365888    12.000000000000
         C           -4.847602899072     7.131256295665     0.304496790955    12.000000000000
         C           -4.894963478901     5.696344867857     0.303923879857    12.000000000000
         C           -3.653744858499     4.980744805284     0.311584321587    12.000000000000
         C           -2.409429301220     7.113995501000     0.307057708148    12.000000000000
         C           -2.425481523830     5.681136415228     0.300052819278    12.000000000000
         C           -1.194748196161     7.786158658634     0.308529888690    12.000000000000
         C            0.037954849212     7.099436110082     0.306359184385    12.000000000000
         C            0.030328407694     5.669504024030     0.300875799469    12.000000000000
         C           -1.200988687630     4.969284812240     0.309845533403    12.000000000000
         C            1.277953646089     7.772873907520     0.307735032946    12.000000000000
         C            2.485353904999     7.087711349563     0.305460545041    12.000000000000
         C            2.486124505192     5.654785274566     0.298522796053    12.000000000000
         C            1.254078739919     4.956092577989     0.310150737641    12.000000000000
         C            3.751710411681     7.763926615305     0.305587396421    12.000000000000
         C            4.923561876460     7.078795241315     0.303530915713    12.000000000000
         C            4.955603091600     5.643461927694     0.303370502906    12.000000000000
         C            3.706797354479     4.941224672658     0.308462063076    12.000000000000
         H           -3.658525317484     8.890841883460     0.308548354138     1.007825032230
         H           -1.189217509482     8.874135551685     0.312501765131     1.007825032230
         H            1.284290059161     8.860847899813     0.311893857087     1.007825032230
         H            3.753537907074     8.851049743297     0.307109920737     1.007825032230
         H            5.869954523482     7.613809298981     0.302605548671     1.007825032230
         H           -5.788235887228     7.676316677259     0.302936943599     1.007825032230
         C           -6.091978138422     4.993274477968     0.302051639366    12.000000000000
         C           -6.128665660043     3.582594633123     0.303252816395    12.000000000000
         C           -3.664583919771     3.564196644069     0.300327721777    12.000000000000
         C           -4.894302384424     2.861095240226     0.309496706763    12.000000000000
         C           -2.437339174623     2.847626121410     0.312159500314    12.000000000000
         C           -1.209232037322     3.547901399303     0.298480473522    12.000000000000
         C            1.247137392437     3.534695215755     0.297671867117    12.000000000000
         C            0.015171859844     2.833126303630     0.309356050341    12.000000000000
         C            2.467640992715     2.821304441580     0.309456108465    12.000000000000
         C            3.702545294854     3.524674618749     0.295968147622    12.000000000000
         C            6.144976206658     4.927586830457     0.302137057694    12.000000000000
         C            6.166584179136     3.516598940267     0.304303611131    12.000000000000
         C            4.924605778734     2.808422389679     0.310842357368    12.000000000000
         H            7.089901329916     5.466902230548     0.298375176845     1.007825032230
         H           -7.031045930827     5.542702417183     0.297818424415     1.007825032230
         C           -7.339702220848     2.858425998905     0.301625648953    12.000000000000
         C           -7.364886137784     1.470337835908     0.303391187081    12.000000000000
         C           -4.903508788672     1.444441276485     0.298674922889    12.000000000000
         C           -6.132261332336     0.739953821379     0.310964966872    12.000000000000
         C           -3.676878980242     0.726711606998     0.309302639289    12.000000000000
         C           -2.445660765791     1.429655597587     0.298992929088    12.000000000000
         C           -1.223604861027     0.715338965960     0.310422193619    12.000000000000
         C            0.007633689588     1.417397613563     0.308887847337    12.000000000000
         C            1.231215628021     0.702131154912     0.290061261680    12.000000000000
         C            2.460816920806     1.403306500451     0.309565770571    12.000000000000
         C            3.684426074471     0.687212892537     0.308736984294    12.000000000000
         C            4.918704721813     1.391749025514     0.296335162659    12.000000000000
         C            7.369797898236     2.779496667509     0.302543191339    12.000000000000
         C            7.380158486396     1.391231972180     0.304089874184    12.000000000000
         C            6.139795359397     0.674133087526     0.310418215996    12.000000000000
         H           -8.279194979072     3.407132505449     0.297328096832     1.007825032230
         H            8.315109291754     3.318132560949     0.298332615539     1.007825032230
         C           -8.591760117307     0.724847017370     0.303731614698    12.000000000000
         C           -8.599028783429    -0.632625341904     0.305854739281    12.000000000000
         C           -6.139817318844    -0.674122172829     0.298865397946    12.000000000000
         C           -7.380188291863    -1.391251725257     0.306281459487    12.000000000000
         C           -4.918688659982    -1.391740553705     0.311205896096    12.000000000000
         C           -3.684442475410    -0.687222851411     0.300173656031    12.000000000000
         C           -2.460821219973    -1.403330714500     0.310716742221    12.000000000000
         C           -1.231166192046    -0.702159400556     0.298596363429    12.000000000000
         C           -0.007573805113    -1.417404385086     0.306052887732    12.000000000000
         C            1.223643536163    -0.715260912939     0.316058509681    12.000000000000
         C            2.445666469606    -1.429628824682     0.304308496921    12.000000000000
         C            3.676862523121    -0.726692967231     0.300167912526    12.000000000000
         C            6.132244666694    -0.739964375525     0.298639938314    12.000000000000
         C            4.903514965779    -1.444443056216     0.312481012854    12.000000000000
         C            8.599010668965     0.632618330993     0.303951990328    12.000000000000
         C            8.591741308375    -0.724836402868     0.305688370590    12.000000000000
         C            7.364858584664    -1.470318201281     0.305458193897    12.000000000000
         H           -9.528310151544     1.276861913518     0.302261687734     1.007825032230
         H            9.541406794881     1.174586952770     0.302899958067     1.007825032230
         C           -7.369842089494    -2.779530681609     0.308089667909    12.000000000000
         C           -4.924603288776    -2.808422793016     0.300358035473    12.000000000000
         C           -6.166626675393    -3.516637728500     0.306659875632    12.000000000000
         C           -3.702514539430    -3.524667084795     0.310682104659    12.000000000000
         C           -2.467651164839    -2.821311498479     0.298637466302    12.000000000000
         C           -0.015137653833    -2.833127181075     0.298919054811    12.000000000000
         C           -1.247126020952    -3.534717711238     0.310483008220    12.000000000000
         C            1.209240889918    -3.547900214319     0.313022038011    12.000000000000
         C            2.437331842429    -2.847627273850     0.298882279700    12.000000000000
         C            4.894298164045    -2.861108503961     0.299703019771    12.000000000000
         C            3.664611075316    -3.564205381207     0.312582439712    12.000000000000
         C            6.128634835020    -3.582569593393     0.305928281669    12.000000000000
         C            7.339668484970    -2.858398843045     0.307443507751    12.000000000000
         H           -9.541453290984    -1.174549002339     0.307224155454     1.007825032230
         H            9.528257688346    -1.276904609579     0.306938178351     1.007825032230
         H           -8.315169223574    -3.318135388887     0.312261896440     1.007825032230
         H            8.279150962767    -3.407126325569     0.311783063734     1.007825032230
         C           -6.144998368428    -4.927632808458     0.307985873692    12.000000000000
         C           -3.706787527723    -4.941247249792     0.298164905604    12.000000000000
         C           -4.955594237727    -5.643479509169     0.306132040249    12.000000000000
         C           -2.486125505952    -5.654771110084     0.311104576649    12.000000000000
         C           -1.254062515205    -4.956107585676     0.299928970663    12.000000000000
         C            1.201008394143    -4.969265923868     0.301110094921    12.000000000000
         C           -0.030340854139    -5.669505838814     0.308953294585    12.000000000000
         C            3.653745921603    -4.980729311090     0.301868094669    12.000000000000
         C            2.425488516150    -5.681160171202     0.311245025221    12.000000000000
         C            6.091961438086    -4.993243499062     0.308222508343    12.000000000000
         C            4.894972264885    -5.696333956633     0.306986312513    12.000000000000
         H           -7.089896567766    -5.466985377914     0.312388635374     1.007825032230
         H            7.031051029475    -5.542644072008     0.311802288106     1.007825032230
         C           -4.923549501924    -7.078806635352     0.305577271344    12.000000000000
         C           -2.485346267963    -7.087713613604     0.303067378908    12.000000000000
         C           -3.751690071504    -7.763932693311     0.303262057834    12.000000000000
         C           -0.037953136713    -7.099450410144     0.303283104056    12.000000000000
         C           -1.277960280127    -7.772889920342     0.301298411294    12.000000000000
         C            2.409440141001    -7.114007547678     0.304146304867    12.000000000000
         C            1.194745757428    -7.786170901237     0.301994013985    12.000000000000
         C            4.847616872773    -7.131247646254     0.306653119526    12.000000000000
         C            3.668467426150    -7.803773528619     0.304304685163    12.000000000000
         H           -5.869944530142    -7.613816133717     0.307121308210     1.007825032230
         H            5.788245445663    -7.676317724989     0.307780239008     1.007825032230
         H           -3.753531119175    -8.851057104911     0.301426143405     1.007825032230
         H           -1.284308585620    -8.860860928172     0.296871027436     1.007825032230
         H            1.189217394970    -8.874146156264     0.297901377295     1.007825032230
         H            3.658542435098    -8.890846169728     0.302650143740     1.007825032230

  Running in c1 symmetry.

  Rotational constants: A =      0.00066  B =      0.00066  C =      0.00035 [cm^-1]
  Rotational constants: A =     19.88945  B =     19.70619  C =     10.51914 [MHz]
  Nuclear repulsion = 18323.497626214113552

  Charge       = 1
  Multiplicity = 1
  Electrons    = 652
  Nalpha       = 326
  Nbeta        = 326

  ==> Algorithm <==

  SCF Algorithm Type is DF.
  DIIS enabled.
  MOM disabled.
  Fractional occupation disabled.
  Guess Type is SAD.
  Energy threshold   = 1.00e-08
  Density threshold  = 1.00e-08
  Integral threshold = 1.00e-12

  ==> Primary Basis <==

  Basis Set: JUN-CC-PVDZ
    Blend: JUN-CC-PVDZ
    Number of shells: 923
    Number of basis functions: 2019
    Number of Cartesian functions: 2122
    Spherical Harmonics?: true
    Max angular momentum: 2

   => Loading Basis Set <=

    Name: (JUN-CC-PVDZ AUX)
    Role: JKFIT
    Keyword: DF_BASIS_SCF
    atoms 1-2, 4-5, 10, 17-34, 41-53, 56-70, 73-89, 92-104, 109-119, 122-130 entry C          line   146 file /opt/software/pc2/EB-SW/software/PSI4/1.9-foss-2022a/share/psi4/basis/jun-cc-pvdz-jkfit.gbs 
    atoms 3, 6                                                               entry N          line   202 file /opt/software/pc2/EB-SW/software/PSI4/1.9-foss-2022a/share/psi4/basis/jun-cc-pvdz-jkfit.gbs 
    atoms 7-9, 11-16, 35-40, 54-55, 71-72, 90-91, 105-108, 120-121, 131-136  entry H          line    70 file /opt/software/pc2/EB-SW/software/PSI4/1.9-foss-2022a/share/psi4/basis/jun-cc-pvdz-jkfit.gbs 

  ==> Integral Setup <==

  ==> DiskDFJK: Density-Fitted J/K Matrices <==

    J tasked:                  Yes
    K tasked:                  Yes
    wK tasked:                  No
    OpenMP threads:             16
    Integrals threads:          16
    Memory [MiB]:            45776
    Algorithm:                Disk
    Integral Cache:           SAVE
    Schwarz Cutoff:          1E-12
    Fitting Condition:       1E-10

   => Auxiliary Basis Set <=

  Basis Set: (JUN-CC-PVDZ AUX)
    Blend: JUN-CC-PVDZ-JKFIT
    Number of shells: 3078
    Number of basis functions: 8896
    Number of Cartesian functions: 10198
    Spherical Harmonics?: true
    Max angular momentum: 3

  Minimum eigenvalue in the overlap matrix is 4.9625203342E-11.
  Reciprocal condition number of the overlap matrix is 1.9714830688E-12.
    Using canonical orthogonalization.
  Overall, 40 of 2019 possible MOs eliminated.


  ==> Pre-Iterations <==

  SCF Guess: Superposition of Atomic Densities via on-the-fly atomic UHF (no occupation information).

   -------------------------
    Irrep   Nso     Nmo    
   -------------------------
     A       2019    1979 
   -------------------------
    Total    2019    1979
   -------------------------

  ==> Iterations <==

                           Total Energy        Delta E     RMS |[F,P]|

   @DF-RHF iter SAD: -3967.69660728661802   -3.96770e+03   0.00000e+00 
   @DF-RHF iter   1: -3952.11607805635595    1.55805e+01   7.15801e-04 ADIIS/DIIS
   @DF-RHF iter   2: -3953.49573799618884   -1.37966e+00   2.40990e-04 ADIIS/DIIS
   @DF-RHF iter   3: -3953.61597199345260   -1.20234e-01   1.19916e-04 ADIIS/DIIS
   @DF-RHF iter   4: -3953.64537704038321   -2.94050e-02   5.28762e-05 DIIS
   @DF-RHF iter   5: -3953.65249382873662   -7.11679e-03   1.25569e-05 DIIS
   @DF-RHF iter   6: -3953.65306431454746   -5.70486e-04   4.75628e-06 DIIS
   @DF-RHF iter   7: -3953.65326523972590   -2.00925e-04   2.28570e-06 DIIS
   @DF-RHF iter   8: -3953.65333102326395   -6.57835e-05   1.12987e-06 DIIS
   @DF-RHF iter   9: -3953.65334985449181   -1.88312e-05   3.78588e-07 DIIS
   @DF-RHF iter  10: -3953.65335116683764   -1.31235e-06   1.56040e-07 DIIS
   @DF-RHF iter  11: -3953.65335133928329   -1.72446e-07   6.58895e-08 DIIS
   @DF-RHF iter  12: -3953.65335137529473   -3.60114e-08   3.47932e-08 DIIS
   @DF-RHF iter  13: -3953.65335138490309   -9.60836e-09   1.16206e-08 DIIS
   @DF-RHF iter  14: -3953.65335138598221   -1.07912e-09   5.26436e-09 DIIS
  Energy and wave function converged.


  ==> Post-Iterations <==

    Orbital Energies [Eh]
    ---------------------

    Doubly Occupied:                                                      

       1A    -15.785360     2A    -15.784930     3A    -11.476178  
       4A    -11.416623     5A    -11.415067     6A    -11.400432  
       7A    -11.400378     8A    -11.345430     9A    -11.345139  
      10A    -11.344676    11A    -11.344100    12A    -11.343429  
      13A    -11.343177    14A    -11.341242    15A    -11.341238  
      16A    -11.341082    17A    -11.340941    18A    -11.339856  
      19A    -11.339812    20A    -11.338832    21A    -11.338741  
      22A    -11.337797    23A    -11.337703    24A    -11.337105  
      25A    -11.337051    26A    -11.336974    27A    -11.336947  
      28A    -11.335927    29A    -11.335885    30A    -11.335776  
      31A    -11.335748    32A    -11.332410    33A    -11.332369  
      34A    -11.332320    35A    -11.332243    36A    -11.331353  
      37A    -11.331322    38A    -11.331297    39A    -11.331296  
      40A    -11.330557    41A    -11.330491    42A    -11.330393  
      43A    -11.330323    44A    -11.329476    45A    -11.329469  
      46A    -11.328850    47A    -11.328827    48A    -11.328806  
      49A    -11.328797    50A    -11.328449    51A    -11.328430  
      52A    -11.328171    53A    -11.328135    54A    -11.328119  
      55A    -11.328099    56A    -11.327647    57A    -11.327621  
      58A    -11.327619    59A    -11.327617    60A    -11.327587  
      61A    -11.327571    62A    -11.327123    63A    -11.327107  
      64A    -11.327093    65A    -11.327085    66A    -11.326558  
      67A    -11.326531    68A    -11.326292    69A    -11.326284  
      70A    -11.326259    71A    -11.326254    72A    -11.325672  
      73A    -11.325643    74A    -11.325643    75A    -11.325636  
      76A    -11.325128    77A    -11.325122    78A    -11.325087  
      79A    -11.325081    80A    -11.319414    81A    -11.319335  
      82A    -11.319325    83A    -11.319238    84A    -11.318679  
      85A    -11.318618    86A    -11.318594    87A    -11.318559  
      88A    -11.318339    89A    -11.318332    90A    -11.318255  
      91A    -11.318250    92A    -11.316035    93A    -11.316030  
      94A    -11.315149    95A    -11.315131    96A    -11.315120  
      97A    -11.315112    98A    -11.314565    99A    -11.314560  
     100A    -11.313668   101A    -11.313649   102A    -11.313635  
     103A    -11.313625   104A     -1.530129   105A     -1.385586  
     106A     -1.331146   107A     -1.311582   108A     -1.310146  
     109A     -1.290020   110A     -1.289683   111A     -1.288824  
     112A     -1.268532   113A     -1.263866   114A     -1.260912  
     115A     -1.259571   116A     -1.240733   117A     -1.240701  
     118A     -1.226810   119A     -1.226294   120A     -1.225216  
     121A     -1.211143   122A     -1.211081   123A     -1.197566  
     124A     -1.192276   125A     -1.185133   126A     -1.184563  
     127A     -1.183571   128A     -1.179482   129A     -1.177507  
     130A     -1.157214   131A     -1.157130   132A     -1.143029  
     133A     -1.142947   134A     -1.141926   135A     -1.137401  
     136A     -1.137117   137A     -1.135704   138A     -1.114612  
     139A     -1.114605   140A     -1.108654   141A     -1.104710  
     142A     -1.104556   143A     -1.096404   144A     -1.095010  
     145A     -1.094213   146A     -1.075609   147A     -1.074075  
     148A     -1.071642   149A     -1.071033   150A     -1.070310  
     151A     -1.070169   152A     -1.056342   153A     -1.039969  
     154A     -1.039718   155A     -1.022621   156A     -1.022501  
     157A     -0.978316   158A     -0.978009   159A     -0.977726  
     160A     -0.975959   161A     -0.970601   162A     -0.970574  
     163A     -0.964203   164A     -0.964043   165A     -0.960458  
     166A     -0.960372   167A     -0.958860   168A     -0.950085  
     169A     -0.938280   170A     -0.932950   171A     -0.919635  
     172A     -0.918301   173A     -0.917717   174A     -0.914644  
     175A     -0.912030   176A     -0.902168   177A     -0.902052  
     178A     -0.893478   179A     -0.893372   180A     -0.870642  
     181A     -0.855588   182A     -0.855103   183A     -0.852048  
     184A     -0.850572   185A     -0.850508   186A     -0.848935  
     187A     -0.848872   188A     -0.835537   189A     -0.832087  
     190A     -0.819926   191A     -0.803218   192A     -0.799723  
     193A     -0.795413   194A     -0.794773   195A     -0.793298  
     196A     -0.792682   197A     -0.792212   198A     -0.788417  
     199A     -0.783729   200A     -0.783426   201A     -0.772300  
     202A     -0.768757   203A     -0.766542   204A     -0.766250  
     205A     -0.755708   206A     -0.752539   207A     -0.752391  
     208A     -0.749374   209A     -0.749289   210A     -0.747389  
     211A     -0.744083   212A     -0.739716   213A     -0.738327  
     214A     -0.720106   215A     -0.719972   216A     -0.719578  
     217A     -0.718328   218A     -0.718211   219A     -0.715916  
     220A     -0.710957   221A     -0.710430   222A     -0.706956  
     223A     -0.705370   224A     -0.705235   225A     -0.704413  
     226A     -0.703871   227A     -0.696760   228A     -0.687668  
     229A     -0.680732   230A     -0.680515   231A     -0.676169  
     232A     -0.676086   233A     -0.674134   234A     -0.671714  
     235A     -0.670209   236A     -0.669483   237A     -0.667914  
     238A     -0.667420   239A     -0.666121   240A     -0.664733  
     241A     -0.662695   242A     -0.662369   243A     -0.662028  
     244A     -0.661962   245A     -0.658197   246A     -0.658076  
     247A     -0.658014   248A     -0.644737   249A     -0.644639  
     250A     -0.642082   251A     -0.641848   252A     -0.640068  
     253A     -0.638852   254A     -0.638670   255A     -0.638087  
     256A     -0.633128   257A     -0.632732   258A     -0.627294  
     259A     -0.626767   260A     -0.624795   261A     -0.623217  
     262A     -0.621698   263A     -0.617512   264A     -0.612087  
     265A     -0.610995   266A     -0.607247   267A     -0.605749  
     268A     -0.601097   269A     -0.600900   270A     -0.597899  
     271A     -0.594180   272A     -0.594075   273A     -0.585465  
     274A     -0.585152   275A     -0.581729   276A     -0.581556  
     277A     -0.575378   278A     -0.575212   279A     -0.565285  
     280A     -0.564733   281A     -0.564406   282A     -0.563964  
     283A     -0.563516   284A     -0.560931   285A     -0.549963  
     286A     -0.546904   287A     -0.543030   288A     -0.542984  
     289A     -0.540506   290A     -0.538376   291A     -0.534329  
     292A     -0.534176   293A     -0.527436   294A     -0.517803  
     295A     -0.517468   296A     -0.513980   297A     -0.513597  
     298A     -0.511565   299A     -0.499592   300A     -0.499316  
     301A     -0.479006   302A     -0.476330   303A     -0.475985  
     304A     -0.456468   305A     -0.456104   306A     -0.454432  
     307A     -0.450894   308A     -0.450699   309A     -0.422242  
     310A     -0.422093   311A     -0.418724   312A     -0.413082  
     313A     -0.412425   314A     -0.411414   315A     -0.397634  
     316A     -0.397215   317A     -0.377053   318A     -0.373291  
     319A     -0.373174   320A     -0.367501   321A     -0.352761  
     322A     -0.324643   323A     -0.324032   324A     -0.319600  
     325A     -0.271863   326A     -0.271556  

    Virtual:                                                              

     327A     -0.079744   328A     -0.079221   329A     -0.036376  
     330A     -0.035908   331A     -0.032531   332A     -0.023969  
     333A     -0.023382   334A     -0.021673   335A     -0.011300  
     336A     -0.005614   337A     -0.004871   338A     -0.004292  
     339A     -0.003917   340A     -0.002768   341A     -0.001638  
     342A     -0.000585   343A     -0.000322   344A      0.001393  
     345A      0.003406   346A      0.004740   347A      0.005072  
     348A      0.007668   349A      0.007991   350A      0.008191  
     351A      0.011106   352A      0.013648   353A      0.013724  
     354A      0.013984   355A      0.014255   356A      0.017635  
     357A      0.018886   358A      0.024763   359A      0.024812  
     360A      0.025916   361A      0.026829   362A      0.027354  
     363A      0.031964   364A      0.033992   365A      0.034857  
     366A      0.035004   367A      0.035796   368A      0.037340  
     369A      0.039648   370A      0.040014   371A      0.041919  
     372A      0.042089   373A      0.042475   374A      0.043990  
     375A      0.049393   376A      0.050499   377A      0.050691  
     378A      0.050865   379A      0.051673   380A      0.052684  
     381A      0.052981   382A      0.053246   383A      0.054405  
     384A      0.055613   385A      0.056810   386A      0.059064  
     387A      0.059582   388A      0.062789   389A      0.063489  
     390A      0.066192   391A      0.067638   392A      0.068021  
     393A      0.072599   394A      0.072818   395A      0.073195  
     396A      0.074678   397A      0.075321   398A      0.077286  
     399A      0.078185   400A      0.078424   401A      0.080097  
     402A      0.081474   403A      0.083087   404A      0.084895  
     405A      0.085608   406A      0.085732   407A      0.087799  
     408A      0.088994   409A      0.090526   410A      0.093888  
     411A      0.094952   412A      0.098050   413A      0.102439  
     414A      0.102775   415A      0.103717   416A      0.104047  
     417A      0.105594   418A      0.105979   419A      0.106660  
     420A      0.106707   421A      0.107220   422A      0.108372  
     423A      0.109906   424A      0.112394   425A      0.112692  
     426A      0.113325   427A      0.113421   428A      0.114400  
     429A      0.116057   430A      0.122929   431A      0.125301  
     432A      0.126052   433A      0.126107   434A      0.126643  
     435A      0.127862   436A      0.130806   437A      0.131586  
     438A      0.132193   439A      0.132441   440A      0.134535  
     441A      0.134625   442A      0.134693   443A      0.134944  
     444A      0.136557   445A      0.140735   446A      0.141824  
     447A      0.143615   448A      0.145317   449A      0.145686  
     450A      0.145946   451A      0.147183   452A      0.147601  
     453A      0.147894   454A      0.148512   455A      0.149239  
     456A      0.149498   457A      0.150670   458A      0.152044  
     459A      0.153069   460A      0.153411   461A      0.153511  
     462A      0.153785   463A      0.155862   464A      0.157170  
     465A      0.157929   466A      0.158555   467A      0.160004  
     468A      0.162161   469A      0.162493   470A      0.162767  
     471A      0.165182   472A      0.166191   473A      0.166421  
     474A      0.168029   475A      0.169143   476A      0.169947  
     477A      0.170487   478A      0.172434   479A      0.172846  
     480A      0.173787   481A      0.173801   482A      0.173984  
     483A      0.176052   484A      0.177956   485A      0.178747  
     486A      0.179035   487A      0.180835   488A      0.183284  
     489A      0.184027   490A      0.184707   491A      0.185885  
     492A      0.186113   493A      0.189617   494A      0.190701  
     495A      0.192490   496A      0.192798   497A      0.193165  
     498A      0.193750   499A      0.194190   500A      0.195634  
     501A      0.196478   502A      0.199892   503A      0.200236  
     504A      0.201365   505A      0.202881   506A      0.203039  
     507A      0.205243   508A      0.205890   509A      0.206821  
     510A      0.207068   511A      0.207508   512A      0.207926  
     513A      0.208870   514A      0.211054   515A      0.211519  
     516A      0.212235   517A      0.215291   518A      0.215366  
     519A      0.216875   520A      0.218116   521A      0.219264  
     522A      0.219587   523A      0.220130   524A      0.222718  
     525A      0.223231   526A      0.224576   527A      0.225785  
     528A      0.227384   529A      0.227790   530A      0.228020  
     531A      0.229853   532A      0.230425   533A      0.231348  
     534A      0.232197   535A      0.233560   536A      0.234103  
     537A      0.235421   538A      0.235890   539A      0.237466  
     540A      0.238144   541A      0.238595   542A      0.239583  
     543A      0.241868   544A      0.243486   545A      0.243903  
     546A      0.244180   547A      0.245556   548A      0.247141  
     549A      0.249673   550A      0.250113   551A      0.251561  
     552A      0.252899   553A      0.254012   554A      0.254807  
     555A      0.255732   556A      0.256415   557A      0.257709  
     558A      0.257773   559A      0.258520   560A      0.259099  
     561A      0.259795   562A      0.260353   563A      0.261634  
     564A      0.262094   565A      0.262671   566A      0.263468  
     567A      0.265536   568A      0.267092   569A      0.267558  
     570A      0.268450   571A      0.269697   572A      0.270375  
     573A      0.270774   574A      0.271295   575A      0.271646  
     576A      0.272655   577A      0.273879   578A      0.274177  
     579A      0.274990   580A      0.276094   581A      0.276370  
     582A      0.279814   583A      0.281302   584A      0.281534  
     585A      0.282037   586A      0.282744   587A      0.283632  
     588A      0.284600   589A      0.286662   590A      0.287057  
     591A      0.287377   592A      0.287683   593A      0.288375  
     594A      0.289467   595A      0.292128   596A      0.293088  
     597A      0.293585   598A      0.294870   599A      0.295777  
     600A      0.296738   601A      0.298405   602A      0.298795  
     603A      0.300143   604A      0.300239   605A      0.302010  
     606A      0.304212   607A      0.305408   608A      0.307302  
     609A      0.307441   610A      0.307886   611A      0.308150  
     612A      0.308682   613A      0.310604   614A      0.311863  
     615A      0.312434   616A      0.313830   617A      0.315120  
     618A      0.315445   619A      0.316602   620A      0.316865  
     621A      0.317348   622A      0.318547   623A      0.319896  
     624A      0.320444   625A      0.320616   626A      0.321041  
     627A      0.321365   628A      0.322564   629A      0.325099  
     630A      0.325713   631A      0.326431   632A      0.327303  
     633A      0.328022   634A      0.328457   635A      0.329159  
     636A      0.329607   637A      0.331400   638A      0.332445  
     639A      0.333074   640A      0.333619   641A      0.333838  
     642A      0.334764   643A      0.335911   644A      0.339590  
     645A      0.339977   646A      0.340051   647A      0.340313  
     648A      0.340994   649A      0.341690   650A      0.342355  
     651A      0.342935   652A      0.343509   653A      0.345450  
     654A      0.345988   655A      0.346728   656A      0.347459  
     657A      0.348268   658A      0.348505   659A      0.349829  
     660A      0.350064   661A      0.352067   662A      0.352807  
     663A      0.353999   664A      0.354564   665A      0.355215  
     666A      0.356736   667A      0.357871   668A      0.358072  
     669A      0.358948   670A      0.359113   671A      0.361122  
     672A      0.363237   673A      0.363737   674A      0.364507  
     675A      0.364781   676A      0.365620   677A      0.367169  
     678A      0.367469   679A      0.367928   680A      0.368695  
     681A      0.370401   682A      0.371362   683A      0.371754  
     684A      0.372156   685A      0.374028   686A      0.374778  
     687A      0.375755   688A      0.377486   689A      0.378505  
     690A      0.379575   691A      0.381052   692A      0.382356  
     693A      0.383747   694A      0.385481   695A      0.386787  
     696A      0.387480   697A      0.388235   698A      0.388822  
     699A      0.391253   700A      0.391405   701A      0.391742  
     702A      0.392150   703A      0.393047   704A      0.393750  
     705A      0.394083   706A      0.394758   707A      0.396234  
     708A      0.398530   709A      0.399088   710A      0.402862  
     711A      0.403395   712A      0.403486   713A      0.404987  
     714A      0.405683   715A      0.407415   716A      0.407653  
     717A      0.408304   718A      0.409068   719A      0.410132  
     720A      0.410966   721A      0.411399   722A      0.412514  
     723A      0.413334   724A      0.414142   725A      0.414953  
     726A      0.415811   727A      0.416720   728A      0.417292  
     729A      0.418211   730A      0.420256   731A      0.422849  
     732A      0.423800   733A      0.424638   734A      0.425245  
     735A      0.426229   736A      0.428237   737A      0.429562  
     738A      0.430638   739A      0.431502   740A      0.432921  
     741A      0.433239   742A      0.435379   743A      0.436031  
     744A      0.436378   745A      0.437328   746A      0.439339  
     747A      0.440181   748A      0.440792   749A      0.441590  
     750A      0.443122   751A      0.443817   752A      0.445438  
     753A      0.446668   754A      0.448841   755A      0.451326  
     756A      0.453601   757A      0.454125   758A      0.454477  
     759A      0.455185   760A      0.455942   761A      0.457951  
     762A      0.459019   763A      0.459480   764A      0.461723  
     765A      0.461975   766A      0.463031   767A      0.464976  
     768A      0.465521   769A      0.466782   770A      0.469009  
     771A      0.470541   772A      0.472387   773A      0.473345  
     774A      0.475296   775A      0.475922   776A      0.476295  
     777A      0.477598   778A      0.481098   779A      0.482669  
     780A      0.484280   781A      0.487973   782A      0.489994  
     783A      0.491909   784A      0.494701   785A      0.496824  
     786A      0.497220   787A      0.497828   788A      0.498766  
     789A      0.499597   790A      0.500243   791A      0.501606  
     792A      0.501824   793A      0.503081   794A      0.506184  
     795A      0.508903   796A      0.509363   797A      0.510199  
     798A      0.511903   799A      0.512902   800A      0.513448  
     801A      0.515494   802A      0.515935   803A      0.518637  
     804A      0.519567   805A      0.520858   806A      0.521836  
     807A      0.523999   808A      0.525354   809A      0.526327  
     810A      0.527592   811A      0.530834   812A      0.531831  
     813A      0.532118   814A      0.533089   815A      0.537664  
     816A      0.538492   817A      0.540277   818A      0.541155  
     819A      0.542460   820A      0.543285   821A      0.545254  
     822A      0.547899   823A      0.550258   824A      0.553637  
     825A      0.555593   826A      0.557586   827A      0.558314  
     828A      0.559904   829A      0.565907   830A      0.566872  
     831A      0.570653   832A      0.571186   833A      0.573241  
     834A      0.577556   835A      0.579377   836A      0.583172  
     837A      0.585507   838A      0.586947   839A      0.588885  
     840A      0.590779   841A      0.593108   842A      0.593394  
     843A      0.594871   844A      0.597131   845A      0.600025  
     846A      0.600663   847A      0.604652   848A      0.605866  
     849A      0.609430   850A      0.613542   851A      0.618735  
     852A      0.620784   853A      0.624341   854A      0.624664  
     855A      0.625129   856A      0.626615   857A      0.628991  
     858A      0.630711   859A      0.632164   860A      0.632800  
     861A      0.636101   862A      0.638741   863A      0.640038  
     864A      0.645112   865A      0.646323   866A      0.658986  
     867A      0.666122   868A      0.670038   869A      0.672025  
     870A      0.673564   871A      0.674038   872A      0.674292  
     873A      0.677757   874A      0.678666   875A      0.679549  
     876A      0.684437   877A      0.687404   878A      0.701994  
     879A      0.705111   880A      0.711528   881A      0.713306  
     882A      0.720339   883A      0.722055   884A      0.723926  
     885A      0.724679   886A      0.726330   887A      0.727658  
     888A      0.729946   889A      0.734643   890A      0.736562  
     891A      0.738188   892A      0.741732   893A      0.743411  
     894A      0.744301   895A      0.746894   896A      0.751926  
     897A      0.752553   898A      0.755146   899A      0.756575  
     900A      0.756983   901A      0.758450   902A      0.759543  
     903A      0.761181   904A      0.762628   905A      0.764893  
     906A      0.765517   907A      0.767428   908A      0.768536  
     909A      0.770765   910A      0.773140   911A      0.773903  
     912A      0.776809   913A      0.779231   914A      0.782586  
     915A      0.783004   916A      0.784555   917A      0.786944  
     918A      0.788882   919A      0.792186   920A      0.792628  
     921A      0.794049   922A      0.795182   923A      0.796207  
     924A      0.800886   925A      0.801836   926A      0.802842  
     927A      0.805018   928A      0.805813   929A      0.808839  
     930A      0.810288   931A      0.812054   932A      0.813135  
     933A      0.814169   934A      0.815472   935A      0.815706  
     936A      0.818153   937A      0.822108   938A      0.823598  
     939A      0.824748   940A      0.825198   941A      0.825960  
     942A      0.826542   943A      0.829161   944A      0.830670  
     945A      0.834626   946A      0.836229   947A      0.837318  
     948A      0.841503   949A      0.842533   950A      0.843445  
     951A      0.845016   952A      0.845067   953A      0.847534  
     954A      0.849453   955A      0.852311   956A      0.853469  
     957A      0.854394   958A      0.855788   959A      0.855996  
     960A      0.857158   961A      0.858810   962A      0.860952  
     963A      0.861572   964A      0.862335   965A      0.863407  
     966A      0.865261   967A      0.867140   968A      0.867916  
     969A      0.868888   970A      0.870057   971A      0.871545  
     972A      0.873942   973A      0.875251   974A      0.876198  
     975A      0.877389   976A      0.879659   977A      0.880539  
     978A      0.882879   979A      0.883332   980A      0.883762  
     981A      0.887521   982A      0.888646   983A      0.889285  
     984A      0.889558   985A      0.890341   986A      0.893215  
     987A      0.894627   988A      0.895636   989A      0.896694  
     990A      0.899138   991A      0.899241   992A      0.901508  
     993A      0.903087   994A      0.904266   995A      0.906237  
     996A      0.908389   997A      0.909422   998A      0.911181  
     999A      0.916192  1000A      0.918164  1001A      0.921228  
    1002A      0.923832  1003A      0.925325  1004A      0.926356  
    1005A      0.926572  1006A      0.927281  1007A      0.929302  
    1008A      0.931312  1009A      0.932839  1010A      0.937171  
    1011A      0.937687  1012A      0.939316  1013A      0.940145  
    1014A      0.942215  1015A      0.942785  1016A      0.944382  
    1017A      0.946404  1018A      0.948281  1019A      0.949883  
    1020A      0.951949  1021A      0.953363  1022A      0.955153  
    1023A      0.957412  1024A      0.958211  1025A      0.958965  
    1026A      0.960649  1027A      0.962808  1028A      0.964655  
    1029A      0.965999  1030A      0.967643  1031A      0.969588  
    1032A      0.971293  1033A      0.972329  1034A      0.972988  
    1035A      0.974232  1036A      0.974816  1037A      0.976647  
    1038A      0.977543  1039A      0.981208  1040A      0.981878  
    1041A      0.983371  1042A      0.985151  1043A      0.985500  
    1044A      0.986717  1045A      0.987551  1046A      0.988815  
    1047A      0.989470  1048A      0.990569  1049A      0.992097  
    1050A      0.994808  1051A      0.994926  1052A      0.995281  
    1053A      0.995795  1054A      0.997638  1055A      0.998724  
    1056A      1.000381  1057A      1.001376  1058A      1.002955  
    1059A      1.003284  1060A      1.003734  1061A      1.006117  
    1062A      1.006317  1063A      1.007000  1064A      1.007671  
    1065A      1.008705  1066A      1.010182  1067A      1.010320  
    1068A      1.010906  1069A      1.011723  1070A      1.011911  
    1071A      1.013579  1072A      1.014191  1073A      1.014860  
    1074A      1.016827  1075A      1.017372  1076A      1.017723  
    1077A      1.018411  1078A      1.019767  1079A      1.020190  
    1080A      1.021487  1081A      1.022628  1082A      1.022863  
    1083A      1.024691  1084A      1.025439  1085A      1.025809  
    1086A      1.027291  1087A      1.028791  1088A      1.028973  
    1089A      1.030195  1090A      1.032724  1091A      1.033448  
    1092A      1.034316  1093A      1.034768  1094A      1.035843  
    1095A      1.037468  1096A      1.039205  1097A      1.040267  
    1098A      1.042492  1099A      1.043812  1100A      1.045424  
    1101A      1.046924  1102A      1.047406  1103A      1.050865  
    1104A      1.051859  1105A      1.053581  1106A      1.054999  
    1107A      1.055597  1108A      1.058820  1109A      1.059562  
    1110A      1.060709  1111A      1.061152  1112A      1.063065  
    1113A      1.066194  1114A      1.067467  1115A      1.069087  
    1116A      1.070132  1117A      1.070419  1118A      1.071830  
    1119A      1.074002  1120A      1.074554  1121A      1.077908  
    1122A      1.079670  1123A      1.080531  1124A      1.081972  
    1125A      1.084554  1126A      1.086188  1127A      1.088333  
    1128A      1.089169  1129A      1.090051  1130A      1.090787  
    1131A      1.092203  1132A      1.095138  1133A      1.095832  
    1134A      1.098286  1135A      1.099126  1136A      1.100689  
    1137A      1.104751  1138A      1.105724  1139A      1.109006  
    1140A      1.110252  1141A      1.113314  1142A      1.114631  
    1143A      1.115977  1144A      1.118090  1145A      1.119814  
    1146A      1.121419  1147A      1.125296  1148A      1.126803  
    1149A      1.129094  1150A      1.131756  1151A      1.132404  
    1152A      1.133022  1153A      1.135770  1154A      1.136853  
    1155A      1.138574  1156A      1.141391  1157A      1.144313  
    1158A      1.146422  1159A      1.147341  1160A      1.148783  
    1161A      1.151810  1162A      1.153565  1163A      1.157248  
    1164A      1.158710  1165A      1.159654  1166A      1.160162  
    1167A      1.164993  1168A      1.166939  1169A      1.168604  
    1170A      1.169836  1171A      1.173856  1172A      1.176211  
    1173A      1.177554  1174A      1.180318  1175A      1.182091  
    1176A      1.186184  1177A      1.186890  1178A      1.190712  
    1179A      1.193398  1180A      1.195983  1181A      1.196935  
    1182A      1.196970  1183A      1.200009  1184A      1.204279  
    1185A      1.205667  1186A      1.207538  1187A      1.209800  
    1188A      1.210200  1189A      1.215425  1190A      1.218919  
    1191A      1.222664  1192A      1.223862  1193A      1.224250  
    1194A      1.225336  1195A      1.228221  1196A      1.228375  
    1197A      1.229889  1198A      1.230530  1199A      1.233681  
    1200A      1.235632  1201A      1.238449  1202A      1.238788  
    1203A      1.240062  1204A      1.245538  1205A      1.247957  
    1206A      1.248023  1207A      1.249063  1208A      1.251174  
    1209A      1.253129  1210A      1.253806  1211A      1.253875  
    1212A      1.257144  1213A      1.257208  1214A      1.258475  
    1215A      1.258853  1216A      1.262304  1217A      1.262967  
    1218A      1.264355  1219A      1.264988  1220A      1.267630  
    1221A      1.268317  1222A      1.270336  1223A      1.272462  
    1224A      1.273348  1225A      1.274268  1226A      1.276167  
    1227A      1.279173  1228A      1.281701  1229A      1.286660  
    1230A      1.286818  1231A      1.295147  1232A      1.296087  
    1233A      1.297502  1234A      1.299377  1235A      1.301046  
    1236A      1.301286  1237A      1.305220  1238A      1.306528  
    1239A      1.307001  1240A      1.309366  1241A      1.309772  
    1242A      1.313743  1243A      1.315065  1244A      1.319436  
    1245A      1.321306  1246A      1.325033  1247A      1.325660  
    1248A      1.330819  1249A      1.331563  1250A      1.333447  
    1251A      1.335214  1252A      1.341180  1253A      1.342673  
    1254A      1.343726  1255A      1.346975  1256A      1.348440  
    1257A      1.349638  1258A      1.351038  1259A      1.351756  
    1260A      1.351851  1261A      1.356711  1262A      1.361850  
    1263A      1.363245  1264A      1.364302  1265A      1.364922  
    1266A      1.366251  1267A      1.368921  1268A      1.370410  
    1269A      1.371220  1270A      1.372128  1271A      1.375246  
    1272A      1.376677  1273A      1.378138  1274A      1.378884  
    1275A      1.380834  1276A      1.381728  1277A      1.382769  
    1278A      1.383987  1279A      1.387949  1280A      1.388141  
    1281A      1.391642  1282A      1.392973  1283A      1.395355  
    1284A      1.398080  1285A      1.405248  1286A      1.406890  
    1287A      1.410282  1288A      1.413088  1289A      1.414740  
    1290A      1.415602  1291A      1.417792  1292A      1.417912  
    1293A      1.423049  1294A      1.424620  1295A      1.425420  
    1296A      1.427359  1297A      1.428700  1298A      1.434471  
    1299A      1.438569  1300A      1.439068  1301A      1.442039  
    1302A      1.448010  1303A      1.451334  1304A      1.453054  
    1305A      1.455206  1306A      1.466851  1307A      1.472494  
    1308A      1.475035  1309A      1.477010  1310A      1.480698  
    1311A      1.481841  1312A      1.484246  1313A      1.499802  
    1314A      1.512361  1315A      1.515023  1316A      1.519080  
    1317A      1.523032  1318A      1.525208  1319A      1.530919  
    1320A      1.531629  1321A      1.534176  1322A      1.536298  
    1323A      1.538129  1324A      1.540743  1325A      1.541862  
    1326A      1.542367  1327A      1.544627  1328A      1.546179  
    1329A      1.546915  1330A      1.547222  1331A      1.548263  
    1332A      1.548822  1333A      1.551668  1334A      1.553845  
    1335A      1.556476  1336A      1.556786  1337A      1.557697  
    1338A      1.558266  1339A      1.558567  1340A      1.561451  
    1341A      1.564482  1342A      1.564952  1343A      1.566035  
    1344A      1.566256  1345A      1.569721  1346A      1.570399  
    1347A      1.571115  1348A      1.572874  1349A      1.573815  
    1350A      1.577047  1351A      1.577127  1352A      1.580903  
    1353A      1.581003  1354A      1.581627  1355A      1.585338  
    1356A      1.586786  1357A      1.588769  1358A      1.589288  
    1359A      1.590996  1360A      1.592315  1361A      1.594699  
    1362A      1.596179  1363A      1.597402  1364A      1.598610  
    1365A      1.600091  1366A      1.600594  1367A      1.601860  
    1368A      1.603036  1369A      1.605824  1370A      1.608321  
    1371A      1.608922  1372A      1.610209  1373A      1.612779  
    1374A      1.620813  1375A      1.621637  1376A      1.621841  
    1377A      1.624094  1378A      1.626126  1379A      1.629046  
    1380A      1.630615  1381A      1.633615  1382A      1.634447  
    1383A      1.638002  1384A      1.641922  1385A      1.642824  
    1386A      1.644872  1387A      1.646818  1388A      1.647524  
    1389A      1.647789  1390A      1.650383  1391A      1.651811  
    1392A      1.653852  1393A      1.656405  1394A      1.657475  
    1395A      1.659357  1396A      1.661967  1397A      1.666463  
    1398A      1.667919  1399A      1.673558  1400A      1.677477  
    1401A      1.679663  1402A      1.679984  1403A      1.684468  
    1404A      1.689149  1405A      1.690768  1406A      1.696295  
    1407A      1.701761  1408A      1.704195  1409A      1.707974  
    1410A      1.711317  1411A      1.713670  1412A      1.722260  
    1413A      1.722891  1414A      1.723555  1415A      1.726366  
    1416A      1.728745  1417A      1.733524  1418A      1.737639  
    1419A      1.741559  1420A      1.745598  1421A      1.755327  
    1422A      1.757579  1423A      1.761729  1424A      1.762909  
    1425A      1.764091  1426A      1.764906  1427A      1.766922  
    1428A      1.768497  1429A      1.769541  1430A      1.771199  
    1431A      1.772011  1432A      1.775116  1433A      1.779130  
    1434A      1.781804  1435A      1.787349  1436A      1.789156  
    1437A      1.792177  1438A      1.792908  1439A      1.793138  
    1440A      1.793885  1441A      1.796267  1442A      1.800864  
    1443A      1.801244  1444A      1.804520  1445A      1.805174  
    1446A      1.806518  1447A      1.807754  1448A      1.809208  
    1449A      1.811694  1450A      1.812146  1451A      1.814072  
    1452A      1.816495  1453A      1.818339  1454A      1.819397  
    1455A      1.820594  1456A      1.820815  1457A      1.821380  
    1458A      1.822634  1459A      1.823018  1460A      1.827544  
    1461A      1.831755  1462A      1.835232  1463A      1.840236  
    1464A      1.842070  1465A      1.842556  1466A      1.844510  
    1467A      1.845728  1468A      1.845942  1469A      1.850013  
    1470A      1.852766  1471A      1.853313  1472A      1.854633  
    1473A      1.855855  1474A      1.857602  1475A      1.858367  
    1476A      1.862747  1477A      1.866519  1478A      1.867985  
    1479A      1.870008  1480A      1.872440  1481A      1.873297  
    1482A      1.874250  1483A      1.875709  1484A      1.877324  
    1485A      1.878445  1486A      1.879338  1487A      1.880919  
    1488A      1.884390  1489A      1.886879  1490A      1.888404  
    1491A      1.890646  1492A      1.891816  1493A      1.893681  
    1494A      1.894590  1495A      1.895768  1496A      1.896276  
    1497A      1.897699  1498A      1.900226  1499A      1.902793  
    1500A      1.904415  1501A      1.906171  1502A      1.907777  
    1503A      1.909444  1504A      1.912937  1505A      1.914477  
    1506A      1.916945  1507A      1.918697  1508A      1.920765  
    1509A      1.921838  1510A      1.924587  1511A      1.925066  
    1512A      1.928040  1513A      1.929883  1514A      1.934981  
    1515A      1.935877  1516A      1.940584  1517A      1.942009  
    1518A      1.943747  1519A      1.945889  1520A      1.946622  
    1521A      1.949834  1522A      1.951274  1523A      1.952459  
    1524A      1.953046  1525A      1.953575  1526A      1.954388  
    1527A      1.955837  1528A      1.958948  1529A      1.960159  
    1530A      1.961309  1531A      1.962953  1532A      1.964890  
    1533A      1.967969  1534A      1.970497  1535A      1.972220  
    1536A      1.975045  1537A      1.976202  1538A      1.976536  
    1539A      1.978474  1540A      1.980162  1541A      1.981885  
    1542A      1.984839  1543A      1.987906  1544A      1.988133  
    1545A      1.990563  1546A      1.991944  1547A      1.994332  
    1548A      1.996650  1549A      1.998012  1550A      2.000431  
    1551A      2.000743  1552A      2.001504  1553A      2.003334  
    1554A      2.004949  1555A      2.007710  1556A      2.012557  
    1557A      2.013996  1558A      2.014138  1559A      2.014796  
    1560A      2.015570  1561A      2.016867  1562A      2.018631  
    1563A      2.019715  1564A      2.021073  1565A      2.021167  
    1566A      2.021975  1567A      2.022132  1568A      2.025152  
    1569A      2.025522  1570A      2.026763  1571A      2.027509  
    1572A      2.028002  1573A      2.029152  1574A      2.031108  
    1575A      2.032020  1576A      2.032374  1577A      2.033042  
    1578A      2.035208  1579A      2.036880  1580A      2.039072  
    1581A      2.041235  1582A      2.043493  1583A      2.045033  
    1584A      2.046563  1585A      2.047991  1586A      2.049415  
    1587A      2.050145  1588A      2.052871  1589A      2.054056  
    1590A      2.055014  1591A      2.055325  1592A      2.057561  
    1593A      2.059727  1594A      2.060420  1595A      2.061756  
    1596A      2.062881  1597A      2.063846  1598A      2.064240  
    1599A      2.065457  1600A      2.066508  1601A      2.067041  
    1602A      2.072330  1603A      2.073249  1604A      2.074425  
    1605A      2.076283  1606A      2.079574  1607A      2.079987  
    1608A      2.080380  1609A      2.086348  1610A      2.087966  
    1611A      2.090238  1612A      2.091910  1613A      2.093395  
    1614A      2.094271  1615A      2.095079  1616A      2.097709  
    1617A      2.098865  1618A      2.099745  1619A      2.103448  
    1620A      2.108803  1621A      2.111138  1622A      2.112968  
    1623A      2.114870  1624A      2.115339  1625A      2.115448  
    1626A      2.118547  1627A      2.120382  1628A      2.120928  
    1629A      2.124345  1630A      2.125452  1631A      2.127524  
    1632A      2.128361  1633A      2.129469  1634A      2.131797  
    1635A      2.132567  1636A      2.134482  1637A      2.135796  
    1638A      2.137526  1639A      2.139960  1640A      2.143409  
    1641A      2.147644  1642A      2.147960  1643A      2.148817  
    1644A      2.152666  1645A      2.155768  1646A      2.157437  
    1647A      2.157655  1648A      2.158827  1649A      2.159560  
    1650A      2.160720  1651A      2.163216  1652A      2.165337  
    1653A      2.166008  1654A      2.166948  1655A      2.168930  
    1656A      2.169719  1657A      2.171178  1658A      2.171818  
    1659A      2.174038  1660A      2.175637  1661A      2.179214  
    1662A      2.183858  1663A      2.186814  1664A      2.188812  
    1665A      2.189864  1666A      2.195731  1667A      2.201443  
    1668A      2.203376  1669A      2.205573  1670A      2.206886  
    1671A      2.209831  1672A      2.211039  1673A      2.215054  
    1674A      2.216699  1675A      2.219380  1676A      2.221022  
    1677A      2.227065  1678A      2.228004  1679A      2.228673  
    1680A      2.230055  1681A      2.235190  1682A      2.240894  
    1683A      2.241512  1684A      2.250075  1685A      2.252476  
    1686A      2.256119  1687A      2.258931  1688A      2.260078  
    1689A      2.261945  1690A      2.264309  1691A      2.264539  
    1692A      2.265214  1693A      2.266307  1694A      2.268232  
    1695A      2.269812  1696A      2.271857  1697A      2.273943  
    1698A      2.274768  1699A      2.275309  1700A      2.276578  
    1701A      2.277413  1702A      2.280572  1703A      2.280876  
    1704A      2.285075  1705A      2.287408  1706A      2.293537  
    1707A      2.296533  1708A      2.305550  1709A      2.314921  
    1710A      2.316787  1711A      2.318100  1712A      2.321044  
    1713A      2.324618  1714A      2.328447  1715A      2.334481  
    1716A      2.337259  1717A      2.344863  1718A      2.351748  
    1719A      2.352573  1720A      2.356940  1721A      2.359299  
    1722A      2.360816  1723A      2.364522  1724A      2.374135  
    1725A      2.379857  1726A      2.383351  1727A      2.392371  
    1728A      2.394439  1729A      2.398401  1730A      2.399841  
    1731A      2.402271  1732A      2.403040  1733A      2.405647  
    1734A      2.405964  1735A      2.414434  1736A      2.426467  
    1737A      2.428612  1738A      2.437296  1739A      2.437737  
    1740A      2.441161  1741A      2.443474  1742A      2.448780  
    1743A      2.451184  1744A      2.455675  1745A      2.468736  
    1746A      2.471051  1747A      2.472646  1748A      2.474539  
    1749A      2.477221  1750A      2.478376  1751A      2.480901  
    1752A      2.483113  1753A      2.484749  1754A      2.485182  
    1755A      2.486388  1756A      2.488540  1757A      2.492474  
    1758A      2.497457  1759A      2.505673  1760A      2.508297  
    1761A      2.519082  1762A      2.519881  1763A      2.522288  
    1764A      2.523274  1765A      2.523778  1766A      2.525821  
    1767A      2.526379  1768A      2.526745  1769A      2.533230  
    1770A      2.536580  1771A      2.537145  1772A      2.545550  
    1773A      2.547930  1774A      2.548920  1775A      2.550008  
    1776A      2.550189  1777A      2.554532  1778A      2.563466  
    1779A      2.570510  1780A      2.574500  1781A      2.576109  
    1782A      2.578860  1783A      2.579244  1784A      2.580562  
    1785A      2.583130  1786A      2.584755  1787A      2.586355  
    1788A      2.589565  1789A      2.593143  1790A      2.593458  
    1791A      2.594499  1792A      2.597785  1793A      2.602452  
    1794A      2.607935  1795A      2.608721  1796A      2.611451  
    1797A      2.615117  1798A      2.617292  1799A      2.621628  
    1800A      2.622364  1801A      2.623020  1802A      2.624688  
    1803A      2.625731  1804A      2.625829  1805A      2.627929  
    1806A      2.628185  1807A      2.631719  1808A      2.633054  
    1809A      2.643039  1810A      2.657841  1811A      2.661040  
    1812A      2.662532  1813A      2.664995  1814A      2.666764  
    1815A      2.668027  1816A      2.670324  1817A      2.689809  
    1818A      2.691483  1819A      2.695693  1820A      2.705034  
    1821A      2.708424  1822A      2.710848  1823A      2.715741  
    1824A      2.724520  1825A      2.729586  1826A      2.730554  
    1827A      2.732266  1828A      2.733246  1829A      2.734248  
    1830A      2.741218  1831A      2.742794  1832A      2.743604  
    1833A      2.745644  1834A      2.749933  1835A      2.750919  
    1836A      2.758464  1837A      2.761572  1838A      2.764719  
    1839A      2.771267  1840A      2.774855  1841A      2.775879  
    1842A      2.776416  1843A      2.780320  1844A      2.787766  
    1845A      2.794877  1846A      2.796568  1847A      2.798301  
    1848A      2.798921  1849A      2.804729  1850A      2.807495  
    1851A      2.811385  1852A      2.822099  1853A      2.822885  
    1854A      2.825424  1855A      2.828772  1856A      2.841014  
    1857A      2.854011  1858A      2.855514  1859A      2.858040  
    1860A      2.866878  1861A      2.867888  1862A      2.868822  
    1863A      2.871094  1864A      2.894419  1865A      2.903574  
    1866A      2.905083  1867A      2.912056  1868A      2.924028  
    1869A      2.929813  1870A      2.934697  1871A      2.952143  
    1872A      2.961014  1873A      2.965785  1874A      2.978735  
    1875A      2.980366  1876A      2.981515  1877A      2.983308  
    1878A      2.989836  1879A      2.990452  1880A      2.990642  
    1881A      2.996669  1882A      3.007052  1883A      3.007935  
    1884A      3.044768  1885A      3.046687  1886A      3.051724  
    1887A      3.054611  1888A      3.059736  1889A      3.063716  
    1890A      3.064317  1891A      3.071579  1892A      3.074825  
    1893A      3.078478  1894A      3.079782  1895A      3.081836  
    1896A      3.088594  1897A      3.090297  1898A      3.091093  
    1899A      3.091774  1900A      3.097456  1901A      3.098965  
    1902A      3.104637  1903A      3.112198  1904A      3.113932  
    1905A      3.115968  1906A      3.129329  1907A      3.131264  
    1908A      3.131934  1909A      3.155536  1910A      3.157782  
    1911A      3.193350  1912A      3.195164  1913A      3.196444  
    1914A      3.200482  1915A      3.201070  1916A      3.205927  
    1917A      3.207937  1918A      3.211083  1919A      3.211379  
    1920A      3.214789  1921A      3.230464  1922A      3.238225  
    1923A      3.244777  1924A      3.254296  1925A      3.293233  
    1926A      3.295943  1927A      3.326496  1928A      3.349933  
    1929A      3.354907  1930A      3.383063  1931A      3.386607  
    1932A      3.390509  1933A      3.393123  1934A      3.399164  
    1935A      3.402253  1936A      3.407332  1937A      3.411940  
    1938A      3.418519  1939A      3.420543  1940A      3.438292  
    1941A      3.447815  1942A      3.452596  1943A      3.490657  
    1944A      3.512164  1945A      3.516093  1946A      3.521928  
    1947A      3.523638  1948A      3.567986  1949A      3.580302  
    1950A      3.592919  1951A      3.609666  1952A      3.614537  
    1953A      3.617084  1954A      3.640330  1955A      3.686005  
    1956A      3.694803  1957A      3.700252  1958A      3.711280  
    1959A      3.713296  1960A      3.725896  1961A      3.781440  
    1962A      3.783595  1963A      3.808971  1964A      3.812309  
    1965A      3.852023  1966A      3.861650  1967A      3.877919  
    1968A      3.881562  1969A      3.884426  1970A      3.903173  
    1971A      3.906011  1972A      3.914003  1973A      3.918859  
    1974A      3.952962  1975A      3.955135  1976A      4.019189  
    1977A      4.264018  1978A      4.360757  1979A      4.390037  

    Final Occupation by Irrep:
              A 
    DOCC [   326 ]
    NA   [   326 ]
    NB   [   326 ]

  @DF-RHF Final Energy: -3953.65335138598221

   => Energetics <=

    Nuclear Repulsion Energy =          18323.4976262141135521
    One-Electron Energy =              -41850.8904079249477945
    Two-Electron Energy =               19573.7394303248511278
    Total Energy =                      -3953.6533513859831146

Computation Completed


Properties will be evaluated at   0.000000,   0.000000,   0.000000 [a0]

Properties computed using the SCF density matrix


 Multipole Moments:

 ------------------------------------------------------------------------------------
     Multipole            Electronic (a.u.)      Nuclear  (a.u.)        Total (a.u.)
 ------------------------------------------------------------------------------------

 L = 1.  Multiply by 2.5417464519 to convert [e a0] to [Debye]
 Dipole X            :         -0.0014796            0.0004804           -0.0009992
 Dipole Y            :         -0.0511794            0.0561130            0.0049336
 Dipole Z            :         17.8038337          -22.4066341           -4.6028004
 Magnitude           :                                                    4.6028032

 ------------------------------------------------------------------------------------

*** tstop() called on n2cn0487.ab2021.local at Sat Jan 27 01:05:13 2024
Module time:
	user time   =   28041.43 seconds =     467.36 minutes
	system time =    2099.18 seconds =      34.99 minutes
	total time  =       5019 seconds =      83.65 minutes
Total time:
	user time   =   28041.43 seconds =     467.36 minutes
	system time =    2099.18 seconds =      34.99 minutes
	total time  =       5019 seconds =      83.65 minutes

  //>>>>>>>>>>>>>>>>>>>>>>>>>>>>>>>>>>>//
  //            Monomer A HF           //
  //<<<<<<<<<<<<<<<<<<<<<<<<<<<<<<<<<<<//

   => Libint2 <=

    Primary   basis highest AM E, G, H:  5, 4, 3
    Auxiliary basis highest AM E, G, H:  6, 5, 4
    Onebody   basis highest AM E, G, H:  6, 5, 4
    Solid Harmonics ordering:            gaussian

*** tstart() called on n2cn0487.ab2021.local
*** at Sat Jan 27 01:05:13 2024

   => Loading Basis Set <=

    Name: JUN-CC-PVDZ
    Role: ORBITAL
    Keyword: BASIS
    atoms 1-2, 4-5, 10, 17-34, 41-53, 56-70, 73-89, 92-104, 109-119, 122-130 entry C          line   164 file /opt/software/pc2/EB-SW/software/PSI4/1.9-foss-2022a/share/psi4/basis/jun-cc-pvdz.gbs 
    atoms 3, 6                                                               entry N          line   198 file /opt/software/pc2/EB-SW/software/PSI4/1.9-foss-2022a/share/psi4/basis/jun-cc-pvdz.gbs 
    atoms 7-9, 11-16, 35-40, 54-55, 71-72, 90-91, 105-108, 120-121, 131-136  entry H          line    36 file /opt/software/pc2/EB-SW/software/PSI4/1.9-foss-2022a/share/psi4/basis/jun-cc-pvdz.gbs 


         ---------------------------------------------------------
                                   SCF
               by Justin Turney, Rob Parrish, Andy Simmonett
                          and Daniel G. A. Smith
                              RHF Reference
                       16 Threads,  61035 MiB Core
         ---------------------------------------------------------

  ==> Geometry <==

    Molecular point group: c1
    Full point group: C1

    Geometry (in Angstrom), charge = 1, multiplicity = 1:

       Center              X                  Y                   Z               Mass       
    ------------   -----------------  -----------------  -----------------  -----------------
         C            0.680062820275    -0.008027535675    -4.910965675448    12.000000000000
         C           -0.680508179725    -0.005999535675    -4.910581675448    12.000000000000
         N           -1.085639179725    -0.005001535675    -3.592257675448    14.003074004430
[...]
    1591A      2.210331  1592A      2.211210  1593A      2.212404  
    1594A      2.215839  1595A      2.216859  1596A      2.218650  
    1597A      2.222324  1598A      2.222780  1599A      2.223354  
    1600A      2.227409  1601A      2.227955  1602A      2.229893  
    1603A      2.232013  1604A      2.232953  1605A      2.233874  
    1606A      2.236200  1607A      2.239324  1608A      2.239386  
    1609A      2.241849  1610A      2.242416  1611A      2.246083  
    1612A      2.246897  1613A      2.248610  1614A      2.251257  
    1615A      2.253232  1616A      2.255343  1617A      2.260544  
    1618A      2.264511  1619A      2.267083  1620A      2.267800  
    1621A      2.273660  1622A      2.278127  1623A      2.278933  
    1624A      2.281441  1625A      2.283456  1626A      2.285017  
    1627A      2.288368  1628A      2.289409  1629A      2.291673  
    1630A      2.294864  1631A      2.296933  1632A      2.297501  
    1633A      2.299370  1634A      2.303200  1635A      2.306574  
    1636A      2.310007  1637A      2.314191  1638A      2.320582  
    1639A      2.325423  1640A      2.325767  1641A      2.328521  
    1642A      2.329616  1643A      2.330748  1644A      2.331958  
    1645A      2.332829  1646A      2.333851  1647A      2.335001  
    1648A      2.337884  1649A      2.340879  1650A      2.342070  
    1651A      2.343131  1652A      2.343268  1653A      2.345359  
    1654A      2.346615  1655A      2.346848  1656A      2.351834  
    1657A      2.352058  1658A      2.353174  1659A      2.361822  
    1660A      2.365937  1661A      2.376214  1662A      2.380726  
    1663A      2.384711  1664A      2.388003  1665A      2.391577  
    1666A      2.396963  1667A      2.401161  1668A      2.404963  
    1669A      2.412340  1670A      2.413433  1671A      2.418771  
    1672A      2.419528  1673A      2.423964  1674A      2.427436  
    1675A      2.428125  1676A      2.436667  1677A      2.442008  
    1678A      2.448751  1679A      2.452121  1680A      2.453312  
    1681A      2.454143  1682A      2.457536  1683A      2.464667  
    1684A      2.464897  1685A      2.468118  1686A      2.469905  
    1687A      2.472193  1688A      2.472633  1689A      2.472887  
    1690A      2.486244  1691A      2.491598  1692A      2.494055  
    1693A      2.499186  1694A      2.503504  1695A      2.506859  
    1696A      2.507756  1697A      2.509385  1698A      2.515764  
    1699A      2.521959  1700A      2.530224  1701A      2.535379  
    1702A      2.539655  1703A      2.540341  1704A      2.541421  
    1705A      2.542512  1706A      2.545330  1707A      2.549094  
    1708A      2.550733  1709A      2.553243  1710A      2.555459  
    1711A      2.557157  1712A      2.557436  1713A      2.564892  
    1714A      2.565328  1715A      2.571473  1716A      2.572161  
    1717A      2.577254  1718A      2.581982  1719A      2.584786  
    1720A      2.586271  1721A      2.586619  1722A      2.586942  
    1723A      2.589258  1724A      2.591652  1725A      2.593434  
    1726A      2.594953  1727A      2.597596  1728A      2.599960  
    1729A      2.605560  1730A      2.612587  1731A      2.615212  
    1732A      2.615547  1733A      2.616089  1734A      2.621047  
    1735A      2.622024  1736A      2.623959  1737A      2.631561  
    1738A      2.635251  1739A      2.641569  1740A      2.642784  
    1741A      2.646199  1742A      2.647823  1743A      2.648270  
    1744A      2.651522  1745A      2.651804  1746A      2.652414  
    1747A      2.658028  1748A      2.658387  1749A      2.662876  
    1750A      2.666335  1751A      2.667201  1752A      2.672356  
    1753A      2.673429  1754A      2.676581  1755A      2.679065  
    1756A      2.680504  1757A      2.681149  1758A      2.688108  
    1759A      2.688627  1760A      2.691399  1761A      2.691914  
    1762A      2.693784  1763A      2.694514  1764A      2.695106  
    1765A      2.697358  1766A      2.697828  1767A      2.703370  
    1768A      2.710622  1769A      2.722704  1770A      2.724935  
    1771A      2.725581  1772A      2.728133  1773A      2.731596  
    1774A      2.732660  1775A      2.734656  1776A      2.745890  
    1777A      2.749034  1778A      2.756478  1779A      2.759883  
    1780A      2.771688  1781A      2.774193  1782A      2.780761  
    1783A      2.783068  1784A      2.786568  1785A      2.789216  
    1786A      2.798934  1787A      2.800552  1788A      2.801665  
    1789A      2.802866  1790A      2.803254  1791A      2.805976  
    1792A      2.809062  1793A      2.814448  1794A      2.816613  
    1795A      2.817798  1796A      2.820370  1797A      2.821391  
    1798A      2.824289  1799A      2.830800  1800A      2.833382  
    1801A      2.835910  1802A      2.836952  1803A      2.844392  
    1804A      2.846222  1805A      2.848638  1806A      2.853159  
    1807A      2.862574  1808A      2.866897  1809A      2.869811  
    1810A      2.873754  1811A      2.876802  1812A      2.879543  
    1813A      2.896293  1814A      2.897160  1815A      2.918791  
    1816A      2.919047  1817A      2.924687  1818A      2.926741  
    1819A      2.931127  1820A      2.936269  1821A      2.936642  
    1822A      2.950712  1823A      2.957524  1824A      2.962860  
    1825A      2.965448  1826A      2.973900  1827A      2.977567  
    1828A      2.982149  1829A      2.991859  1830A      2.995832  
    1831A      2.997362  1832A      3.007486  1833A      3.025721  
    1834A      3.031454  1835A      3.033924  1836A      3.043555  
    1837A      3.045994  1838A      3.049209  1839A      3.050060  
    1840A      3.056488  1841A      3.058659  1842A      3.059123  
    1843A      3.063131  1844A      3.068896  1845A      3.071597  
    1846A      3.075867  1847A      3.108891  1848A      3.111117  
    1849A      3.113537  1850A      3.117092  1851A      3.120804  
    1852A      3.125264  1853A      3.131098  1854A      3.132064  
    1855A      3.138272  1856A      3.142271  1857A      3.144718  
    1858A      3.144764  1859A      3.149994  1860A      3.154592  
    1861A      3.155327  1862A      3.158827  1863A      3.160584  
    1864A      3.163028  1865A      3.164343  1866A      3.169397  
    1867A      3.175995  1868A      3.179409  1869A      3.180006  
    1870A      3.189991  1871A      3.195892  1872A      3.198924  
    1873A      3.220741  1874A      3.223156  1875A      3.260464  
    1876A      3.264241  1877A      3.264993  1878A      3.267909  
    1879A      3.269308  1880A      3.270837  1881A      3.275584  
    1882A      3.277170  1883A      3.277496  1884A      3.282038  
    1885A      3.300194  1886A      3.305807  1887A      3.308598  
    1888A      3.313933  1889A      3.321946  1890A      3.364246  
    1891A      3.366089  1892A      3.369549  1893A      3.397398  
    1894A      3.416812  1895A      3.431541  1896A      3.439527  
    1897A      3.455444  1898A      3.460359  1899A      3.465147  
    1900A      3.466542  1901A      3.472250  1902A      3.477880  
    1903A      3.479244  1904A      3.483503  1905A      3.489496  
    1906A      3.493961  1907A      3.509243  1908A      3.520831  
    1909A      3.530471  1910A      3.542720  1911A      3.558806  
    1912A      3.567570  1913A      3.583719  1914A      3.587100  
    1915A      3.591958  1916A      3.595342  1917A      3.652920  
    1918A      3.654209  1919A      3.663497  1920A      3.676599  
    1921A      3.684312  1922A      3.693146  1923A      3.710518  
    1924A      3.755419  1925A      3.764189  1926A      3.767093  
    1927A      3.772673  1928A      3.779344  1929A      3.784803  
    1930A      3.800334  1931A      3.840960  1932A      3.849432  
    1933A      3.852786  1934A      3.877436  1935A      3.881066  
    1936A      3.891542  1937A      3.921346  1938A      3.930363  
    1939A      3.948888  1940A      3.950611  1941A      3.956691  
    1942A      3.972443  1943A      3.980935  1944A      3.985856  
    1945A      3.996886  1946A      4.025136  1947A      4.027888  
    1948A      4.040284  1949A      4.093889  1950A      4.243937  
    1951A      4.250119  1952A      4.345328  1953A      4.431276  
    1954A      4.457936  1955A      4.464325  1956A      4.486014  
    1957A      4.528874  1958A      4.821490  1959A      4.862198  
    1960A      4.900061  1961A      4.922942  1962A      4.985279  
    1963A      5.092510  1964A      5.099023  1965A      5.111805  
    1966A      5.145548  1967A      5.237467  1968A      5.417700  
    1969A      5.446234  1970A      5.782701  1971A      5.803220  
    1972A      6.086501  1973A     18.208277  1974A     18.491525  
    1975A     18.514866  1976A     18.606843  1977A     18.865331  
    1978A     25.359990  1979A     25.396540  

    Final Occupation by Irrep:
              A 
    DOCC [   300 ]
    NA   [   300 ]
    NB   [   300 ]

  @DF-RHF Final Energy: -3650.34167968146812

   => Energetics <=

    Nuclear Repulsion Energy =          15611.4211649754306563
    One-Electron Energy =              -36072.1955063903587870
    Two-Electron Energy =               16810.4326617334627372
    Total Energy =                      -3650.3416796814672125

Computation Completed


Properties will be evaluated at   0.000000,   0.000000,   0.000000 [a0]

Properties computed using the SCF density matrix


 Multipole Moments:

 ------------------------------------------------------------------------------------
     Multipole            Electronic (a.u.)      Nuclear  (a.u.)        Total (a.u.)
 ------------------------------------------------------------------------------------

 L = 1.  Multiply by 2.5417464519 to convert [e a0] to [Debye]
 Dipole X            :         -0.0008747            0.0002112           -0.0006635
 Dipole Y            :          0.0018706           -0.0013774            0.0004931
 Dipole Z            :       -345.7773290          345.7816889            0.0043599
 Magnitude           :                                                    0.0044376

 ------------------------------------------------------------------------------------

*** tstop() called on n2cn0487.ab2021.local at Sat Jan 27 02:37:09 2024
Module time:
	user time   =   18896.01 seconds =     314.93 minutes
	system time =    1515.78 seconds =      25.26 minutes
	total time  =       3311 seconds =      55.18 minutes
Total time:
	user time   =   53193.88 seconds =     886.56 minutes
	system time =    4070.28 seconds =      67.84 minutes
	total time  =      10535 seconds =     175.58 minutes
  Constructing Basis Sets for SAPT...

   => Loading Basis Set <=

    Name: (JUN-CC-PVDZ AUX)
    Role: RIFIT
    Keyword: DF_BASIS_SAPT
    atoms 1-2, 4-5, 10, 17-34, 41-53, 56-70, 73-89, 92-104, 109-119, 122-130 entry C          line   100 file /opt/software/pc2/EB-SW/software/PSI4/1.9-foss-2022a/share/psi4/basis/jun-cc-pvdz-ri.gbs 
    atoms 3, 6                                                               entry N          line   144 file /opt/software/pc2/EB-SW/software/PSI4/1.9-foss-2022a/share/psi4/basis/jun-cc-pvdz-ri.gbs 
    atoms 7-9, 11-16, 35-40, 54-55, 71-72, 90-91, 105-108, 120-121, 131-136  entry H          line    30 file /opt/software/pc2/EB-SW/software/PSI4/1.9-foss-2022a/share/psi4/basis/jun-cc-pvdz-ri.gbs 

   => Loading Basis Set <=

    Name: (JUN-CC-PVDZ AUX)
    Role: JKFIT
    Keyword: DF_BASIS_ELST
    atoms 1-2, 4-5, 10, 17-34, 41-53, 56-70, 73-89, 92-104, 109-119, 122-130 entry C          line   146 file /opt/software/pc2/EB-SW/software/PSI4/1.9-foss-2022a/share/psi4/basis/jun-cc-pvdz-jkfit.gbs 
    atoms 3, 6                                                               entry N          line   202 file /opt/software/pc2/EB-SW/software/PSI4/1.9-foss-2022a/share/psi4/basis/jun-cc-pvdz-jkfit.gbs 
    atoms 7-9, 11-16, 35-40, 54-55, 71-72, 90-91, 105-108, 120-121, 131-136  entry H          line    70 file /opt/software/pc2/EB-SW/software/PSI4/1.9-foss-2022a/share/psi4/basis/jun-cc-pvdz-jkfit.gbs 


  //>>>>>>>>>>>>>>>>>>>>>>>>>>>>>>>>>>>//
  //               SSAPT0              //
  //<<<<<<<<<<<<<<<<<<<<<<<<<<<<<<<<<<<//


*** tstart() called on n2cn0487.ab2021.local
*** at Sat Jan 27 02:37:10 2024

        SAPT0  
    Ed Hohenstein
     6 June 2009

      Orbital Information
  --------------------------
    NSO        =      2019
    NMO        =      1979
    NRI        =      7157
    NRI (Elst) =      8896
    NOCC A     =        26
    NOCC B     =       300
    FOCC A     =         7
    FOCC B     =        96
    NVIR A     =      1953
    NVIR B     =      1679

    Elst10,r            =    -0.019701819805 [Eh]
    Exch10              =     0.030851640710 [Eh]
    Exch10 (S^2)        =     0.030578444903 [Eh]

    Iter     Energy [mEh]          dE [mEh]         Residual      Time [s]
       1      -2.73583508       2.735835077       7.809706976           276
       2      -3.34503400       0.609198918       2.424496108           576
       3      -3.40098783       0.055953840       0.438093311           800
       4      -3.39530931      -0.005678521       0.141804720          1033
       5      -3.39364883      -0.001660488       0.032915146          1269
       6      -3.39418462       0.000535792       0.013394419          1513
       7      -3.39415582      -0.000028795       0.007219054          1781
       8      -3.39409682      -0.000059001       0.001796135          2086
       9      -3.39409937       0.000002548       0.000575258          2490
      10      -3.39410280       0.000003431       0.000141993          2811
      11      -3.39410255      -0.000000258       0.000035108          3087
      12      -3.39410242      -0.000000123       0.000009654          3427
      13      -3.39410243       0.000000006       0.000003105          3692
      14      -3.39410244       0.000000013       0.000000921          4081

    CHF Iterations converged


    Iter     Energy [mEh]          dE [mEh]         Residual      Time [s]
       1     -32.52151174      32.521511735      93.580026817           482
       2     -22.52406968      -9.997442054      12.880120570           867
       3     -22.84889397       0.324824286       5.251973011          1231
       4     -23.48310569       0.634211721       1.418501841          1661
       5     -23.53665450       0.053548813       0.502211927          2314
       6     -23.51458191      -0.022072590       0.304508285          2634
       7     -23.50554366      -0.009038247       0.128588239          3265
       8     -23.50830086       0.002757192       0.056161450          3746
       9     -23.51016172       0.001860869       0.020216591          4219
      10     -23.50998658      -0.000175145       0.015524935          4918
      11     -23.50960476      -0.000381815       0.009570340          5529
      12     -23.50960876       0.000003999       0.005700517          6298
      13     -23.50974054       0.000131781       0.002860228          6800
      14     -23.50975516       0.000014619       0.001967321          7240
      15     -23.50972656      -0.000028607       0.001278106          7795
      16     -23.50970978      -0.000016776       0.000628755          8538
      17     -23.50972503       0.000015252       0.000284025          9291
      18     -23.50972684       0.000001803       0.000129803          9807
      19     -23.50972430      -0.000002535       0.000067820         10596
      20     -23.50972352      -0.000000779       0.000031592         11133
      21     -23.50972397       0.000000444       0.000016767         11494
      22     -23.50972419       0.000000221       0.000008426         11818
      23     -23.50972412      -0.000000069       0.000004149         12113
      24     -23.50972406      -0.000000061       0.000002197         12436
      25     -23.50972407       0.000000008       0.000001275         12769
      26     -23.50972409       0.000000021       0.000000742         13214

    CHF Iterations converged

    Ind20,r (A<-B)      =    -0.003394102441 [Eh]
    Ind20,r (B<-A)      =    -0.023509724086 [Eh]
    Ind20,r             =    -0.026903826527 [Eh]
    Exch-Ind20,r (A<-B) =     0.003214916395 [Eh]
    Exch-Ind20,r (B<-A) =     0.004622068244 [Eh]
    Exch-Ind20,r        =     0.007836984640 [Eh]
    Disp20              =    -0.034869952131 [Eh]
    Disp20 (SS)         =    -0.017434976066 [Eh]
    Disp20 (OS)         =    -0.017434976066 [Eh]
    Exch-Disp20         =     0.002612431674 [Eh]
    Exch-Disp20 (SS)    =     0.001557156105 [Eh]
    Exch-Disp20 (OS)    =     0.001055275569 [Eh]

    SAPT Results 
  --------------------------------------------------------------------------------------------------------
    Electrostatics                -19.70181981 [mEh]     -12.36307858 [kcal/mol]     -51.72712077 [kJ/mol]
      Elst10,r                    -19.70181981 [mEh]     -12.36307858 [kcal/mol]     -51.72712077 [kJ/mol]

    Exchange                       30.85164071 [mEh]      19.35969683 [kcal/mol]      81.00097152 [kJ/mol]
      Exch10                       30.85164071 [mEh]      19.35969683 [kcal/mol]      81.00097152 [kJ/mol]
      Exch10(S^2)                  30.57844490 [mEh]      19.18826387 [kcal/mol]      80.28369603 [kJ/mol]

    Induction                     -24.26323455 [mEh]     -15.22540954 [kcal/mol]     -63.70311353 [kJ/mol]
      Ind20,r                     -26.90382653 [mEh]     -16.88240603 [kcal/mol]     -70.63598681 [kJ/mol]
      Exch-Ind20,r                  7.83698464 [mEh]       4.91778211 [kcal/mol]      20.57600034 [kJ/mol]
      delta HF,r (2)               -5.19639266 [mEh]      -3.26078562 [kcal/mol]     -13.64312705 [kJ/mol]

    Dispersion                    -32.25752046 [mEh]     -20.24189969 [kcal/mol]     -84.69210829 [kJ/mol]
      Disp20                      -34.86995213 [mEh]     -21.88122531 [kcal/mol]     -91.55104671 [kJ/mol]
      Exch-Disp20                   2.61243167 [mEh]       1.63932563 [kcal/mol]       6.85893842 [kJ/mol]
      Disp20 (SS)                 -17.43497607 [mEh]     -10.94061266 [kcal/mol]     -45.77552335 [kJ/mol]
      Disp20 (OS)                 -17.43497607 [mEh]     -10.94061266 [kcal/mol]     -45.77552335 [kJ/mol]
      Exch-Disp20 (SS)              1.55715611 [mEh]       0.97713021 [kcal/mol]       4.08831279 [kJ/mol]
      Exch-Disp20 (OS)              1.05527557 [mEh]       0.66219542 [kcal/mol]       2.77062562 [kJ/mol]

  Total HF                        -13.11341364 [mEh]      -8.22879130 [kcal/mol]     -34.42926278 [kJ/mol]
  Total SAPT0                     -45.37093410 [mEh]     -28.47069098 [kcal/mol]    -119.12137107 [kJ/mol]

  Special recipe for scaled SAPT0 (see Manual):
    Electrostatics sSAPT0         -19.70181981 [mEh]     -12.36307858 [kcal/mol]     -51.72712077 [kJ/mol]
    Exchange sSAPT0                30.85164071 [mEh]      19.35969683 [kcal/mol]      81.00097152 [kJ/mol]
    Induction sSAPT0              -24.05129929 [mEh]     -15.09241816 [kcal/mol]     -63.14667760 [kJ/mol]
    Dispersion sSAPT0             -32.18687257 [mEh]     -20.19756747 [kcal/mol]     -84.50662230 [kJ/mol]
  Total sSAPT0                    -45.08835096 [mEh]     -28.29336739 [kcal/mol]    -118.37944914 [kJ/mol]
  --------------------------------------------------------------------------------------------------------

*** tstop() called on n2cn0487.ab2021.local at Sat Jan 27 22:31:19 2024
Module time:
	user time   =   70249.35 seconds =    1170.82 minutes
	system time =    4046.91 seconds =      67.45 minutes
	total time  =      71649 seconds =    1194.15 minutes
Total time:
	user time   =  123444.69 seconds =    2057.41 minutes
	system time =    8117.20 seconds =     135.29 minutes
	total time  =      82185 seconds =    1369.75 minutes

    Psi4 stopped on: Saturday, 27 January 2024 10:31PM
    Psi4 wall time for execution: 22:49:45.74

*** Psi4 exiting successfully. Buy a developer a beer!
