
    -----------------------------------------------------------------------
          Psi4: An Open-Source Ab Initio Electronic Structure Package
                               Psi4 1.9 release

                         Git: Rev {} zzzzzzz 


    D. G. A. Smith, L. A. Burns, A. C. Simmonett, R. M. Parrish,
    M. C. Schieber, R. Galvelis, P. Kraus, H. Kruse, R. Di Remigio,
    A. Alenaizan, A. M. James, S. Lehtola, J. P. Misiewicz, M. Scheurer,
    R. A. Shaw, J. B. Schriber, Y. Xie, Z. L. Glick, D. A. Sirianni,
    J. S. O'Brien, J. M. Waldrop, A. Kumar, E. G. Hohenstein,
    B. P. Pritchard, B. R. Brooks, H. F. Schaefer III, A. Yu. Sokolov,
    K. Patkowski, A. E. DePrince III, U. Bozkaya, R. A. King,
    F. A. Evangelista, J. M. Turney, T. D. Crawford, C. D. Sherrill,
    J. Chem. Phys. 152(18) 184108 (2020). https://doi.org/10.1063/5.0006002

                            Additional Code Authors
    E. T. Seidl, C. L. Janssen, E. F. Valeev, M. L. Leininger,
    J. F. Gonthier, R. M. Richard, H. R. McAlexander, M. Saitow, X. Wang,
    P. Verma, M. H. Lechner, A. Jiang, S. Behnle, A. G. Heide,
    M. F. Herbst, and D. L. Poole

             Previous Authors, Complete List of Code Contributors,
                       and Citations for Specific Modules
    https://github.com/psi4/psi4/blob/master/codemeta.json
    https://github.com/psi4/psi4/graphs/contributors
    http://psicode.org/psi4manual/master/introduction.html#citing-psifour

    -----------------------------------------------------------------------


    Psi4 started on: Monday, 22 January 2024 09:21AM

    Process ID: 2400305
    Host:       d-16-12-3
    PSIDATADIR: /home/gridsan/tfroembgen/.conda/envs/psi4test/share/psi4
    Memory:     500.0 MiB
    Threads:    12
    
  ==> Input File <==

--------------------------------------------------------------------------
memory 32 GB # how much memory is available ! Depends on the nodes/cores !

molecule dimer {
# monomer A
-1 1    # Charge and multiplicity
B -1.977592e-04  2.742729e-04 -3.399966
F  1.123153e-16  1.430594e-17 -1.987181
F  1.147860e+00  6.757812e-01 -3.871107
F  1.191806e-02 -1.332011e+00 -3.870905
F -1.159666e+00  6.560735e-01 -3.870826
--
# monomer B
0 1     # Charge and multiplicity
C   1.22531237526482      0.70753866091955      0.00613762728373
C   1.22532433589282     -0.70753852257020     -0.00619318228664
C   -0.00000567409046      1.41496628609039     -0.00672680580738
C   2.45644923379077      1.41832825917820      0.00902448468363
C   0.00001130712078     -1.41497612663474      0.00347275151708
C   -1.22530046906674      0.70754574598412      0.00838914760619
C   2.45643823516184     -1.41832293188077     -0.00843833914343
C   -0.00000085313587      2.83680140328112     -0.00913035594137
C   3.68182717731192      0.70931832800114     -0.00808954934571
C   2.45512052870677      2.83422403348893     -0.00819210630633
C   3.68182158506039     -0.70933346742900      0.00798293467272
C   -1.22531311884624     -0.70752714354401     -0.00512042085974
C   1.22670006104402      3.54346985599427      0.00816696660346
C   0.00000526469929     -2.83678176723568      0.00832091913869
C   -2.45643555300670      1.41831729028492      0.00842454345199
C   2.45512389762097     -2.83422965658853      0.00783102630520
C   -1.22671388474763      3.54346943575023      0.00827029982280
C   4.91451777504333      1.42717324448953     -0.00160886631602
C   3.69315067131765      3.54279566454522     -0.00155906667985
C   -2.45643712022637     -1.41831290883911     -0.00846337726810
C   1.22670532178455     -3.54347386990643     -0.00780316414624
C   -2.45512491866593      2.83421703463423     -0.00818572995999
C   4.91452486062398     -1.42718653794377      0.00136387641845
C   1.22142509354026      4.97013443726031      0.00150231067809
C   4.89300870916237      2.82518837202648     -0.00039219795739
C   -1.22669652864725     -3.54347062507680     -0.00753595973677
C   -3.68181849668397      0.70932533873199     -0.00807686886569
C   3.69314758099218     -3.54280096939050      0.00148176697923
C   -1.22143177215231      4.97012866986289      0.00168580605083
C   6.13477145276790      0.68054831910577     -0.00083909176631
C   3.65678936045204      4.97295361556775     -0.00065042889723
C   -2.45512642789169     -2.83421472106065      0.00758666850712
C   -3.68181869921921     -0.70932533146830      0.00810055625144
C   4.89301309775526     -2.82519973363176      0.00021895393805
C   -0.00000059327114      5.65044773803267      0.00045449734393
C   6.13477559217374     -0.68055448207492      0.00042622874941
C   2.47813196269732      5.65357712333155      0.00063835075260
C   1.22142288457925     -4.97012668293268     -0.00129718634452
C   -3.69316190412301      3.54279732619245     -0.00139355922051
C   -1.22142804110313     -4.97011793159564     -0.00140994817719
C   -4.91452132810043      1.42717581899491     -0.00153192130862
C   3.65678749952045     -4.97295485423912      0.00080007163680
C   -2.47813805026426      5.65357479452875      0.00092287576113
C   -3.69314125872231     -3.54278984697859      0.00136564082345
C   -4.91451200321153     -1.42718062802730      0.00139857359209
C   -0.00000552908399     -5.65043791501335      0.00005899322272
C   -4.89302000425900      2.82518897091939     -0.00040227981744
C   2.47812647313991     -5.65357317188818     -0.00029052915548
C   -3.65679823041642      4.97295655404175     -0.00047374852278
C   -4.89299899901461     -2.82519139505969      0.00006491824035
C   -2.47812801824129     -5.65356579800621     -0.00056571680280
C   -6.13477002348955      0.68054913825639     -0.00086464346868
C   -3.65678835334731     -4.97294365097028      0.00058578382008
C   -6.13476456307132     -0.68055354348201      0.00040575295444
H   5.83528897565761      3.36927626695423      0.00396712770529
H   7.07385965258860      1.22821762089947     -0.00037744837300
H   4.60066374401555      5.51238117445323     -0.00014522814529
H   5.83528386714679     -3.36930568472863     -0.00423551337640
H   -0.00001167146422      6.73853104613662     -0.00389474766392
H   7.07386165167227     -1.22822657074368     -0.00008250934481
H   2.47331421164041      6.74068466339473      0.00017162982210
H   4.60066897122302     -5.51237575717576      0.00039007446835
H   -2.47331820069565      6.74068209160650      0.00047297644710
H   -0.00000978838621     -6.73852780445195      0.00458867820736
H   -5.83530143450167      3.36927132229595      0.00410314985360
H   2.47330840367253     -6.74068500242887      0.00027980126949
H   -4.60067436136587      5.51237839860371      0.00002010017831
H   -5.83527902699321     -3.36928859177951     -0.00451481925734
H   -2.47329986759855     -6.74067870613986     -0.00016951527498
H   -7.07385728692578      1.22822084484047     -0.00046143985387
H   -4.60067330624313     -5.51236229778631      0.00021776644566
H   -7.07385645456741     -1.22822025997701     -0.00017736581114

    units angstrom      # Angstroms are the default
    no_reorient         # Geometry fixed, default
    symmetry c1         # C1 symmetry, default
}

set {
    scf_type DF         # Density fitting, faster than exact integrals
    freeze_core True    # Freeze core electrons
    basis jun-cc-pVDZ   # Jun-cc-pVDZ basis set, recommended for sSAPT0 in https://doi.org/10.1063/1.4867135
}

energy('ssapt0')        # Compute sSAPT0 energy, includes also SAPT0
--------------------------------------------------------------------------

  Memory set to  29.802 GiB by Python driver.

Scratch directory: /state/partition1/slurm_tmp/24790926.4294967291.0/
   => Loading Basis Set <=

    Name: JUN-CC-PVDZ
    Role: ORBITAL
    Keyword: BASIS
    atoms 1     entry B          line   130 file /home/gridsan/tfroembgen/.conda/envs/psi4test/share/psi4/basis/jun-cc-pvdz.gbs 
    atoms 2-5   entry F          line   266 file /home/gridsan/tfroembgen/.conda/envs/psi4test/share/psi4/basis/jun-cc-pvdz.gbs 
    atoms 6-59  entry C          line   164 file /home/gridsan/tfroembgen/.conda/envs/psi4test/share/psi4/basis/jun-cc-pvdz.gbs 
    atoms 60-77 entry H          line    36 file /home/gridsan/tfroembgen/.conda/envs/psi4test/share/psi4/basis/jun-cc-pvdz.gbs 

   => Loading Basis Set <=

    Name: JUN-CC-PVDZ
    Role: ORBITAL
    Keyword: BASIS
    atoms 1     entry B          line   130 file /home/gridsan/tfroembgen/.conda/envs/psi4test/share/psi4/basis/jun-cc-pvdz.gbs 
    atoms 2-5   entry F          line   266 file /home/gridsan/tfroembgen/.conda/envs/psi4test/share/psi4/basis/jun-cc-pvdz.gbs 
    atoms 6-59  entry C          line   164 file /home/gridsan/tfroembgen/.conda/envs/psi4test/share/psi4/basis/jun-cc-pvdz.gbs 
    atoms 60-77 entry H          line    36 file /home/gridsan/tfroembgen/.conda/envs/psi4test/share/psi4/basis/jun-cc-pvdz.gbs 


  //>>>>>>>>>>>>>>>>>>>>>>>>>>>>>>>>>>>//
  //              Dimer HF             //
  //<<<<<<<<<<<<<<<<<<<<<<<<<<<<<<<<<<<//

   => Libint2 <=

    Primary   basis highest AM E, G, H:  7, 7, 4
    Auxiliary basis highest AM E, G, H:  7, 7, 5
    Onebody   basis highest AM E, G, H:  7, 7, 5
    Solid Harmonics ordering:            gaussian

*** tstart() called on d-16-12-3
*** at Mon Jan 22 09:21:06 2024

   => Loading Basis Set <=

    Name: JUN-CC-PVDZ
    Role: ORBITAL
    Keyword: BASIS
    atoms 1     entry B          line   130 file /home/gridsan/tfroembgen/.conda/envs/psi4test/share/psi4/basis/jun-cc-pvdz.gbs 
    atoms 2-5   entry F          line   266 file /home/gridsan/tfroembgen/.conda/envs/psi4test/share/psi4/basis/jun-cc-pvdz.gbs 
    atoms 6-59  entry C          line   164 file /home/gridsan/tfroembgen/.conda/envs/psi4test/share/psi4/basis/jun-cc-pvdz.gbs 
    atoms 60-77 entry H          line    36 file /home/gridsan/tfroembgen/.conda/envs/psi4test/share/psi4/basis/jun-cc-pvdz.gbs 


         ---------------------------------------------------------
                                   SCF
               by Justin Turney, Rob Parrish, Andy Simmonett
                          and Daniel G. A. Smith
                              RHF Reference
                       12 Threads,  30517 MiB Core
         ---------------------------------------------------------

  ==> Geometry <==

    Molecular point group: c1
    Full point group: C1

    Geometry (in Angstrom), charge = -1, multiplicity = 1:

       Center              X                  Y                   Z               Mass       
    ------------   -----------------  -----------------  -----------------  -----------------
         B           -0.000198161052     0.000273808717    -3.007196918024    11.009305360000
         F           -0.000000401852    -0.000000464183    -1.594411918024    18.998403162730
         F            1.147859598148     0.675780735817    -3.478337918024    18.998403162730
         F            0.011917658148    -1.332011464183    -3.478135918024    18.998403162730
         F           -1.159666401852     0.656073035817    -3.478056918024    18.998403162730
         C            1.225311973413     0.707538196736     0.398906709260    12.000000000000
         C            1.225323934041    -0.707538986754     0.386575899690    12.000000000000
         C           -0.000006075942     1.414965821907     0.386042276169    12.000000000000
         C            2.456448831939     1.418327794995     0.401793566660    12.000000000000
         C            0.000010905269    -1.414976590818     0.396241833493    12.000000000000
         C           -1.225300870919     0.707545281801     0.401158229582    12.000000000000
         C            2.456437833310    -1.418323396064     0.384330742833    12.000000000000
         C           -0.000001254988     2.836800939098     0.383638726035    12.000000000000
         C            3.681826775460     0.709317863818     0.384679532631    12.000000000000
         C            2.455120126855     2.834223569306     0.384576975670    12.000000000000
         C            3.681821183209    -0.709333931612     0.400752016649    12.000000000000
         C           -1.225313520698    -0.707527607727     0.387648661117    12.000000000000
         C            1.226699659192     3.543469391811     0.400936048580    12.000000000000
         C            0.000004862847    -2.836782231419     0.401090001115    12.000000000000
         C           -2.456435954859     1.418316826102     0.401193625428    12.000000000000
         C            2.455123495769    -2.834230120772     0.400600108281    12.000000000000
         C           -1.226714286599     3.543468971567     0.401039381799    12.000000000000
         C            4.914517373191     1.427172780306     0.391160215660    12.000000000000
         C            3.693150269466     3.542795200362     0.391210015296    12.000000000000
         C           -2.456437522078    -1.418313373022     0.384305704708    12.000000000000
         C            1.226704919933    -3.543474334090     0.384965917830    12.000000000000
         C           -2.455125320518     2.834216570451     0.384583352016    12.000000000000
         C            4.914524458772    -1.427187002127     0.394132958395    12.000000000000
         C            1.221424691688     4.970133973077     0.394271392654    12.000000000000
         C            4.893008307311     2.825187907843     0.392376884019    12.000000000000
         C           -1.226696930499    -3.543471089260     0.385233122239    12.000000000000
         C           -3.681818898536     0.709324874549     0.384692213111    12.000000000000
         C            3.693147179140    -3.542801433574     0.394250848955    12.000000000000
         C           -1.221432174004     4.970128205680     0.394454888027    12.000000000000
         C            6.134771050916     0.680547854922     0.391929990210    12.000000000000
         C            3.656788958600     4.972953151384     0.392118653079    12.000000000000
         C           -2.455126829744    -2.834215185244     0.400355750483    12.000000000000
         C           -3.681819101071    -0.709325795652     0.400869638228    12.000000000000
         C            4.893012695903    -2.825200197815     0.392988035914    12.000000000000
         C           -0.000000995123     5.650447273849     0.393223579320    12.000000000000
         C            6.134775190322    -0.680554946258     0.393195310726    12.000000000000
         C            2.478131560845     5.653576659148     0.393407432729    12.000000000000
         C            1.221422482727    -4.970127147116     0.391471895632    12.000000000000
         C           -3.693162305975     3.542796862009     0.391375522756    12.000000000000
         C           -1.221428442955    -4.970118395779     0.391359133799    12.000000000000
         C           -4.914521729952     1.427175354812     0.391237160668    12.000000000000
         C            3.656787097669    -4.972955318422     0.393569153613    12.000000000000
         C           -2.478138452116     5.653574330345     0.393691957737    12.000000000000
         C           -3.693141660574    -3.542790311162     0.394134722800    12.000000000000
         C           -4.914512405063    -1.427181092211     0.394167655568    12.000000000000
         C           -0.000005930936    -5.650438379197     0.392828075199    12.000000000000
         C           -4.893020406111     2.825188506736     0.392366802159    12.000000000000
         C            2.478126071288    -5.653573636072     0.392478552821    12.000000000000
         C           -3.656798632268     4.972956089858     0.392295333453    12.000000000000
         C           -4.892999400866    -2.825191859243     0.392834000217    12.000000000000
         C           -2.478128420093    -5.653566262190     0.392203365173    12.000000000000
         C           -6.134770425341     0.680548674073     0.391904438508    12.000000000000
         C           -3.656788755199    -4.972944115154     0.393354865796    12.000000000000
         C           -6.134764964923    -0.680554007665     0.393174834931    12.000000000000
         H            5.835288573806     3.369275802771     0.396736209682     1.007825032230
         H            7.073859250737     1.228217156716     0.392391633603     1.007825032230
         H            4.600663342164     5.512380710270     0.392623853831     1.007825032230
         H            5.835283465295    -3.369306148912     0.388533568600     1.007825032230
         H           -0.000012073316     6.738530581953     0.388874334312     1.007825032230
         H            7.073861249820    -1.228227034927     0.392686572631     1.007825032230
         H            2.473313809789     6.740684199211     0.392940711798     1.007825032230
         H            4.600668569371    -5.512376221359     0.393159156445     1.007825032230
         H           -2.473318602548     6.740681627423     0.393242058423     1.007825032230
         H           -0.000010190238    -6.738528268635     0.397357760184     1.007825032230
         H           -5.835301836354     3.369270858113     0.396872231830     1.007825032230
         H            2.473308001821    -6.740685466612     0.393048883246     1.007825032230
         H           -4.600674763218     5.512377934420     0.392789182155     1.007825032230
         H           -5.835279428845    -3.369289055963     0.388254262719     1.007825032230
         H           -2.473300269450    -6.740679170323     0.392599566701     1.007825032230
         H           -7.073857688778     1.228220380657     0.392307642122     1.007825032230
         H           -4.600673708095    -5.512362761970     0.392986848422     1.007825032230
         H           -7.073856856419    -1.228220724160     0.392591716165     1.007825032230

  Running in c1 symmetry.

  Rotational constants: A =      0.00196  B =      0.00196  C =      0.00110 [cm^-1]
  Rotational constants: A =     58.82245  B =     58.81444  C =     33.02251 [MHz]
  Nuclear repulsion = 7974.047628746328883

  Charge       = -1
  Multiplicity = 1
  Electrons    = 384
  Nalpha       = 192
  Nbeta        = 192

  ==> Algorithm <==

  SCF Algorithm Type is DF.
  DIIS enabled.
  MOM disabled.
  Fractional occupation disabled.
  Guess Type is SAD.
  Energy threshold   = 1.00e-08
  Density threshold  = 1.00e-08
  Integral threshold = 1.00e-12

  ==> Primary Basis <==

  Basis Set: JUN-CC-PVDZ
    Blend: JUN-CC-PVDZ
    Number of shells: 526
    Number of basis functions: 1152
    Number of Cartesian functions: 1211
    Spherical Harmonics?: true
    Max angular momentum: 2

   => Loading Basis Set <=

    Name: (JUN-CC-PVDZ AUX)
    Role: JKFIT
    Keyword: DF_BASIS_SCF
    atoms 1     entry B          line    90 file /home/gridsan/tfroembgen/.conda/envs/psi4test/share/psi4/basis/jun-cc-pvdz-jkfit.gbs 
    atoms 2-5   entry F          line   314 file /home/gridsan/tfroembgen/.conda/envs/psi4test/share/psi4/basis/jun-cc-pvdz-jkfit.gbs 
    atoms 6-59  entry C          line   146 file /home/gridsan/tfroembgen/.conda/envs/psi4test/share/psi4/basis/jun-cc-pvdz-jkfit.gbs 
    atoms 60-77 entry H          line    70 file /home/gridsan/tfroembgen/.conda/envs/psi4test/share/psi4/basis/jun-cc-pvdz-jkfit.gbs 

  ==> Integral Setup <==

  ==> DiskDFJK: Density-Fitted J/K Matrices <==

    J tasked:                  Yes
    K tasked:                  Yes
    wK tasked:                  No
    OpenMP threads:             12
    Integrals threads:          12
    Memory [MiB]:            22888
    Algorithm:                Core
    Integral Cache:           SAVE
    Schwarz Cutoff:          1E-12
    Fitting Condition:       1E-10

   => Auxiliary Basis Set <=

  Basis Set: (JUN-CC-PVDZ AUX)
    Blend: JUN-CC-PVDZ-JKFIT
    Number of shells: 1755
    Number of basis functions: 5075
    Number of Cartesian functions: 5819
    Spherical Harmonics?: true
    Max angular momentum: 3

  Minimum eigenvalue in the overlap matrix is 7.9844679330E-10.
  Reciprocal condition number of the overlap matrix is 3.3540071837E-11.
    Using canonical orthogonalization.
  Overall, 14 of 1152 possible MOs eliminated.


  ==> Pre-Iterations <==

  SCF Guess: Superposition of Atomic Densities via on-the-fly atomic UHF (no occupation information).

   -------------------------
    Irrep   Nso     Nmo    
   -------------------------
     A       1152    1138 
   -------------------------
    Total    1152    1138
   -------------------------

  ==> Iterations <==

                           Total Energy        Delta E     RMS |[F,P]|

   @DF-RHF iter SAD: -2483.64406657368590   -2.48364e+03   0.00000e+00 
   @DF-RHF iter   1: -2477.55744024825344    6.08663e+00   1.10942e-03 DIIS/ADIIS
   @DF-RHF iter   2: -2478.45617803213418   -8.98738e-01   4.98707e-04 DIIS/ADIIS
   @DF-RHF iter   3: -2478.60554159061803   -1.49364e-01   1.57290e-04 DIIS/ADIIS
   @DF-RHF iter   4: -2478.62240861537248   -1.68670e-02   7.79122e-05 DIIS
   @DF-RHF iter   5: -2478.62734152237226   -4.93291e-03   1.82092e-05 DIIS
   @DF-RHF iter   6: -2478.62767578656531   -3.34264e-04   5.27889e-06 DIIS
   @DF-RHF iter   7: -2478.62775494291009   -7.91563e-05   2.68491e-06 DIIS
   @DF-RHF iter   8: -2478.62777738198656   -2.24391e-05   1.22537e-06 DIIS
   @DF-RHF iter   9: -2478.62778467604494   -7.29406e-06   3.12013e-07 DIIS
   @DF-RHF iter  10: -2478.62778500315198   -3.27107e-07   1.10675e-07 DIIS
   @DF-RHF iter  11: -2478.62778502945457   -2.63026e-08   4.28123e-08 DIIS
   @DF-RHF iter  12: -2478.62778503487198   -5.41741e-09   1.56867e-08 DIIS
   @DF-RHF iter  13: -2478.62778503544860   -5.76620e-10   5.57438e-09 DIIS
  Energy and wave function converged.


  ==> Post-Iterations <==

    Orbital Energies [Eh]
    ---------------------

    Doubly Occupied:                                                      

       1A    -26.099061     2A    -26.086607     3A    -26.086518  
       4A    -26.086439     5A    -11.177503     6A    -11.177486  
       7A    -11.177485     8A    -11.177423     9A    -11.177407  
      10A    -11.177405    11A    -11.177309    12A    -11.177302  
      13A    -11.177301    14A    -11.177232    15A    -11.177224  
      16A    -11.177223    17A    -11.175596    18A    -11.175593  
      19A    -11.175591    20A    -11.175587    21A    -11.175585  
      22A    -11.175583    23A    -11.174215    24A    -11.174211  
      25A    -11.174210    26A    -11.174207    27A    -11.174205  
      28A    -11.174204    29A    -11.172396    30A    -11.172349  
      31A    -11.172345    32A    -11.172192    33A    -11.172190  
      34A    -11.172080    35A    -11.171623    36A    -11.171459  
      37A    -11.171453    38A    -11.171178    39A    -11.171175  
      40A    -11.171036    41A    -11.170573    42A    -11.170562  
      43A    -11.170559    44A    -11.170343    45A    -11.170304  
      46A    -11.170297    47A    -11.170294    48A    -11.170270  
      49A    -11.170266    50A    -11.170074    51A    -11.170066  
      52A    -11.170034    53A    -11.164376    54A    -11.163902  
      55A    -11.163864    56A    -11.162744    57A    -11.162709  
      58A    -11.162208    59A     -7.563154    60A     -1.440728  
      61A     -1.390402    62A     -1.370615    63A     -1.370458  
      64A     -1.154649    65A     -1.134675    66A     -1.134672  
      67A     -1.106489    68A     -1.106483    69A     -1.092776  
      70A     -1.076473    71A     -1.066422    72A     -1.049483  
      73A     -1.049470    74A     -1.032292    75A     -1.032287  
      76A     -0.998003    77A     -0.997992    78A     -0.993358  
      79A     -0.985507    80A     -0.985503    81A     -0.957293  
      82A     -0.938407    83A     -0.937153    84A     -0.935030  
      85A     -0.934983    86A     -0.932583    87A     -0.903174  
      88A     -0.903132    89A     -0.880296    90A     -0.880246  
      91A     -0.813453    92A     -0.813422    93A     -0.802528  
      94A     -0.799235    95A     -0.799181    96A     -0.797670  
      97A     -0.797620    98A     -0.780671    99A     -0.758938  
     100A     -0.736715   101A     -0.731578   102A     -0.728597  
     103A     -0.728593   104A     -0.714369   105A     -0.714359  
     106A     -0.663939   107A     -0.661056   108A     -0.651681  
     109A     -0.651657   110A     -0.648934   111A     -0.648925  
     112A     -0.641801   113A     -0.627342   114A     -0.617753  
     115A     -0.617739   116A     -0.611555   117A     -0.611536  
     118A     -0.581066   119A     -0.570726   120A     -0.570720  
     121A     -0.569336   122A     -0.567842   123A     -0.566270  
     124A     -0.558694   125A     -0.558691   126A     -0.554742  
     127A     -0.554687   128A     -0.545028   129A     -0.544224  
     130A     -0.544214   131A     -0.529491   132A     -0.518758  
     133A     -0.518726   134A     -0.517942   135A     -0.511473  
     136A     -0.511024   137A     -0.507143   138A     -0.506256  
     139A     -0.506248   140A     -0.493595   141A     -0.493569  
     142A     -0.487791   143A     -0.487772   144A     -0.482895  
     145A     -0.482889   146A     -0.475273   147A     -0.475248  
     148A     -0.474464   149A     -0.474085   150A     -0.474070  
     151A     -0.458364   152A     -0.458361   153A     -0.455529  
     154A     -0.455525   155A     -0.451836   156A     -0.447690  
     157A     -0.440984   158A     -0.440973   159A     -0.436293  
     160A     -0.436230   161A     -0.420782   162A     -0.415434  
     163A     -0.413197   164A     -0.412797   165A     -0.412719  
     166A     -0.411795   167A     -0.405898   168A     -0.403809  
     169A     -0.401867   170A     -0.399200   171A     -0.399183  
     172A     -0.378219   173A     -0.378201   174A     -0.365187  
     175A     -0.365105   176A     -0.359160   177A     -0.359152  
     178A     -0.320367   179A     -0.320343   180A     -0.307904  
     181A     -0.295983   182A     -0.295979   183A     -0.267442  
     184A     -0.249367   185A     -0.241702   186A     -0.241685  
     187A     -0.230692   188A     -0.218504   189A     -0.199368  
     190A     -0.199317   191A     -0.140133   192A     -0.140092  

    Virtual:                                                              

     193A      0.094875   194A      0.094942   195A      0.108447  
     196A      0.108455   197A      0.109968   198A      0.110919  
     199A      0.110923   200A      0.117543   201A      0.121760  
     202A      0.132792   203A      0.132794   204A      0.147423  
     205A      0.147423   206A      0.149092   207A      0.149133  
     208A      0.151528   209A      0.156374   210A      0.156383  
     211A      0.157018   212A      0.157366   213A      0.157385  
     214A      0.161781   215A      0.161786   216A      0.164669  
     217A      0.165798   218A      0.167292   219A      0.167334  
     220A      0.171404   221A      0.178129   222A      0.178138  
     223A      0.179607   224A      0.183113   225A      0.189525  
     226A      0.189530   227A      0.191378   228A      0.191386  
     229A      0.192054   230A      0.192076   231A      0.197245  
     232A      0.199424   233A      0.199847   234A      0.202648  
     235A      0.203286   236A      0.203312   237A      0.207402  
     238A      0.214776   239A      0.214780   240A      0.218458  
     241A      0.218468   242A      0.220160   243A      0.220165  
     244A      0.224275   245A      0.224279   246A      0.228596  
     247A      0.235798   248A      0.241171   249A      0.241200  
     250A      0.244969   251A      0.251936   252A      0.252572  
     253A      0.252580   254A      0.254659   255A      0.254672  
     256A      0.257783   257A      0.261657   258A      0.261705  
     259A      0.264738   260A      0.264760   261A      0.267234  
     262A      0.268733   263A      0.268741   264A      0.272834  
     265A      0.273164   266A      0.273169   267A      0.273849  
     268A      0.276075   269A      0.276079   270A      0.277816  
     271A      0.279082   272A      0.279980   273A      0.280010  
     274A      0.282431   275A      0.283201   276A      0.291163  
     277A      0.292441   278A      0.292451   279A      0.293005  
     280A      0.293021   281A      0.296670   282A      0.297508  
     283A      0.297509   284A      0.303270   285A      0.306057  
     286A      0.306159   287A      0.306171   288A      0.310251  
     289A      0.310254   290A      0.313191   291A      0.315118  
     292A      0.321193   293A      0.321208   294A      0.324332  
     295A      0.324340   296A      0.324913   297A      0.328131  
     298A      0.328138   299A      0.334603   300A      0.334629  
     301A      0.337507   302A      0.337551   303A      0.343252  
     304A      0.343256   305A      0.344903   306A      0.344907  
     307A      0.350102   308A      0.356397   309A      0.356416  
     310A      0.359977   311A      0.360281   312A      0.360328  
     313A      0.362700   314A      0.362721   315A      0.364262  
     316A      0.364313   317A      0.367173   318A      0.370103  
     319A      0.372791   320A      0.372812   321A      0.375156  
     322A      0.379885   323A      0.379918   324A      0.380184  
     325A      0.382796   326A      0.382841   327A      0.383552  
     328A      0.385928   329A      0.386318   330A      0.386322  
     331A      0.391138   332A      0.392905   333A      0.393148  
     334A      0.393161   335A      0.394000   336A      0.400092  
     337A      0.401050   338A      0.404130   339A      0.404256  
     340A      0.409532   341A      0.410755   342A      0.410784  
     343A      0.411516   344A      0.413938   345A      0.414414  
     346A      0.414437   347A      0.422048   348A      0.423331  
     349A      0.423341   350A      0.425975   351A      0.426751  
     352A      0.426814   353A      0.436097   354A      0.439882  
     355A      0.439909   356A      0.445196   357A      0.445226  
     358A      0.446244   359A      0.448619   360A      0.448659  
     361A      0.450798   362A      0.452522   363A      0.460020  
     364A      0.460108   365A      0.461194   366A      0.461225  
     367A      0.464358   368A      0.464391   369A      0.464794  
     370A      0.467399   371A      0.469405   372A      0.469486  
     373A      0.471044   374A      0.473699   375A      0.473724  
     376A      0.477394   377A      0.477426   378A      0.477579  
     379A      0.479914   380A      0.480057   381A      0.480145  
     382A      0.481073   383A      0.489101   384A      0.489110  
     385A      0.492688   386A      0.494068   387A      0.494543  
     388A      0.494613   389A      0.497180   390A      0.497302  
     391A      0.500372   392A      0.500425   393A      0.502400  
     394A      0.503800   395A      0.506396   396A      0.506492  
     397A      0.511710   398A      0.511805   399A      0.512739  
     400A      0.513158   401A      0.514217   402A      0.515534  
     403A      0.515566   404A      0.518252   405A      0.523504  
     406A      0.523518   407A      0.526583   408A      0.527118  
     409A      0.527262   410A      0.528503   411A      0.528543  
     412A      0.529689   413A      0.529795   414A      0.538158  
     415A      0.538161   416A      0.540976   417A      0.546247  
     418A      0.546265   419A      0.546565   420A      0.548266  
     421A      0.548277   422A      0.550837   423A      0.551605  
     424A      0.552487   425A      0.552543   426A      0.554767  
     427A      0.556983   428A      0.557023   429A      0.568289  
     430A      0.568358   431A      0.570970   432A      0.571263  
     433A      0.571314   434A      0.573766   435A      0.573780  
     436A      0.576341   437A      0.583624   438A      0.583663  
     439A      0.584932   440A      0.587014   441A      0.592239  
     442A      0.592281   443A      0.593273   444A      0.593413  
     445A      0.604859   446A      0.607224   447A      0.607243  
     448A      0.611404   449A      0.612661   450A      0.612991  
     451A      0.615185   452A      0.620540   453A      0.622839  
     454A      0.623007   455A      0.623025   456A      0.624007  
     457A      0.624146   458A      0.628390   459A      0.628420  
     460A      0.629408   461A      0.632944   462A      0.633065  
     463A      0.638335   464A      0.638378   465A      0.639615  
     466A      0.642900   467A      0.646017   468A      0.646413  
     469A      0.646453   470A      0.652611   471A      0.660446  
     472A      0.660730   473A      0.670405   474A      0.670534  
     475A      0.674470   476A      0.676499   477A      0.680087  
     478A      0.680111   479A      0.689402   480A      0.698482  
     481A      0.698561   482A      0.702749   483A      0.702855  
     484A      0.706432   485A      0.706485   486A      0.722048  
     487A      0.732157   488A      0.732250   489A      0.733455  
     490A      0.735112   491A      0.735155   492A      0.738573  
     493A      0.743643   494A      0.743701   495A      0.750832  
     496A      0.758871   497A      0.758901   498A      0.768272  
     499A      0.797200   500A      0.797236   501A      0.801102  
     502A      0.818616   503A      0.819914   504A      0.819943  
     505A      0.820439   506A      0.826390   507A      0.826414  
     508A      0.832113   509A      0.835719   510A      0.835739  
     511A      0.839815   512A      0.839993   513A      0.842171  
     514A      0.842266   515A      0.849815   516A      0.855613  
     517A      0.872374   518A      0.876331   519A      0.884924  
     520A      0.885032   521A      0.890710   522A      0.894727  
     523A      0.900561   524A      0.900668   525A      0.902341  
     526A      0.902456   527A      0.902608   528A      0.907501  
     529A      0.907596   530A      0.908347   531A      0.908375  
     532A      0.920486   533A      0.934342   534A      0.934358  
     535A      0.943202   536A      0.945647   537A      0.945696  
     538A      0.949509   539A      0.949637   540A      0.951417  
     541A      0.956748   542A      0.956813   543A      0.966277  
     544A      0.966301   545A      0.967760   546A      0.967846  
     547A      0.977382   548A      0.977478   549A      0.979044  
     550A      0.979118   551A      0.980835   552A      0.989313  
     553A      0.989878   554A      0.992625   555A      0.992709  
     556A      0.993518   557A      0.994406   558A      0.999199  
     559A      0.999273   560A      1.002552   561A      1.002676  
     562A      1.002945   563A      1.010627   564A      1.015766  
     565A      1.015846   566A      1.018234   567A      1.021341  
     568A      1.021535   569A      1.025272   570A      1.025369  
     571A      1.028518   572A      1.030688   573A      1.030721  
     574A      1.038737   575A      1.047651   576A      1.049159  
     577A      1.049550   578A      1.049552   579A      1.053209  
     580A      1.053549   581A      1.059305   582A      1.060362  
     583A      1.068356   584A      1.068433   585A      1.072126  
     586A      1.076714   587A      1.080943   588A      1.080974  
     589A      1.089020   590A      1.092101   591A      1.092122  
     592A      1.095178   593A      1.095571   594A      1.095597  
     595A      1.105158   596A      1.109751   597A      1.109794  
     598A      1.115562   599A      1.115599   600A      1.116234  
     601A      1.121753   602A      1.121789   603A      1.125347  
     604A      1.125615   605A      1.125640   606A      1.131789  
     607A      1.134020   608A      1.134106   609A      1.136430  
     610A      1.137813   611A      1.137986   612A      1.138783  
     613A      1.141598   614A      1.141793   615A      1.150954  
     616A      1.150985   617A      1.155459   618A      1.155692  
     619A      1.156666   620A      1.161831   621A      1.164838  
     622A      1.168113   623A      1.169047   624A      1.169086  
     625A      1.177095   626A      1.177114   627A      1.179523  
     628A      1.179594   629A      1.182184   630A      1.182244  
     631A      1.190061   632A      1.190250   633A      1.192920  
     634A      1.192994   635A      1.194797   636A      1.194851  
     637A      1.198779   638A      1.200435   639A      1.208842  
     640A      1.215192   641A      1.217512   642A      1.217793  
     643A      1.222698   644A      1.222972   645A      1.226646  
     646A      1.227654   647A      1.227747   648A      1.231411  
     649A      1.232722   650A      1.232769   651A      1.233830  
     652A      1.236954   653A      1.243918   654A      1.257459  
     655A      1.257578   656A      1.258842   657A      1.268033  
     658A      1.268153   659A      1.273176   660A      1.276039  
     661A      1.277180   662A      1.277244   663A      1.279690  
     664A      1.279728   665A      1.284695   666A      1.284849  
     667A      1.295029   668A      1.300358   669A      1.302947  
     670A      1.303077   671A      1.303795   672A      1.304603  
     673A      1.304622   674A      1.312721   675A      1.316946  
     676A      1.316981   677A      1.322015   678A      1.338236  
     679A      1.338395   680A      1.341868   681A      1.341942  
     682A      1.345551   683A      1.345657   684A      1.346955  
     685A      1.347037   686A      1.356094   687A      1.358326  
     688A      1.374967   689A      1.376936   690A      1.378111  
     691A      1.378714   692A      1.388324   693A      1.388818  
     694A      1.388885   695A      1.390843   696A      1.390935  
     697A      1.395548   698A      1.404420   699A      1.404439  
     700A      1.406894   701A      1.406914   702A      1.411526  
     703A      1.411593   704A      1.416629   705A      1.420985  
     706A      1.427907   707A      1.434666   708A      1.435114  
     709A      1.435223   710A      1.440336   711A      1.440385  
     712A      1.441514   713A      1.441551   714A      1.446121  
     715A      1.446248   716A      1.456963   717A      1.457085  
     718A      1.457386   719A      1.464038   720A      1.464084  
     721A      1.472657   722A      1.474142   723A      1.484544  
     724A      1.484578   725A      1.492356   726A      1.492371  
     727A      1.499967   728A      1.503366   729A      1.503400  
     730A      1.505205   731A      1.514079   732A      1.515734  
     733A      1.516175   734A      1.516192   735A      1.519292  
     736A      1.519377   737A      1.523084   738A      1.529773  
     739A      1.529785   740A      1.531899   741A      1.532229  
     742A      1.544622   743A      1.544674   744A      1.553791  
     745A      1.553827   746A      1.577301   747A      1.577490  
     748A      1.599966   749A      1.599975   750A      1.606989  
     751A      1.610536   752A      1.610549   753A      1.635936  
     754A      1.645683   755A      1.656578   756A      1.656843  
     757A      1.659717   758A      1.678544   759A      1.683968  
     760A      1.689859   761A      1.690079   762A      1.695807  
     763A      1.700759   764A      1.700966   765A      1.711200  
     766A      1.711366   767A      1.713832   768A      1.717211  
     769A      1.717538   770A      1.721973   771A      1.722119  
     772A      1.726946   773A      1.726995   774A      1.728078  
     775A      1.730137   776A      1.731741   777A      1.735100  
     778A      1.735504   779A      1.743453   780A      1.743492  
     781A      1.749478   782A      1.757445   783A      1.757496  
     784A      1.761329   785A      1.765099   786A      1.765169  
     787A      1.765232   788A      1.774000   789A      1.774030  
     790A      1.777144   791A      1.778437   792A      1.780590  
     793A      1.780616   794A      1.783673   795A      1.791988  
     796A      1.792044   797A      1.797067   798A      1.797089  
     799A      1.824460   800A      1.832886   801A      1.835918  
     802A      1.838310   803A      1.841796   804A      1.841811  
     805A      1.858901   806A      1.858933   807A      1.862769  
     808A      1.874044   809A      1.874050   810A      1.896524  
     811A      1.897065   812A      1.897102   813A      1.906413  
     814A      1.906490   815A      1.912879   816A      1.912955  
     817A      1.924208   818A      1.926189   819A      1.927842  
     820A      1.932583   821A      1.940203   822A      1.940210  
     823A      1.943216   824A      1.946675   825A      1.950283  
     826A      1.950335   827A      1.960042   828A      1.961077  
     829A      1.961114   830A      1.979690   831A      1.979965  
     832A      1.980333   833A      1.982928   834A      1.983063  
     835A      1.990164   836A      1.990264   837A      2.000349  
     838A      2.000444   839A      2.001812   840A      2.001955  
     841A      2.002077   842A      2.005475   843A      2.005494  
     844A      2.015688   845A      2.022072   846A      2.022923  
     847A      2.023077   848A      2.023673   849A      2.023722  
     850A      2.038578   851A      2.038641   852A      2.039881  
     853A      2.039980   854A      2.040406   855A      2.055670  
     856A      2.056291   857A      2.056416   858A      2.070903  
     859A      2.071999   860A      2.072179   861A      2.077630  
     862A      2.078932   863A      2.079241   864A      2.079555  
     865A      2.088895   866A      2.089737   867A      2.094018  
     868A      2.094258   869A      2.104568   870A      2.111693  
     871A      2.112537   872A      2.113129   873A      2.113990  
     874A      2.116832   875A      2.117071   876A      2.127300  
     877A      2.127405   878A      2.133820   879A      2.145162  
     880A      2.145217   881A      2.145695   882A      2.146015  
     883A      2.152444   884A      2.155810   885A      2.155940  
     886A      2.156239   887A      2.162727   888A      2.162814  
     889A      2.167999   890A      2.173615   891A      2.173906  
     892A      2.174020   893A      2.174903   894A      2.178053  
     895A      2.180464   896A      2.180768   897A      2.182700  
     898A      2.184702   899A      2.184809   900A      2.187955  
     901A      2.190016   902A      2.191685   903A      2.191758  
     904A      2.196499   905A      2.196533   906A      2.199329  
     907A      2.202496   908A      2.202646   909A      2.205975  
     910A      2.206075   911A      2.213360   912A      2.213566  
     913A      2.215376   914A      2.216138   915A      2.220707  
     916A      2.220812   917A      2.224494   918A      2.224621  
     919A      2.237368   920A      2.237436   921A      2.243345  
     922A      2.248096   923A      2.248133   924A      2.258687  
     925A      2.259363   926A      2.259641   927A      2.265478  
     928A      2.265771   929A      2.271703   930A      2.276864  
     931A      2.276952   932A      2.277033   933A      2.279664  
     934A      2.291763   935A      2.291931   936A      2.301117  
     937A      2.302596   938A      2.307944   939A      2.307968  
     940A      2.308151   941A      2.319135   942A      2.321204  
     943A      2.321411   944A      2.325324   945A      2.325511  
     946A      2.326188   947A      2.333036   948A      2.334015  
     949A      2.334158   950A      2.336820   951A      2.336850  
     952A      2.351428   953A      2.351447   954A      2.353478  
     955A      2.353529   956A      2.358151   957A      2.374535  
     958A      2.375166   959A      2.380902   960A      2.387303  
     961A      2.400837   962A      2.401080   963A      2.412925  
     964A      2.423987   965A      2.426283   966A      2.432031  
     967A      2.432441   968A      2.436562   969A      2.436987  
     970A      2.438974   971A      2.453666   972A      2.453978  
     973A      2.462622   974A      2.469440   975A      2.469942  
     976A      2.484070   977A      2.496444   978A      2.506518  
     979A      2.507549   980A      2.507573   981A      2.516559  
     982A      2.536764   983A      2.537180   984A      2.553107  
     985A      2.567622   986A      2.567638   987A      2.573330  
     988A      2.573573   989A      2.585078   990A      2.604815  
     991A      2.614081   992A      2.616565   993A      2.628936  
     994A      2.628992   995A      2.631802   996A      2.631856  
     997A      2.634449   998A      2.642338   999A      2.643113  
    1000A      2.643126  1001A      2.646954  1002A      2.654421  
    1003A      2.654787  1004A      2.655842  1005A      2.655850  
    1006A      2.669172  1007A      2.672393  1008A      2.672674  
    1009A      2.673998  1010A      2.688749  1011A      2.702617  
    1012A      2.712959  1013A      2.713232  1014A      2.716890  
    1015A      2.717199  1016A      2.722873  1017A      2.723006  
    1018A      2.733615  1019A      2.733753  1020A      2.736777  
    1021A      2.755243  1022A      2.765077  1023A      2.769386  
    1024A      2.770266  1025A      2.774857  1026A      2.785561  
    1027A      2.785693  1028A      2.797633  1029A      2.797647  
    1030A      2.804219  1031A      2.804233  1032A      2.806342  
    1033A      2.806541  1034A      2.837630  1035A      2.838067  
    1036A      2.862234  1037A      2.880297  1038A      2.880668  
    1039A      2.881035  1040A      2.908691  1041A      2.912914  
    1042A      2.913874  1043A      2.936755  1044A      2.936932  
    1045A      2.943375  1046A      2.943499  1047A      2.944608  
    1048A      2.946769  1049A      2.981807  1050A      2.997351  
    1051A      2.997364  1052A      3.011863  1053A      3.016471  
    1054A      3.016508  1055A      3.035747  1056A      3.035819  
    1057A      3.044348  1058A      3.089523  1059A      3.089765  
    1060A      3.089945  1061A      3.117008  1062A      3.117371  
    1063A      3.130027  1064A      3.151119  1065A      3.151132  
    1066A      3.157717  1067A      3.157769  1068A      3.199090  
    1069A      3.199562  1070A      3.209306  1071A      3.214098  
    1072A      3.214365  1073A      3.218289  1074A      3.229592  
    1075A      3.229628  1076A      3.230521  1077A      3.230565  
    1078A      3.231464  1079A      3.242562  1080A      3.242678  
    1081A      3.248089  1082A      3.248528  1083A      3.270583  
    1084A      3.289494  1085A      3.294453  1086A      3.305994  
    1087A      3.349889  1088A      3.360505  1089A      3.361127  
    1090A      3.364680  1091A      3.374617  1092A      3.375227  
    1093A      3.496840  1094A      3.506417  1095A      3.506679  
    1096A      3.563620  1097A      3.573932  1098A      3.576038  
    1099A      3.664145  1100A      3.677083  1101A      3.678908  
    1102A      3.682553  1103A      3.712863  1104A      3.714593  
    1105A      3.753400  1106A      3.773782  1107A      3.853743  
    1108A      3.878860  1109A      3.879717  1110A      3.951965  
    1111A      3.951997  1112A      3.995768  1113A      3.995810  
    1114A      4.063436  1115A      4.097886  1116A      4.145903  
    1117A      4.154820  1118A      4.157701  1119A      4.183806  
    1120A      4.183811  1121A      4.185521  1122A      4.194855  
    1123A      4.194952  1124A      4.213403  1125A      4.214219  
    1126A      4.265613  1127A      4.266134  1128A      4.282377  
    1129A      4.309246  1130A      4.436775  1131A      4.436874  
    1132A      4.443349  1133A      4.638504  1134A      4.650545  
    1135A      4.650596  1136A      4.739141  1137A      4.769744  
    1138A      4.770086  

    Final Occupation by Irrep:
              A 
    DOCC [   192 ]
    NA   [   192 ]
    NB   [   192 ]

  @DF-RHF Final Energy: -2478.62778503544860

   => Energetics <=

    Nuclear Repulsion Energy =           7974.0476287463288827
    One-Electron Energy =              -19306.8648357252168353
    Two-Electron Energy =                8854.1894219434398110
    Total Energy =                      -2478.6277850354490511

Computation Completed


Properties will be evaluated at   0.000000,   0.000000,   0.000000 [a0]

Properties computed using the SCF density matrix


 Multipole Moments:

 ------------------------------------------------------------------------------------
     Multipole            Electronic (a.u.)      Nuclear  (a.u.)        Total (a.u.)
 ------------------------------------------------------------------------------------

 L = 1.  Multiply by 2.5417464519 to convert [e a0] to [Debye]
 Dipole X            :         -0.0004472            0.0000481           -0.0003991
 Dipole Y            :          0.0008413           -0.0001453            0.0006960
 Dipole Z            :        -16.6750032           20.8432895            4.1682863
 Magnitude           :                                                    4.1682864

 ------------------------------------------------------------------------------------

*** tstop() called on d-16-12-3 at Mon Jan 22 09:28:02 2024
Module time:
	user time   =    3974.82 seconds =      66.25 minutes
	system time =     117.75 seconds =       1.96 minutes
	total time  =        416 seconds =       6.93 minutes
Total time:
	user time   =    3974.82 seconds =      66.25 minutes
	system time =     117.75 seconds =       1.96 minutes
	total time  =        416 seconds =       6.93 minutes

  //>>>>>>>>>>>>>>>>>>>>>>>>>>>>>>>>>>>//
  //            Monomer A HF           //
  //<<<<<<<<<<<<<<<<<<<<<<<<<<<<<<<<<<<//

   => Libint2 <=

    Primary   basis highest AM E, G, H:  7, 7, 4
    Auxiliary basis highest AM E, G, H:  7, 7, 5
    Onebody   basis highest AM E, G, H:  7, 7, 5
    Solid Harmonics ordering:            gaussian

*** tstart() called on d-16-12-3
*** at Mon Jan 22 09:28:02 2024

   => Loading Basis Set <=

    Name: JUN-CC-PVDZ
    Role: ORBITAL
    Keyword: BASIS
    atoms 1     entry B          line   130 file /home/gridsan/tfroembgen/.conda/envs/psi4test/share/psi4/basis/jun-cc-pvdz.gbs 
    atoms 2-5   entry F          line   266 file /home/gridsan/tfroembgen/.conda/envs/psi4test/share/psi4/basis/jun-cc-pvdz.gbs 
    atoms 6-59  entry C          line   164 file /home/gridsan/tfroembgen/.conda/envs/psi4test/share/psi4/basis/jun-cc-pvdz.gbs 
    atoms 60-77 entry H          line    36 file /home/gridsan/tfroembgen/.conda/envs/psi4test/share/psi4/basis/jun-cc-pvdz.gbs 


         ---------------------------------------------------------
                                   SCF
               by Justin Turney, Rob Parrish, Andy Simmonett
                          and Daniel G. A. Smith
                              RHF Reference
                       12 Threads,  30517 MiB Core
         ---------------------------------------------------------

  ==> Geometry <==

    Molecular point group: c1
    Full point group: C1

    Geometry (in Angstrom), charge = -1, multiplicity = 1:

       Center              X                  Y                   Z               Mass       
    ------------   -----------------  -----------------  -----------------  -----------------
         B           -0.000198161052     0.000273808717    -3.007196918024    11.009305360000
         F           -0.000000401852    -0.000000464183    -1.594411918024    18.998403162730
         F            1.147859598148     0.675780735817    -3.478337918024    18.998403162730
         F            0.011917658148    -1.332011464183    -3.478135918024    18.998403162730
         F           -1.159666401852     0.656073035817    -3.478056918024    18.998403162730
      Gh(C)           1.225311973413     0.707538196736     0.398906709260    12.000000000000
      Gh(C)           1.225323934041    -0.707538986754     0.386575899690    12.000000000000
      Gh(C)          -0.000006075942     1.414965821907     0.386042276169    12.000000000000
      Gh(C)           2.456448831939     1.418327794995     0.401793566660    12.000000000000
      Gh(C)           0.000010905269    -1.414976590818     0.396241833493    12.000000000000
      Gh(C)          -1.225300870919     0.707545281801     0.401158229582    12.000000000000
      Gh(C)           2.456437833310    -1.418323396064     0.384330742833    12.000000000000
      Gh(C)          -0.000001254988     2.836800939098     0.383638726035    12.000000000000
      Gh(C)           3.681826775460     0.709317863818     0.384679532631    12.000000000000
      Gh(C)           2.455120126855     2.834223569306     0.384576975670    12.000000000000
      Gh(C)           3.681821183209    -0.709333931612     0.400752016649    12.000000000000
      Gh(C)          -1.225313520698    -0.707527607727     0.387648661117    12.000000000000
      Gh(C)           1.226699659192     3.543469391811     0.400936048580    12.000000000000
      Gh(C)           0.000004862847    -2.836782231419     0.401090001115    12.000000000000
      Gh(C)          -2.456435954859     1.418316826102     0.401193625428    12.000000000000
      Gh(C)           2.455123495769    -2.834230120772     0.400600108281    12.000000000000
      Gh(C)          -1.226714286599     3.543468971567     0.401039381799    12.000000000000
      Gh(C)           4.914517373191     1.427172780306     0.391160215660    12.000000000000
      Gh(C)           3.693150269466     3.542795200362     0.391210015296    12.000000000000
      Gh(C)          -2.456437522078    -1.418313373022     0.384305704708    12.000000000000
      Gh(C)           1.226704919933    -3.543474334090     0.384965917830    12.000000000000
      Gh(C)          -2.455125320518     2.834216570451     0.384583352016    12.000000000000
      Gh(C)           4.914524458772    -1.427187002127     0.394132958395    12.000000000000
      Gh(C)           1.221424691688     4.970133973077     0.394271392654    12.000000000000
      Gh(C)           4.893008307311     2.825187907843     0.392376884019    12.000000000000
      Gh(C)          -1.226696930499    -3.543471089260     0.385233122239    12.000000000000
      Gh(C)          -3.681818898536     0.709324874549     0.384692213111    12.000000000000
      Gh(C)           3.693147179140    -3.542801433574     0.394250848955    12.000000000000
      Gh(C)          -1.221432174004     4.970128205680     0.394454888027    12.000000000000
      Gh(C)           6.134771050916     0.680547854922     0.391929990210    12.000000000000
      Gh(C)           3.656788958600     4.972953151384     0.392118653079    12.000000000000
      Gh(C)          -2.455126829744    -2.834215185244     0.400355750483    12.000000000000
      Gh(C)          -3.681819101071    -0.709325795652     0.400869638228    12.000000000000
      Gh(C)           4.893012695903    -2.825200197815     0.392988035914    12.000000000000
      Gh(C)          -0.000000995123     5.650447273849     0.393223579320    12.000000000000
      Gh(C)           6.134775190322    -0.680554946258     0.393195310726    12.000000000000
      Gh(C)           2.478131560845     5.653576659148     0.393407432729    12.000000000000
      Gh(C)           1.221422482727    -4.970127147116     0.391471895632    12.000000000000
      Gh(C)          -3.693162305975     3.542796862009     0.391375522756    12.000000000000
      Gh(C)          -1.221428442955    -4.970118395779     0.391359133799    12.000000000000
      Gh(C)          -4.914521729952     1.427175354812     0.391237160668    12.000000000000
      Gh(C)           3.656787097669    -4.972955318422     0.393569153613    12.000000000000
      Gh(C)          -2.478138452116     5.653574330345     0.393691957737    12.000000000000
      Gh(C)          -3.693141660574    -3.542790311162     0.394134722800    12.000000000000
      Gh(C)          -4.914512405063    -1.427181092211     0.394167655568    12.000000000000
      Gh(C)          -0.000005930936    -5.650438379197     0.392828075199    12.000000000000
      Gh(C)          -4.893020406111     2.825188506736     0.392366802159    12.000000000000
      Gh(C)           2.478126071288    -5.653573636072     0.392478552821    12.000000000000
      Gh(C)          -3.656798632268     4.972956089858     0.392295333453    12.000000000000
      Gh(C)          -4.892999400866    -2.825191859243     0.392834000217    12.000000000000
      Gh(C)          -2.478128420093    -5.653566262190     0.392203365173    12.000000000000
      Gh(C)          -6.134770425341     0.680548674073     0.391904438508    12.000000000000
      Gh(C)          -3.656788755199    -4.972944115154     0.393354865796    12.000000000000
      Gh(C)          -6.134764964923    -0.680554007665     0.393174834931    12.000000000000
      Gh(H)           5.835288573806     3.369275802771     0.396736209682     1.007825032230
      Gh(H)           7.073859250737     1.228217156716     0.392391633603     1.007825032230
      Gh(H)           4.600663342164     5.512380710270     0.392623853831     1.007825032230
      Gh(H)           5.835283465295    -3.369306148912     0.388533568600     1.007825032230
      Gh(H)          -0.000012073316     6.738530581953     0.388874334312     1.007825032230
      Gh(H)           7.073861249820    -1.228227034927     0.392686572631     1.007825032230
      Gh(H)           2.473313809789     6.740684199211     0.392940711798     1.007825032230
      Gh(H)           4.600668569371    -5.512376221359     0.393159156445     1.007825032230
      Gh(H)          -2.473318602548     6.740681627423     0.393242058423     1.007825032230
      Gh(H)          -0.000010190238    -6.738528268635     0.397357760184     1.007825032230
      Gh(H)          -5.835301836354     3.369270858113     0.396872231830     1.007825032230
      Gh(H)           2.473308001821    -6.740685466612     0.393048883246     1.007825032230
      Gh(H)          -4.600674763218     5.512377934420     0.392789182155     1.007825032230
      Gh(H)          -5.835279428845    -3.369289055963     0.388254262719     1.007825032230
      Gh(H)          -2.473300269450    -6.740679170323     0.392599566701     1.007825032230
      Gh(H)          -7.073857688778     1.228220380657     0.392307642122     1.007825032230
      Gh(H)          -4.600673708095    -5.512362761970     0.392986848422     1.007825032230
      Gh(H)          -7.073856856419    -1.228220724160     0.392591716165     1.007825032230

  Running in c1 symmetry.

  Rotational constants: A =      0.00196  B =      0.00196  C =      0.00110 [cm^-1]
  Rotational constants: A =     58.82245  B =     58.81444  C =     33.02251 [MHz]
  Nuclear repulsion =  178.879455044809077

  Charge       = -1
  Multiplicity = 1
  Electrons    = 42
  Nalpha       = 21
  Nbeta        = 21

  ==> Algorithm <==

  SCF Algorithm Type is DF.
  DIIS enabled.
  MOM disabled.
  Fractional occupation disabled.
  Guess Type is SAD.
  Energy threshold   = 1.00e-08
  Density threshold  = 1.00e-08
  Integral threshold = 1.00e-12

  ==> Primary Basis <==

  Basis Set: JUN-CC-PVDZ
    Blend: JUN-CC-PVDZ
    Number of shells: 526
    Number of basis functions: 1152
    Number of Cartesian functions: 1211
    Spherical Harmonics?: true
    Max angular momentum: 2

   => Loading Basis Set <=

    Name: (JUN-CC-PVDZ AUX)
    Role: JKFIT
    Keyword: DF_BASIS_SCF
    atoms 1     entry B          line    90 file /home/gridsan/tfroembgen/.conda/envs/psi4test/share/psi4/basis/jun-cc-pvdz-jkfit.gbs 
    atoms 2-5   entry F          line   314 file /home/gridsan/tfroembgen/.conda/envs/psi4test/share/psi4/basis/jun-cc-pvdz-jkfit.gbs 
    atoms 6-59  entry C          line   146 file /home/gridsan/tfroembgen/.conda/envs/psi4test/share/psi4/basis/jun-cc-pvdz-jkfit.gbs 
    atoms 60-77 entry H          line    70 file /home/gridsan/tfroembgen/.conda/envs/psi4test/share/psi4/basis/jun-cc-pvdz-jkfit.gbs 

  ==> Integral Setup <==

  ==> DiskDFJK: Density-Fitted J/K Matrices <==

    J tasked:                  Yes
    K tasked:                  Yes
    wK tasked:                  No
    OpenMP threads:             12
    Integrals threads:          12
    Memory [MiB]:            22888
    Algorithm:                Core
    Integral Cache:           LOAD
    Schwarz Cutoff:          1E-12
    Fitting Condition:       1E-10

   => Auxiliary Basis Set <=

  Basis Set: (JUN-CC-PVDZ AUX)
    Blend: JUN-CC-PVDZ-JKFIT
    Number of shells: 1755
    Number of basis functions: 5075
    Number of Cartesian functions: 5819
    Spherical Harmonics?: true
    Max angular momentum: 3

  Minimum eigenvalue in the overlap matrix is 7.9844679330E-10.
  Reciprocal condition number of the overlap matrix is 3.3540071837E-11.
    Using canonical orthogonalization.
  Overall, 14 of 1152 possible MOs eliminated.


  ==> Pre-Iterations <==

  SCF Guess: Superposition of Atomic Densities via on-the-fly atomic UHF (no occupation information).

   -------------------------
    Irrep   Nso     Nmo    
   -------------------------
     A       1152    1138 
   -------------------------
    Total    1152    1138
   -------------------------

  ==> Iterations <==

                           Total Energy        Delta E     RMS |[F,P]|

   @DF-RHF iter SAD:  -421.23045401412162   -4.21230e+02   0.00000e+00 
   @DF-RHF iter   1:  -422.65207765341052   -1.42162e+00   5.30790e-04 DIIS/ADIIS
   @DF-RHF iter   2:  -422.73505534649036   -8.29777e-02   3.23976e-04 DIIS/ADIIS
   @DF-RHF iter   3:  -422.77351464255690   -3.84593e-02   1.75263e-05 DIIS
   @DF-RHF iter   4:  -422.77387793014088   -3.63288e-04   2.79836e-06 DIIS
   @DF-RHF iter   5:  -422.77388670906379   -8.77892e-06   7.36857e-07 DIIS
   @DF-RHF iter   6:  -422.77388731585404   -6.06790e-07   1.66604e-07 DIIS
   @DF-RHF iter   7:  -422.77388734013323   -2.42792e-08   5.37347e-08 DIIS
   @DF-RHF iter   8:  -422.77388734144984   -1.31661e-09   7.99593e-09 DIIS
  Energy and wave function converged.


  ==> Post-Iterations <==

    Orbital Energies [Eh]
    ---------------------

    Doubly Occupied:                                                      

       1A    -26.067464     2A    -26.067037     3A    -26.066943  
       4A    -26.066858     5A     -7.538341     6A     -1.410411  
       7A     -1.350983     8A     -1.350821     9A     -1.350355  
      10A     -0.601702    11A     -0.527972    12A     -0.527893  
      13A     -0.527848    14A     -0.446775    15A     -0.446733  
      16A     -0.408143    17A     -0.408074    18A     -0.407989  
      19A     -0.384754    20A     -0.384417    21A     -0.384354  

    Virtual:                                                              

      22A      0.092395    23A      0.092849    24A      0.092855  
      25A      0.099266    26A      0.099271    27A      0.110425  
      28A      0.111088    29A      0.125398    30A      0.126542  
      31A      0.126543    32A      0.135850    33A      0.135854  
      34A      0.144400    35A      0.144408    36A      0.147185  
      37A      0.149353    38A      0.149362    39A      0.151003  
      40A      0.151017    41A      0.161699    42A      0.161703  
      43A      0.162906    44A      0.165677    45A      0.165767  
      46A      0.170796    47A      0.173706    48A      0.178400  
      49A      0.178920    50A      0.181666    51A      0.183017  
      52A      0.183020    53A      0.189856    54A      0.189863  
      55A      0.190443    56A      0.190467    57A      0.196232  
      58A      0.196266    59A      0.202777    60A      0.202818  
      61A      0.202903    62A      0.205386    63A      0.205401  
      64A      0.206725    65A      0.206730    66A      0.208905  
      67A      0.214253    68A      0.214255    69A      0.216193  
      70A      0.216210    71A      0.220671    72A      0.224127  
      73A      0.224134    74A      0.225173    75A      0.225734  
      76A      0.234088    77A      0.234113    78A      0.235235  
      79A      0.236976    80A      0.236993    81A      0.237725  
      82A      0.237732    83A      0.243733    84A      0.246365  
      85A      0.246370    86A      0.247206    87A      0.249109  
      88A      0.250614    89A      0.258456    90A      0.258479  
      91A      0.258609    92A      0.261114    93A      0.265218  
      94A      0.270446    95A      0.270448    96A      0.271011  
      97A      0.274035    98A      0.275754    99A      0.275770  
     100A      0.279851   101A      0.279860   102A      0.282647  
     103A      0.282657   104A      0.285021   105A      0.285032  
     106A      0.286016   107A      0.289359   108A      0.289363  
     109A      0.295273   110A      0.295975   111A      0.301548  
     112A      0.301561   113A      0.304923   114A      0.304930  
     115A      0.310511   116A      0.310530   117A      0.311723  
     118A      0.311841   119A      0.311881   120A      0.313176  
     121A      0.317270   122A      0.321903   123A      0.326486  
     124A      0.326496   125A      0.327997   126A      0.328179  
     127A      0.328195   128A      0.330865   129A      0.330869  
     130A      0.337717   131A      0.337740   132A      0.338865  
     133A      0.343169   134A      0.343192   135A      0.349143  
     136A      0.349174   137A      0.349911   138A      0.354089  
     139A      0.354925   140A      0.355000   141A      0.355139  
     142A      0.358148   143A      0.358153   144A      0.361054  
     145A      0.361064   146A      0.364933   147A      0.372012  
     148A      0.374244   149A      0.383083   150A      0.386801  
     151A      0.386816   152A      0.388393   153A      0.389222  
     154A      0.389300   155A      0.394550   156A      0.394588  
     157A      0.396767   158A      0.403435   159A      0.403441  
     160A      0.403596   161A      0.406169   162A      0.409656  
     163A      0.409657   164A      0.411726   165A      0.411774  
     166A      0.413524   167A      0.416088   168A      0.424041  
     169A      0.426049   170A      0.426148   171A      0.432124  
     172A      0.432141   173A      0.433086   174A      0.437815  
     175A      0.437848   176A      0.439432   177A      0.442906  
     178A      0.443440   179A      0.443508   180A      0.445387  
     181A      0.445441   182A      0.446861   183A      0.448159  
     184A      0.448248   185A      0.454457   186A      0.454575  
     187A      0.454759   188A      0.460040   189A      0.462916  
     190A      0.463530   191A      0.463595   192A      0.465808  
     193A      0.465885   194A      0.470364   195A      0.470391  
     196A      0.479121   197A      0.479206   198A      0.483214  
     199A      0.483284   200A      0.490581   201A      0.490617  
     202A      0.491922   203A      0.496618   204A      0.499201  
     205A      0.499246   206A      0.500017   207A      0.505076  
     208A      0.505970   209A      0.510152   210A      0.510186  
     211A      0.515069   212A      0.515434   213A      0.515477  
     214A      0.518661   215A      0.518714   216A      0.519805  
     217A      0.520891   218A      0.520912   219A      0.521619  
     220A      0.527148   221A      0.527177   222A      0.530759  
     223A      0.530807   224A      0.530881   225A      0.533754  
     226A      0.534838   227A      0.534983   228A      0.535620  
     229A      0.550315   230A      0.550670   231A      0.552884  
     232A      0.553008   233A      0.553091   234A      0.557429  
     235A      0.562716   236A      0.562750   237A      0.564558  
     238A      0.565509   239A      0.565758   240A      0.566472  
     241A      0.567923   242A      0.567953   243A      0.570931  
     244A      0.570967   245A      0.578984   246A      0.579535  
     247A      0.586443   248A      0.586470   249A      0.588360  
     250A      0.591466   251A      0.591885   252A      0.591933  
     253A      0.598736   254A      0.599931   255A      0.600032  
     256A      0.606194   257A      0.606307   258A      0.607780  
     259A      0.610104   260A      0.610559   261A      0.610654  
     262A      0.610950   263A      0.611284   264A      0.611379  
     265A      0.618516   266A      0.619029   267A      0.632775  
     268A      0.632841   269A      0.635238   270A      0.640511  
     271A      0.640565   272A      0.641497   273A      0.646710  
     274A      0.646762   275A      0.649334   276A      0.649369  
     277A      0.658050   278A      0.658103   279A      0.658273  
     280A      0.661205   281A      0.661212   282A      0.664674  
     283A      0.664694   284A      0.676990   285A      0.677043  
     286A      0.677551   287A      0.677580   288A      0.679233  
     289A      0.688239   290A      0.688321   291A      0.688411  
     292A      0.693349   293A      0.693812   294A      0.693834  
     295A      0.696444   296A      0.696465   297A      0.702907  
     298A      0.702948   299A      0.704454   300A      0.708263  
     301A      0.711327   302A      0.711384   303A      0.717293  
     304A      0.718546   305A      0.718577   306A      0.724428  
     307A      0.727995   308A      0.729986   309A      0.733540  
     310A      0.737100   311A      0.737149   312A      0.741113  
     313A      0.741149   314A      0.743060   315A      0.747757  
     316A      0.747770   317A      0.749172   318A      0.755511  
     319A      0.761443   320A      0.761507   321A      0.764873  
     322A      0.764915   323A      0.766072   324A      0.769242  
     325A      0.774990   326A      0.775052   327A      0.780428  
     328A      0.782535   329A      0.782578   330A      0.783455  
     331A      0.789515   332A      0.791102   333A      0.791144  
     334A      0.794604   335A      0.794660   336A      0.807174  
     337A      0.807234   338A      0.815363   339A      0.815457  
     340A      0.823382   341A      0.823414   342A      0.825754  
     343A      0.826771   344A      0.828230   345A      0.828303  
     346A      0.829681   347A      0.838849   348A      0.843174  
     349A      0.843184   350A      0.847669   351A      0.847773  
     352A      0.854179   353A      0.854257   354A      0.856927  
     355A      0.860520   356A      0.860528   357A      0.866566  
     358A      0.875249   359A      0.876660   360A      0.876713  
     361A      0.878192   362A      0.878986   363A      0.879044  
     364A      0.880687   365A      0.884568   366A      0.888445  
     367A      0.888462   368A      0.892793   369A      0.893672  
     370A      0.896876   371A      0.896921   372A      0.897900  
     373A      0.897922   374A      0.914633   375A      0.915102  
     376A      0.915121   377A      0.919072   378A      0.934767  
     379A      0.934774   380A      0.938391   381A      0.954968  
     382A      0.955135   383A      0.961872   384A      0.967110  
     385A      0.968997   386A      0.969029   387A      0.984876  
     388A      0.984910   389A      0.986252   390A      0.986277  
     391A      0.987793   392A      0.989791   393A      0.992468  
     394A      0.992657   395A      1.000294   396A      1.000394  
     397A      1.029845   398A      1.030928   399A      1.030998  
     400A      1.043966   401A      1.044018   402A      1.049363  
     403A      1.054748   404A      1.054772   405A      1.062486  
     406A      1.062546   407A      1.062954   408A      1.065436  
     409A      1.072838   410A      1.072850   411A      1.092688  
     412A      1.102692   413A      1.106347   414A      1.133999  
     415A      1.137140   416A      1.137167   417A      1.146920  
     418A      1.146928   419A      1.149450   420A      1.154446  
     421A      1.154473   422A      1.166099   423A      1.166126  
     424A      1.183706   425A      1.183726   426A      1.185714  
     427A      1.199301   428A      1.247865   429A      1.254725  
     430A      1.254836   431A      1.257466   432A      1.257497  
     433A      1.264702   434A      1.264716   435A      1.281244  
     436A      1.289835   437A      1.289868   438A      1.312624  
     439A      1.312631   440A      1.319458   441A      1.326888  
     442A      1.331106   443A      1.386469   444A      1.396308  
     445A      1.396315   446A      1.398653   447A      1.398698  
     448A      1.405207   449A      1.411291   450A      1.411395  
     451A      1.417775   452A      1.417913   453A      1.425209  
     454A      1.433417   455A      1.447640   456A      1.467009  
     457A      1.467082   458A      1.528702   459A      1.553961  
     460A      1.554128   461A      1.564977   462A      1.565020  
     463A      1.572065   464A      1.573193   465A      1.573629  
     466A      1.584331   467A      1.585025   468A      1.612883  
     469A      1.640451   470A      1.650441   471A      1.650843  
     472A      1.650938   473A      1.659901   474A      1.660074  
     475A      1.674385   476A      1.682303   477A      1.684604  
     478A      1.684653   479A      1.736472   480A      1.737513  
     481A      1.743418   482A      1.757869   483A      1.766711  
     484A      1.766845   485A      1.778941   486A      1.782511  
     487A      1.782680   488A      1.801060   489A      1.810519  
     490A      1.810740   491A      1.818295   492A      1.834638  
     493A      1.836642   494A      1.837065   495A      1.837898  
     496A      1.839093   497A      1.845239   498A      1.845414  
     499A      1.855153   500A      1.862847   501A      1.865690  
     502A      1.865750   503A      1.877852   504A      1.879782  
     505A      1.881061   506A      1.887489   507A      1.888566  
     508A      1.910047   509A      1.914641   510A      1.917907  
     511A      1.918833   512A      1.919190   513A      1.919412  
     514A      1.925187   515A      1.925462   516A      1.929408  
     517A      1.931764   518A      1.931822   519A      1.936071  
     520A      1.938438   521A      1.938576   522A      1.946824  
     523A      1.947904   524A      1.953359   525A      1.964612  
     526A      1.971068   527A      1.974005   528A      1.977595  
     529A      1.977647   530A      1.979630   531A      1.980193  
     532A      1.982577   533A      1.982829   534A      1.987627  
     535A      1.999719   536A      2.001215   537A      2.004734  
     538A      2.005006   539A      2.013289   540A      2.015003  
     541A      2.015715   542A      2.016575   543A      2.018995  
     544A      2.019284   545A      2.028570   546A      2.028824  
     547A      2.031999   548A      2.036022   549A      2.040671  
     550A      2.040762   551A      2.062626   552A      2.062674  
     553A      2.063825   554A      2.067109   555A      2.067257  
     556A      2.071540   557A      2.072033   558A      2.076822  
     559A      2.077450   560A      2.083951   561A      2.084455  
     562A      2.084775   563A      2.089633   564A      2.089882  
     565A      2.092576   566A      2.092925   567A      2.094001  
     568A      2.094990   569A      2.097881   570A      2.114043  
     571A      2.114155   572A      2.121983   573A      2.122273  
     574A      2.141236   575A      2.141573   576A      2.165582  
     577A      2.165627   578A      2.166242   579A      2.169414  
     580A      2.174711   581A      2.176996   582A      2.177066  
     583A      2.183320   584A      2.187873   585A      2.188224  
     586A      2.193845   587A      2.201265   588A      2.201285  
     589A      2.204399   590A      2.206681   591A      2.217652  
     592A      2.217919   593A      2.221359   594A      2.222853  
     595A      2.222875   596A      2.224640   597A      2.224696  
     598A      2.229432   599A      2.235584   600A      2.236394  
     601A      2.236420   602A      2.236937   603A      2.236967  
     604A      2.240025   605A      2.240496   606A      2.245733  
     607A      2.245821   608A      2.247464   609A      2.249934  
     610A      2.249966   611A      2.250615   612A      2.251536  
     613A      2.253757   614A      2.253795   615A      2.257778  
     616A      2.257853   617A      2.259880   618A      2.263044  
     619A      2.263128   620A      2.266105   621A      2.266193  
     622A      2.268095   623A      2.274281   624A      2.277125  
     625A      2.277206   626A      2.278595   627A      2.278709  
     628A      2.285578   629A      2.285627   630A      2.286646  
     631A      2.291393   632A      2.293583   633A      2.293739  
     634A      2.301406   635A      2.310501   636A      2.310634  
     637A      2.323220   638A      2.328342   639A      2.328451  
     640A      2.330366   641A      2.340113   642A      2.342695  
     643A      2.342846   644A      2.344152   645A      2.344188  
     646A      2.352455   647A      2.352523   648A      2.361631  
     649A      2.361771   650A      2.367113   651A      2.367962  
     652A      2.368100   653A      2.371031   654A      2.371145  
     655A      2.379096   656A      2.379131   657A      2.381859  
     658A      2.382002   659A      2.389364   660A      2.391839  
     661A      2.391864   662A      2.397415   663A      2.400514  
     664A      2.400640   665A      2.414934   666A      2.422315  
     667A      2.422495   668A      2.426364   669A      2.427693  
     670A      2.444725   671A      2.444746   672A      2.446815  
     673A      2.446864   674A      2.450378   675A      2.452453  
     676A      2.454571   677A      2.461492   678A      2.461548  
     679A      2.469363   680A      2.469474   681A      2.470010  
     682A      2.471847   683A      2.472353   684A      2.472387  
     685A      2.479445   686A      2.487164   687A      2.487315  
     688A      2.487391   689A      2.492318   690A      2.494507  
     691A      2.494579   692A      2.503795   693A      2.503848  
     694A      2.513183   695A      2.517867   696A      2.517880  
     697A      2.518282   698A      2.537867   699A      2.537875  
     700A      2.541707   701A      2.551759   702A      2.551959  
     703A      2.555280   704A      2.555462   705A      2.558406  
     706A      2.560055   707A      2.560130   708A      2.568333  
     709A      2.572465   710A      2.573344   711A      2.574031  
     712A      2.574067   713A      2.581701   714A      2.586263  
     715A      2.586350   716A      2.594802   717A      2.594830  
     718A      2.604356   719A      2.604886   720A      2.604921  
     721A      2.614420   722A      2.617510   723A      2.623606  
     724A      2.633077   725A      2.637804   726A      2.637859  
     727A      2.646662   728A      2.646705   729A      2.650418  
     730A      2.650692   731A      2.654312   732A      2.658945  
     733A      2.662210   734A      2.666084   735A      2.669532  
     736A      2.669605   737A      2.674170   738A      2.674270  
     739A      2.696995   740A      2.697051   741A      2.710649  
     742A      2.715567   743A      2.715583   744A      2.720408  
     745A      2.720668   746A      2.722479   747A      2.723664  
     748A      2.723691   749A      2.727874   750A      2.737141  
     751A      2.737353   752A      2.744066   753A      2.745808  
     754A      2.749246   755A      2.749428   756A      2.761426  
     757A      2.761669   758A      2.772503   759A      2.772916  
     760A      2.780705   761A      2.780797   762A      2.790334  
     763A      2.790936   764A      2.793721   765A      2.793733  
     766A      2.796291   767A      2.798942   768A      2.803515  
     769A      2.807969   770A      2.808122   771A      2.812431  
     772A      2.812623   773A      2.813778   774A      2.827222  
     775A      2.827562   776A      2.832062   777A      2.840841  
     778A      2.842020   779A      2.842176   780A      2.847952  
     781A      2.852005   782A      2.852106   783A      2.860869  
     784A      2.865172   785A      2.865303   786A      2.883847  
[...]
     721A      1.442776   722A      1.443089   723A      1.443172  
     724A      1.449697   725A      1.450300   726A      1.450342  
     727A      1.450918   728A      1.450998   729A      1.454272  
     730A      1.454433   731A      1.461965   732A      1.462029  
     733A      1.475665   734A      1.475690   735A      1.488523  
     736A      1.488651   737A      1.517873   738A      1.517911  
     739A      1.533105   740A      1.552474   741A      1.556795  
     742A      1.556898   743A      1.579071   744A      1.591305  
     745A      1.600034   746A      1.600751   747A      1.609710  
     748A      1.610539   749A      1.610723   750A      1.615726  
     751A      1.615834   752A      1.623388   753A      1.629315  
     754A      1.629425   755A      1.639780   756A      1.640056  
     757A      1.643248   758A      1.643304   759A      1.643672  
     760A      1.643723   761A      1.647236   762A      1.661233  
     763A      1.661273   764A      1.668029   765A      1.668502  
     766A      1.668536   767A      1.677315   768A      1.677663  
     769A      1.677800   770A      1.678349   771A      1.678546  
     772A      1.678862   773A      1.687104   774A      1.687192  
     775A      1.693334   776A      1.696260   777A      1.699108  
     778A      1.699204   779A      1.701375   780A      1.702563  
     781A      1.702578   782A      1.712881   783A      1.712935  
     784A      1.730699   785A      1.730723   786A      1.741931  
     787A      1.751729   788A      1.751863   789A      1.760234  
     790A      1.761194   791A      1.764306   792A      1.764332  
     793A      1.778910   794A      1.778946   795A      1.788157  
     796A      1.788198   797A      1.806858   798A      1.816461  
     799A      1.816682   800A      1.817476   801A      1.817519  
     802A      1.818996   803A      1.836548   804A      1.836587  
     805A      1.841136   806A      1.842557   807A      1.851189  
     808A      1.851312   809A      1.852843   810A      1.853076  
     811A      1.862117   812A      1.862187   813A      1.862723  
     814A      1.865247   815A      1.875080   816A      1.875132  
     817A      1.883828   818A      1.883922   819A      1.886534  
     820A      1.898623   821A      1.899402   822A      1.899525  
     823A      1.910136   824A      1.910339   825A      1.915132  
     826A      1.915270   827A      1.915384   828A      1.918464  
     829A      1.918577   830A      1.919576   831A      1.924361  
     832A      1.924500   833A      1.938251   834A      1.938417  
     835A      1.940891   836A      1.942896   837A      1.944714  
     838A      1.944770   839A      1.948363   840A      1.948370  
     841A      1.956489   842A      1.956568   843A      1.958219  
     844A      1.983465   845A      1.985746   846A      1.986047  
     847A      1.986597   848A      1.986700   849A      1.997306  
     850A      1.999421   851A      1.999469   852A      1.999526  
     853A      2.008962   854A      2.014094   855A      2.014155  
     856A      2.027273   857A      2.028415   858A      2.031819  
     859A      2.032299   860A      2.032594   861A      2.035315  
     862A      2.040658   863A      2.040779   864A      2.048929  
     865A      2.054333   866A      2.054342   867A      2.063203  
     868A      2.063450   869A      2.071037   870A      2.074369  
     871A      2.074683   872A      2.077224   873A      2.077899  
     874A      2.077931   875A      2.086327   876A      2.086631  
     877A      2.088254   878A      2.093159   879A      2.097439  
     880A      2.097578   881A      2.100699   882A      2.100982  
     883A      2.101575   884A      2.103265   885A      2.103360  
     886A      2.110746   887A      2.112536   888A      2.112583  
     889A      2.112713   890A      2.115314   891A      2.115367  
     892A      2.121711   893A      2.121837   894A      2.127517  
     895A      2.127628   896A      2.134623   897A      2.134706  
     898A      2.134753   899A      2.134860   900A      2.139130  
     901A      2.139201   902A      2.146820   903A      2.146899  
     904A      2.162152   905A      2.163260   906A      2.163295  
     907A      2.165075   908A      2.165124   909A      2.172333  
     910A      2.179789   911A      2.179900   912A      2.182992  
     913A      2.192706   914A      2.193118   915A      2.193237  
     916A      2.196356   917A      2.207759   918A      2.216427  
     919A      2.216436   920A      2.219900   921A      2.221012  
     922A      2.221060   923A      2.228887   924A      2.229963  
     925A      2.241911   926A      2.242183   927A      2.245064  
     928A      2.245359   929A      2.248007   930A      2.248103  
     931A      2.248377   932A      2.262723   933A      2.262872  
     934A      2.270707   935A      2.270733   936A      2.273189  
     937A      2.273240   938A      2.281186   939A      2.293927  
     940A      2.300750   941A      2.306826   942A      2.317914  
     943A      2.318402   944A      2.330197   945A      2.340169  
     946A      2.341654   947A      2.343562   948A      2.344020  
     949A      2.351792   950A      2.352365   951A      2.358963  
     952A      2.359114   953A      2.360149   954A      2.370903  
     955A      2.371389   956A      2.375191   957A      2.403412  
     958A      2.416666   959A      2.424236   960A      2.424709  
     961A      2.424731   962A      2.436613   963A      2.450549  
     964A      2.450898   965A      2.470574   966A      2.480656  
     967A      2.480802   968A      2.488886   969A      2.488904  
     970A      2.502685   971A      2.523370   972A      2.531048  
     973A      2.543942   974A      2.548628   975A      2.548656  
     976A      2.554851   977A      2.554888   978A      2.555118  
     979A      2.555902   980A      2.560953   981A      2.560963  
     982A      2.573304   983A      2.573333   984A      2.577239  
     985A      2.577647   986A      2.589024   987A      2.589075  
     988A      2.590821   989A      2.591778   990A      2.600155  
     991A      2.609128   992A      2.629937   993A      2.630074  
     994A      2.633501   995A      2.633858   996A      2.643110  
     997A      2.643209   998A      2.654726   999A      2.654972  
    1000A      2.656748  1001A      2.657023  1002A      2.684301  
    1003A      2.686544  1004A      2.687484  1005A      2.698208  
    1006A      2.702979  1007A      2.703107  1008A      2.713382  
    1009A      2.713397  1010A      2.720752  1011A      2.720786  
    1012A      2.724255  1013A      2.724448  1014A      2.756178  
    1015A      2.756601  1016A      2.777753  1017A      2.795175  
    1018A      2.795279  1019A      2.800952  1020A      2.827323  
    1021A      2.827888  1022A      2.829855  1023A      2.853420  
    1024A      2.853633  1025A      2.856414  1026A      2.858634  
    1027A      2.860012  1028A      2.860329  1029A      2.865992  
    1030A      2.866272  1031A      2.905253  1032A      2.920686  
    1033A      2.920710  1034A      2.937004  1035A      2.937044  
    1036A      2.937647  1037A      2.955767  1038A      2.955810  
    1039A      2.964172  1040A      3.002287  1041A      3.012180  
    1042A      3.012962  1043A      3.013169  1044A      3.051850  
    1045A      3.064782  1046A      3.064802  1047A      3.073311  
    1048A      3.073371  1049A      3.119212  1050A      3.119679  
    1051A      3.131808  1052A      3.132568  1053A      3.132843  
    1054A      3.137784  1055A      3.148916  1056A      3.148923  
    1057A      3.150271  1058A      3.150295  1059A      3.151529  
    1060A      3.163323  1061A      3.163685  1062A      3.167294  
    1063A      3.167963  1064A      3.192015  1065A      3.211269  
    1066A      3.223451  1067A      3.248960  1068A      3.278634  
    1069A      3.279183  1070A      3.280289  1071A      3.291575  
    1072A      3.292172  1073A      3.420892  1074A      3.421165  
    1075A      3.449777  1076A      3.486315  1077A      3.488529  
    1078A      3.564276  1079A      3.590972  1080A      3.592830  
    1081A      3.596080  1082A      3.629897  1083A      3.631647  
    1084A      3.669898  1085A      3.687765  1086A      3.770021  
    1087A      3.792382  1088A      3.793114  1089A      3.871325  
    1090A      3.871348  1091A      3.914993  1092A      3.915019  
    1093A      3.977261  1094A      4.012046  1095A      4.055277  
    1096A      4.066325  1097A      4.192572  1098A      4.344097  
    1099A      4.344229  1100A      4.456598  1101A      4.651859  
    1102A      5.756229  1103A      5.766286  1104A      5.766302  
    1105A      5.766956  1106A      5.780186  1107A      5.780222  
    1108A      5.793930  1109A      5.794371  1110A      5.842499  
    1111A      5.842759  1112A      5.852049  1113A      6.028815  
    1114A      6.039687  1115A      6.039785  1116A      6.213358  
    1117A      6.338700  1118A      6.339033  1119A      6.391946  
    1120A      6.392279  1121A      6.399398  1122A      7.304062  
    1123A      7.304088  1124A      7.304189  1125A      7.386371  
    1126A      7.386570  1127A      7.395339  1128A      7.553021  
    1129A      7.553150  1130A      7.654906  1131A      7.655110  
    1132A      7.715315  1133A      7.958214  1134A     12.787523  
    1135A     42.941934  1136A     42.942011  1137A     42.960615  
    1138A     42.991660  

    Final Occupation by Irrep:
              A 
    DOCC [   171 ]
    NA   [   171 ]
    NB   [   171 ]

  @DF-RHF Final Energy: -2055.89389687028824

   => Energetics <=

    Nuclear Repulsion Energy =           6452.5568002797772351
    One-Electron Energy =              -15636.4867480939465167
    Two-Electron Energy =                7128.0360509438814915
    Total Energy =                      -2055.8938968702877901

Computation Completed


Properties will be evaluated at   0.000000,   0.000000,   0.000000 [a0]

Properties computed using the SCF density matrix


 Multipole Moments:

 ------------------------------------------------------------------------------------
     Multipole            Electronic (a.u.)      Nuclear  (a.u.)        Total (a.u.)
 ------------------------------------------------------------------------------------

 L = 1.  Multiply by 2.5417464519 to convert [e a0] to [Debye]
 Dipole X            :          0.0000224            0.0000419            0.0000643
 Dipole Y            :          0.0000609           -0.0000426            0.0000184
 Dipole Z            :       -253.8388617          253.8398475            0.0009858
 Magnitude           :                                                    0.0009881

 ------------------------------------------------------------------------------------

*** tstop() called on d-16-12-3 at Mon Jan 22 09:34:42 2024
Module time:
	user time   =    2537.82 seconds =      42.30 minutes
	system time =      38.70 seconds =       0.64 minutes
	total time  =        256 seconds =       4.27 minutes
Total time:
	user time   =    7731.77 seconds =     128.86 minutes
	system time =     173.47 seconds =       2.89 minutes
	total time  =        816 seconds =      13.60 minutes
  Constructing Basis Sets for SAPT...

   => Loading Basis Set <=

    Name: (JUN-CC-PVDZ AUX)
    Role: RIFIT
    Keyword: DF_BASIS_SAPT
    atoms 1     entry B          line    56 file /home/gridsan/tfroembgen/.conda/envs/psi4test/share/psi4/basis/jun-cc-pvdz-ri.gbs 
    atoms 2-5   entry F          line   232 file /home/gridsan/tfroembgen/.conda/envs/psi4test/share/psi4/basis/jun-cc-pvdz-ri.gbs 
    atoms 6-59  entry C          line   100 file /home/gridsan/tfroembgen/.conda/envs/psi4test/share/psi4/basis/jun-cc-pvdz-ri.gbs 
    atoms 60-77 entry H          line    30 file /home/gridsan/tfroembgen/.conda/envs/psi4test/share/psi4/basis/jun-cc-pvdz-ri.gbs 

   => Loading Basis Set <=

    Name: (JUN-CC-PVDZ AUX)
    Role: JKFIT
    Keyword: DF_BASIS_ELST
    atoms 1     entry B          line    90 file /home/gridsan/tfroembgen/.conda/envs/psi4test/share/psi4/basis/jun-cc-pvdz-jkfit.gbs 
    atoms 2-5   entry F          line   314 file /home/gridsan/tfroembgen/.conda/envs/psi4test/share/psi4/basis/jun-cc-pvdz-jkfit.gbs 
    atoms 6-59  entry C          line   146 file /home/gridsan/tfroembgen/.conda/envs/psi4test/share/psi4/basis/jun-cc-pvdz-jkfit.gbs 
    atoms 60-77 entry H          line    70 file /home/gridsan/tfroembgen/.conda/envs/psi4test/share/psi4/basis/jun-cc-pvdz-jkfit.gbs 


  //>>>>>>>>>>>>>>>>>>>>>>>>>>>>>>>>>>>//
  //               SSAPT0              //
  //<<<<<<<<<<<<<<<<<<<<<<<<<<<<<<<<<<<//


*** tstart() called on d-16-12-3
*** at Mon Jan 22 09:34:43 2024

        SAPT0  
    Ed Hohenstein
     6 June 2009

      Orbital Information
  --------------------------
    NSO        =      1152
    NMO        =      1138
    NRI        =      4087
    NRI (Elst) =      5075
    NOCC A     =        21
    NOCC B     =       171
    FOCC A     =         5
    FOCC B     =        54
    NVIR A     =      1117
    NVIR B     =       967

    Elst10,r            =    -0.021107730155 [Eh]
    Exch10              =     0.084375199974 [Eh]
    Exch10 (S^2)        =     0.083657789459 [Eh]

    Iter     Energy [mEh]          dE [mEh]         Residual      Time [s]
       1     -11.75378978      11.753789785      23.554742238           213
       2     -14.30346433       2.549674541      10.734814290           323
       3     -15.03074329       0.727278959       1.456685739           342
       4     -14.99872387      -0.032019415       0.453375904           358
       5     -14.99003717      -0.008686703       0.095889114           370
       6     -14.99071756       0.000680395       0.028880118           385
       7     -14.99136342       0.000645859       0.005305433           399
       8     -14.99127385      -0.000089571       0.001067433           419
       9     -14.99127644       0.000002589       0.000167936           441
      10     -14.99127808       0.000001635       0.000025671           457
      11     -14.99127776      -0.000000311       0.000005601           472
      12     -14.99127780       0.000000032       0.000001549           485
      13     -14.99127780       0.000000008       0.000000473           500

    CHF Iterations converged


    Iter     Energy [mEh]          dE [mEh]         Residual      Time [s]
       1     -42.81537349      42.815373490      92.859855543           208
       2     -33.81786250      -8.997510987      13.914847154           441
       3     -34.71560923       0.897746726       5.465184594           460
       4     -35.49820569       0.782596462       1.087472950           478
       5     -35.50502008       0.006814385       0.378472434           497
       6     -35.47405196      -0.030968111       0.135583894           515
       7     -35.47544262       0.001390660       0.061516391           535
       8     -35.47916796       0.003725335       0.022357058           554
       9     -35.47874830      -0.000419658       0.014877881           571
      10     -35.47820126      -0.000547041       0.010629038           589
      11     -35.47834237       0.000141109       0.005808021           613
      12     -35.47848912       0.000146754       0.002637523           640
      13     -35.47846800      -0.000021119       0.000880653           661
      14     -35.47844721      -0.000020789       0.000310338           689
      15     -35.47844469      -0.000002520       0.000096974           713
      16     -35.47844760       0.000002903       0.000046599           735
      17     -35.47844770       0.000000099       0.000024832           753
      18     -35.47844728      -0.000000416       0.000009702           775
      19     -35.47844712      -0.000000161       0.000003446           793
      20     -35.47844718       0.000000062       0.000001551           815
      21     -35.47844720       0.000000021       0.000000985           835

    CHF Iterations converged

    Ind20,r (A<-B)      =    -0.014991277805 [Eh]
    Ind20,r (B<-A)      =    -0.035478447203 [Eh]
    Ind20,r             =    -0.050469725008 [Eh]
    Exch-Ind20,r (A<-B) =     0.013702777931 [Eh]
    Exch-Ind20,r (B<-A) =     0.016580848053 [Eh]
    Exch-Ind20,r        =     0.030283625983 [Eh]
    Disp20              =    -0.027017283750 [Eh]
    Disp20 (SS)         =    -0.013508641875 [Eh]
    Disp20 (OS)         =    -0.013508641875 [Eh]
    Exch-Disp20         =     0.006963360316 [Eh]
    Exch-Disp20 (SS)    =     0.003766776911 [Eh]
    Exch-Disp20 (OS)    =     0.003196583405 [Eh]

    SAPT Results 
  --------------------------------------------------------------------------------------------------------
    Electrostatics                -21.10773016 [mEh]     -13.24530064 [kcal/mol]     -55.41833789 [kJ/mol]
      Elst10,r                    -21.10773016 [mEh]     -13.24530064 [kcal/mol]     -55.41833789 [kJ/mol]

    Exchange                       84.37519997 [mEh]      52.94623734 [kcal/mol]     221.52705701 [kJ/mol]
      Exch10                       84.37519997 [mEh]      52.94623734 [kcal/mol]     221.52705701 [kJ/mol]
      Exch10(S^2)                  83.65778946 [mEh]      52.49605544 [kcal/mol]     219.64349596 [kJ/mol]

    Induction                     -23.26829353 [mEh]     -14.60107463 [kcal/mol]     -61.09089625 [kJ/mol]
      Ind20,r                     -50.46972501 [mEh]     -31.67023058 [kcal/mol]    -132.50824475 [kJ/mol]
      Exch-Ind20,r                 30.28362598 [mEh]      19.00326220 [kcal/mol]      79.50964907 [kJ/mol]
      delta HF,r (2)               -3.08219451 [mEh]      -1.93410625 [kcal/mol]      -8.09230056 [kJ/mol]

    Dispersion                    -20.05392343 [mEh]     -12.58402694 [kcal/mol]     -52.65156872 [kJ/mol]
      Disp20                      -27.01728375 [mEh]     -16.95360151 [kcal/mol]     -70.93386871 [kJ/mol]
      Exch-Disp20                   6.96336032 [mEh]       4.36957457 [kcal/mol]      18.28229999 [kJ/mol]
      Disp20 (SS)                 -13.50864187 [mEh]      -8.47680075 [kcal/mol]     -35.46693436 [kJ/mol]
      Disp20 (OS)                 -13.50864187 [mEh]      -8.47680075 [kcal/mol]     -35.46693436 [kJ/mol]
      Exch-Disp20 (SS)              3.76677691 [mEh]       2.36368820 [kcal/mol]       9.88967142 [kJ/mol]
      Exch-Disp20 (OS)              3.19658341 [mEh]       2.00588637 [kcal/mol]       8.39262857 [kJ/mol]

  Total HF                         39.99917629 [mEh]      25.09986206 [kcal/mol]     105.01782288 [kJ/mol]
  Total SAPT0                      19.94525286 [mEh]      12.51583512 [kcal/mol]      52.36625416 [kJ/mol]

  Special recipe for scaled SAPT0 (see Manual):
    Electrostatics sSAPT0         -21.10773016 [mEh]     -13.24530064 [kcal/mol]     -55.41833789 [kJ/mol]
    Exchange sSAPT0                84.37519997 [mEh]      52.94623734 [kcal/mol]     221.52705701 [kJ/mol]
    Induction sSAPT0              -22.48249816 [mEh]     -14.10798059 [kcal/mol]     -59.02779078 [kJ/mol]
    Dispersion sSAPT0             -19.87323912 [mEh]     -12.47064582 [kcal/mol]     -52.17718211 [kJ/mol]
  Total sSAPT0                     20.91173255 [mEh]      13.12231029 [kcal/mol]      54.90374624 [kJ/mol]
  --------------------------------------------------------------------------------------------------------

*** tstop() called on d-16-12-3 at Mon Jan 22 10:44:02 2024
Module time:
	user time   =    7831.40 seconds =     130.52 minutes
	system time =     798.83 seconds =      13.31 minutes
	total time  =       4159 seconds =      69.32 minutes
Total time:
	user time   =   15564.39 seconds =     259.41 minutes
	system time =     972.33 seconds =      16.21 minutes
	total time  =       4976 seconds =      82.93 minutes

    Psi4 stopped on: Monday, 22 January 2024 10:44AM
    Psi4 wall time for execution: 1:22:57.65

*** Psi4 exiting successfully. Buy a developer a beer!
