
    -----------------------------------------------------------------------
          Psi4: An Open-Source Ab Initio Electronic Structure Package
                               Psi4 1.9 release

                         Git: Rev {} zzzzzzz 


    D. G. A. Smith, L. A. Burns, A. C. Simmonett, R. M. Parrish,
    M. C. Schieber, R. Galvelis, P. Kraus, H. Kruse, R. Di Remigio,
    A. Alenaizan, A. M. James, S. Lehtola, J. P. Misiewicz, M. Scheurer,
    R. A. Shaw, J. B. Schriber, Y. Xie, Z. L. Glick, D. A. Sirianni,
    J. S. O'Brien, J. M. Waldrop, A. Kumar, E. G. Hohenstein,
    B. P. Pritchard, B. R. Brooks, H. F. Schaefer III, A. Yu. Sokolov,
    K. Patkowski, A. E. DePrince III, U. Bozkaya, R. A. King,
    F. A. Evangelista, J. M. Turney, T. D. Crawford, C. D. Sherrill,
    J. Chem. Phys. 152(18) 184108 (2020). https://doi.org/10.1063/5.0006002

                            Additional Code Authors
    E. T. Seidl, C. L. Janssen, E. F. Valeev, M. L. Leininger,
    J. F. Gonthier, R. M. Richard, H. R. McAlexander, M. Saitow, X. Wang,
    P. Verma, M. H. Lechner, A. Jiang, S. Behnle, A. G. Heide,
    M. F. Herbst, and D. L. Poole

             Previous Authors, Complete List of Code Contributors,
                       and Citations for Specific Modules
    https://github.com/psi4/psi4/blob/master/codemeta.json
    https://github.com/psi4/psi4/graphs/contributors
    http://psicode.org/psi4manual/master/introduction.html#citing-psifour

    -----------------------------------------------------------------------


    Psi4 started on: Saturday, 27 January 2024 12:13AM

    Process ID: 416363
    Host:       n2cn1157
    PSIDATADIR: /opt/software/pc2/EB-SW/software/PSI4/1.9-foss-2022a/share/psi4
    Memory:     500.0 MiB
    Threads:    16
    
  ==> Input File <==

--------------------------------------------------------------------------
memory 64 GB # how much memory is available ! Depends on the nodes/cores !

molecule dimer {
# monomer A
+1 1    # Charge and multiplicity
C  0.680067 1.417258 -6.015929
C -0.680504 1.419286 -6.015545
N -1.085635 1.420284 -4.697221
C  0.000108 1.423560 -3.915820
C -2.477365 1.469690 -4.229242
N  1.085222 1.420284 -4.697221
H  1.385146 1.409430 -6.833368
H -1.385302 1.419096 -6.833214
H -0.000009 1.425307 -2.834731
C  2.478117 1.403392 -4.232123
H  2.490592 1.430737 -3.141870
H  2.967028 0.489946 -4.579299
H  3.001428 2.278875 -4.623595
H -2.857359 2.491761 -4.309201
H -3.082679 0.799606 -4.842306
H -2.518128 1.142706 -3.189294
--
# monomer B
0 1     # Charge and multiplicity
C   -3.66844126402057      7.80375217008252      0.00190004133558
C   -4.84759871934653      7.13124183134024     -0.00046653359696
C   -4.89495929917518      5.69633040353158     -0.00103944469517
C   -3.65374067877320      4.98073034095895      0.00662099703436
C   -2.40942512149445      7.11398103667468      0.00209438359570
C   -2.42547734410473      5.68112195090346     -0.00491050527438
C   -1.19474401643570      7.78614419430947      0.00356656413763
C   0.03795902893699      7.09942164575698      0.00139585983271
C   0.03033258741920      5.66948955970466     -0.00408752508301
C   -1.20098450790502      4.96927034791531      0.00488220885047
C   1.27795782581485      7.77285944319479      0.00277170839332
C   2.48535808472416      7.08769688523756      0.00049722048857
C   2.48612868491717      5.65477081024076     -0.00644052849921
C   1.25408291964399      4.95607811366431      0.00518741308898
C   3.75171459140595      7.76391215098033      0.00062407186893
C   4.92356605618520      7.07878077698995     -0.00143240883900
C   4.95560727132542      5.64344746336949     -0.00159282164606
C   3.70680153420475      4.94121020833308      0.00349873852374
H   -3.65852113775815      8.89082741913536      0.00358502958574
H   -1.18921332975660      8.87412108735996      0.00753844057883
H   1.28429423888630      8.86083343548850      0.00693053253426
H   3.75354208679975      8.85103527897216      0.00214659618464
H   5.86995870320703      7.61379483465560     -0.00235777588134
H   -5.78823170750226      7.67630221293400     -0.00202638095293
C   -6.09197395869619      4.99326001364347     -0.00291168518608
C   -6.12866148031747      3.58258016879823     -0.00171050815740
C   -3.66457974004527      3.56418217974434     -0.00463560277484
C   -4.89429820469869      2.86108077590057      0.00453338221034
C   -2.43733499489796      2.84761165708481      0.00719617576166
C   -1.20922785759670      3.54788693497833     -0.00648285103018
C   1.24714157216223      3.53468075142962     -0.00729145743546
C   0.01517603956900      2.83311183930540      0.00439272578912
C   2.46764517244071      2.82128997725533      0.00449278391269
C   3.70254947457969      3.52466015442405     -0.00899517692985
C   6.14498038638375      4.92757236613191     -0.00282626685777
C   6.16658835886151      3.51658447594213     -0.00065971342101
C   4.92460995845939      2.80840792535402      0.00587903281610
H   7.08990550964105      5.46688776622306     -0.00658814770723
H   -7.03104175110130      5.54268795285765     -0.00714490013730
C   -7.33969804112295      2.85841153457957     -0.00333767559888
C   -7.36488195805880      1.47032337158330     -0.00157213747140
C   -4.90350460894690      1.44442681216000     -0.00628840166334
C   -6.13225715261081      0.73993935705394      0.00600164231964
C   -3.67687480051673      0.72669714267312      0.00433931473643
C   -2.44565658606518      1.42964113326212     -0.00597039546461
C   -1.22360068130162      0.71532450163492      0.00545886906656
C   0.00763786931376      1.41738314923765      0.00392452278437
C   1.23121980774686      0.70211669058719     -0.01490206287210
C   2.46082110053113      1.40329203612573      0.00460244601878
C   3.68443025419614      0.68719842821222      0.00377365974158
C   4.91870890153864      1.39173456118907     -0.00862816189375
C   7.36980207796101      2.77948220318441     -0.00242013321349
C   7.38016266612146      1.39121750785509     -0.00087345036788
C   6.13979953912259      0.67411862320065      0.00545489144369
H   -8.27919079934664      3.40711804112415     -0.00763522772059
H   8.31511347147953      3.31811809662368     -0.00663070901292
C   -8.59175593758115      0.72483255304480     -0.00123170985383
C   -8.59902460370342     -0.63263980622873      0.00089141472904
C   -6.13981313911873     -0.67413663715361     -0.00609792660607
C   -7.38018411213749     -1.39126618958160      0.00131813493501
C   -4.91868448025621     -1.39175501803000      0.00624257154343
C   -3.68443829568458     -0.68723731573599     -0.00478966852105
C   -2.46081704024768     -1.40334517882457      0.00575341766833
C   -1.23116201232071     -0.70217386488055     -0.00636696112346
C   -0.00756962538737     -1.41741884941102      0.00108956317991
C   1.22364771588843     -0.71527537726392      0.01109518512883
C   2.44567064933149     -1.42964328900682     -0.00065482763106
C   3.67686670284649     -0.72670743155550     -0.00479541202602
C   6.13224884641929     -0.73997883984993     -0.00632338623858
C   4.90351914550401     -1.44445752054090      0.00751768830159
C   8.59901484869081      0.63260386666793     -0.00101133422380
C   8.59174548810050     -0.72485086719319      0.00072504603735
C   7.36486276438985     -1.47033266560598      0.00049486934466
H   -9.52830597181814      1.27684744919284     -0.00270163681798
H   9.54141097460619      1.17457248844457     -0.00206336648518
C   -7.36983790976868     -2.77954514593389      0.00312634335708
C   -4.92459910905015     -2.80843725734101     -0.00460528907921
C   -6.16662249566744     -3.51665219282533      0.00169655107992
C   -3.70251035970491     -3.52468154912026      0.00571878010666
C   -2.46764698511392     -2.82132596280400     -0.00632585824990
C   -0.01513347410770     -2.83314164539971     -0.00604426974092
C   -1.24712184122656     -3.53473217556300      0.00551968366725
C   1.20924506964357     -3.54791467864352      0.00805871345849
C   2.43733602215464     -2.84764173817541     -0.00608104485234
C   4.89430234377080     -2.86112296828604     -0.00526030478103
C   3.66461525504104     -3.56421984553201      0.00761911515957
C   6.12863901474565     -3.58258405771778      0.00096495711699
C   7.33967266469532     -2.85841330737039      0.00248018319869
H   -9.54144911125902     -1.17456346666430      0.00226083090216
H   9.52826186807155     -1.27691907390448      0.00197485379837
H   -8.31516504384864     -3.31814985321231      0.00729857188773
H   8.27915514249207     -3.40714078989363      0.00681973918158
C   -6.14499418870218     -4.92764727278338      0.00302254913999
C   -3.70678334799751     -4.94126171411716     -0.00679841894792
C   -4.95559005800169     -5.64349397349412      0.00116871569699
C   -2.48612132622665     -5.65478557440947      0.00614125209662
C   -1.25405833548005     -4.95612205000132     -0.00503435388927
C   1.20101257386816     -4.96928038819302     -0.00385322963129
C   -0.03033667441341     -5.66952030313900      0.00398997003238
C   3.65375010132847     -4.98074377541453     -0.00309522988330
C   2.42549269587528     -5.68117463552727      0.00628170066869
C   6.09196561781097     -4.99325796338655      0.00325918379042
C   4.89497644461045     -5.69634842095790      0.00202298796027
H   -7.08989238804069     -5.46699984223871      0.00742531082125
H   7.03105520920009     -5.54265853633254      0.00683896355417
C   -4.92354532219813     -7.07882109967734      0.00061394679214
C   -2.48534208823777     -7.08772807792913     -0.00189594564379
C   -3.75168589177895     -7.76394715763627     -0.00170126671874
C   -0.03794895698805     -7.09946487446944     -0.00168022049625
C   -1.27795610040136     -7.77290438466689     -0.00366491325785
C   2.40944432072629     -7.11402201200282     -0.00081701968533
C   1.19474993715296     -7.78618536556242     -0.00296931056689
C   4.84762105249800     -7.13126211057943      0.00168979497423
C   3.66847160587561     -7.80378799294376     -0.00065863938960
H   -5.86994035041618     -7.61383059804164      0.00215798365757
H   5.78824962538815     -7.67633218931421      0.00281691445618
H   -3.75352693944918     -8.85107156923607     -0.00353718114765
H   -1.28430440589466     -8.86087539249706     -0.00809229711623
H   1.18922157469537     -8.87416062058945     -0.00706194725726
H   3.65854661482387     -8.89086063405326     -0.00231318081200

    units angstrom      # Angstroms are the default
    no_reorient         # Geometry fixed, default
    symmetry c1         # C1 symmetry, default
}

set {
    scf_type DF         # Density fitting, faster than exact integrals
    freeze_core True    # Freeze core electrons
    basis jun-cc-pVDZ   # Jun-cc-pVDZ basis set, recommended for sSAPT0 in https://doi.org/10.1063/1.4867135
}

energy('ssapt0')        # Compute sSAPT0 energy, includes also SAPT0
--------------------------------------------------------------------------

  Memory set to  59.605 GiB by Python driver.

Scratch directory: /tmp/
   => Loading Basis Set <=

    Name: JUN-CC-PVDZ
    Role: ORBITAL
    Keyword: BASIS
    atoms 1-2, 4-5, 10, 17-34, 41-53, 56-70, 73-89, 92-104, 109-119, 122-130 entry C          line   164 file /opt/software/pc2/EB-SW/software/PSI4/1.9-foss-2022a/share/psi4/basis/jun-cc-pvdz.gbs 
    atoms 3, 6                                                               entry N          line   198 file /opt/software/pc2/EB-SW/software/PSI4/1.9-foss-2022a/share/psi4/basis/jun-cc-pvdz.gbs 
    atoms 7-9, 11-16, 35-40, 54-55, 71-72, 90-91, 105-108, 120-121, 131-136  entry H          line    36 file /opt/software/pc2/EB-SW/software/PSI4/1.9-foss-2022a/share/psi4/basis/jun-cc-pvdz.gbs 

   => Loading Basis Set <=

    Name: JUN-CC-PVDZ
    Role: ORBITAL
    Keyword: BASIS
    atoms 1-2, 4-5, 10, 17-34, 41-53, 56-70, 73-89, 92-104, 109-119, 122-130 entry C          line   164 file /opt/software/pc2/EB-SW/software/PSI4/1.9-foss-2022a/share/psi4/basis/jun-cc-pvdz.gbs 
    atoms 3, 6                                                               entry N          line   198 file /opt/software/pc2/EB-SW/software/PSI4/1.9-foss-2022a/share/psi4/basis/jun-cc-pvdz.gbs 
    atoms 7-9, 11-16, 35-40, 54-55, 71-72, 90-91, 105-108, 120-121, 131-136  entry H          line    36 file /opt/software/pc2/EB-SW/software/PSI4/1.9-foss-2022a/share/psi4/basis/jun-cc-pvdz.gbs 


  //>>>>>>>>>>>>>>>>>>>>>>>>>>>>>>>>>>>//
  //              Dimer HF             //
  //<<<<<<<<<<<<<<<<<<<<<<<<<<<<<<<<<<<//

   => Libint2 <=

    Primary   basis highest AM E, G, H:  5, 4, 3
    Auxiliary basis highest AM E, G, H:  6, 5, 4
    Onebody   basis highest AM E, G, H:  6, 5, 4
    Solid Harmonics ordering:            gaussian

*** tstart() called on n2cn1157
*** at Sat Jan 27 00:13:57 2024

   => Loading Basis Set <=

    Name: JUN-CC-PVDZ
    Role: ORBITAL
    Keyword: BASIS
    atoms 1-2, 4-5, 10, 17-34, 41-53, 56-70, 73-89, 92-104, 109-119, 122-130 entry C          line   164 file /opt/software/pc2/EB-SW/software/PSI4/1.9-foss-2022a/share/psi4/basis/jun-cc-pvdz.gbs 
    atoms 3, 6                                                               entry N          line   198 file /opt/software/pc2/EB-SW/software/PSI4/1.9-foss-2022a/share/psi4/basis/jun-cc-pvdz.gbs 
    atoms 7-9, 11-16, 35-40, 54-55, 71-72, 90-91, 105-108, 120-121, 131-136  entry H          line    36 file /opt/software/pc2/EB-SW/software/PSI4/1.9-foss-2022a/share/psi4/basis/jun-cc-pvdz.gbs 


         ---------------------------------------------------------
                                   SCF
               by Justin Turney, Rob Parrish, Andy Simmonett
                          and Daniel G. A. Smith
                              RHF Reference
                       16 Threads,  61035 MiB Core
         ---------------------------------------------------------

  ==> Geometry <==

    Molecular point group: c1
    Full point group: C1

    Geometry (in Angstrom), charge = 1, multiplicity = 1:

       Center              X                  Y                   Z               Mass       
    ------------   -----------------  -----------------  -----------------  -----------------
         C            0.680062820275     1.308604348936    -5.649971854981    12.000000000000
         C           -0.680508179725     1.310632348936    -5.649587854981    12.000000000000
         N           -1.085639179725     1.311630348936    -4.331263854981    14.003074004430
         C            0.000103820275     1.314906348936    -3.549862854981    12.000000000000
         C           -2.477369179725     1.361036348936    -3.863284854981    12.000000000000
         N            1.085217820275     1.311630348936    -4.331263854981    14.003074004430
         H            1.385141820275     1.300776348936    -6.467410854981     1.007825032230
         H           -1.385306179725     1.310442348936    -6.467256854981     1.007825032230
         H           -0.000013179725     1.316653348936    -2.468773854981     1.007825032230
         C            2.478112820275     1.294738348936    -3.866165854981    12.000000000000
         H            2.490587820275     1.322083348936    -2.775912854981     1.007825032230
         H            2.967023820275     0.381292348936    -4.213341854981     1.007825032230
         H            3.001423820275     2.170221348936    -4.257637854981     1.007825032230
         H           -2.857363179725     2.383107348936    -3.943243854981     1.007825032230
         H           -3.082683179725     0.690952348936    -4.476348854981     1.007825032230
         H           -2.518132179725     1.034052348936    -2.823336854981     1.007825032230
         C           -3.668445443746     7.695098519018     0.367857186355    12.000000000000
         C           -4.847602899072     7.022588180276     0.365490611422    12.000000000000
         C           -4.894963478901     5.587676752467     0.364917700324    12.000000000000
         C           -3.653744858499     4.872076689895     0.372578142054    12.000000000000
         C           -2.409429301220     7.005327385610     0.368051528615    12.000000000000
         C           -2.425481523830     5.572468299839     0.361046639745    12.000000000000
         C           -1.194748196161     7.677490543245     0.369523709157    12.000000000000
         C            0.037954849212     6.990767994693     0.367353004852    12.000000000000
         C            0.030328407694     5.560835908640     0.361869619936    12.000000000000
         C           -1.200988687630     4.860616696851     0.370839353870    12.000000000000
         C            1.277953646089     7.664205792130     0.368728853413    12.000000000000
         C            2.485353904999     6.979043234173     0.366454365508    12.000000000000
         C            2.486124505192     5.546117159176     0.359516616520    12.000000000000
         C            1.254078739919     4.847424462600     0.371144558108    12.000000000000
         C            3.751710411681     7.655258499916     0.366581216888    12.000000000000
         C            4.923561876460     6.970127125926     0.364524736180    12.000000000000
         C            4.955603091600     5.534793812305     0.364364323373    12.000000000000
         C            3.706797354479     4.832556557269     0.369455883543    12.000000000000
         H           -3.658525317484     8.782173768071     0.369542174605     1.007825032230
         H           -1.189217509482     8.765467436296     0.373495585598     1.007825032230
         H            1.284290059161     8.752179784424     0.372887677553     1.007825032230
         H            3.753537907074     8.742381627908     0.368103741204     1.007825032230
         H            5.869954523482     7.505141183591     0.363599369138     1.007825032230
         H           -5.788235887228     7.567648561870     0.363930764066     1.007825032230
         C           -6.091978138422     4.884606362579     0.363045459833    12.000000000000
         C           -6.128665660043     3.473926517734     0.364246636862    12.000000000000
         C           -3.664583919771     3.455528528680     0.361321542244    12.000000000000
         C           -4.894302384424     2.752427124836     0.370490527230    12.000000000000
         C           -2.437339174623     2.738958006020     0.373153320781    12.000000000000
         C           -1.209232037322     3.439233283914     0.359474293989    12.000000000000
         C            1.247137392437     3.426027100365     0.358665687584    12.000000000000
         C            0.015171859844     2.724458188241     0.370349870808    12.000000000000
         C            2.467640992715     2.712636326191     0.370449928932    12.000000000000
         C            3.702545294854     3.416006503360     0.356961968089    12.000000000000
         C            6.144976206658     4.818918715067     0.363130878161    12.000000000000
         C            6.166584179136     3.407930824878     0.365297431598    12.000000000000
         C            4.924605778734     2.699754274290     0.371836177835    12.000000000000
         H            7.089901329916     5.358234115159     0.359368997312     1.007825032230
         H           -7.031045930827     5.434034301793     0.358812244882     1.007825032230
         C           -7.339702220848     2.749757883515     0.362619469420    12.000000000000
         C           -7.364886137784     1.361669720519     0.364385007548    12.000000000000
         C           -4.903508788672     1.335773161096     0.359668743356    12.000000000000
         C           -6.132261332336     0.631285705989     0.371958787339    12.000000000000
         C           -3.676878980242     0.618043491609     0.370296459756    12.000000000000
         C           -2.445660765791     1.320987482198     0.359986749555    12.000000000000
         C           -1.223604861027     0.606670850570     0.371416014086    12.000000000000
         C            0.007633689588     1.308729498173     0.369881667804    12.000000000000
         C            1.231215628021     0.593463039523     0.351055082147    12.000000000000
         C            2.460816920806     1.294638385061     0.370559591038    12.000000000000
         C            3.684426074471     0.578544777148     0.369730804761    12.000000000000
         C            4.918704721813     1.283080910125     0.357328983125    12.000000000000
         C            7.369797898236     2.670828552120     0.363537011806    12.000000000000
         C            7.380158486396     1.282563856791     0.365083694651    12.000000000000
         C            6.139795359397     0.565464972136     0.371412036463    12.000000000000
         H           -8.279194979072     3.298464390060     0.358321917299     1.007825032230
         H            8.315109291754     3.209464445559     0.359326436006     1.007825032230
         C           -8.591760117307     0.616178901980     0.364725435165    12.000000000000
         C           -8.599028783429    -0.741293457293     0.366848559748    12.000000000000
         C           -6.139817318844    -0.782790288218     0.359859218413    12.000000000000
         C           -7.380188291863    -1.499919840646     0.367275279954    12.000000000000
         C           -4.918688659982    -1.500408669094     0.372199716563    12.000000000000
         C           -3.684442475410    -0.795890966800     0.361167476498    12.000000000000
         C           -2.460821219973    -1.511998829889     0.371710562688    12.000000000000
         C           -1.231166192046    -0.810827515945     0.359590183896    12.000000000000
         C           -0.007573805113    -1.526072500475     0.367046708199    12.000000000000
         C            1.223643536163    -0.823929028328     0.377052330148    12.000000000000
         C            2.445666469606    -1.538296940071     0.365302317388    12.000000000000
         C            3.676862523121    -0.835361082620     0.361161732993    12.000000000000
         C            6.132244666694    -0.848632490914     0.359633758781    12.000000000000
         C            4.903514965779    -1.553111171605     0.373474833321    12.000000000000
         C            8.599010668965     0.523950215603     0.364945810795    12.000000000000
         C            8.591741308375    -0.833504518258     0.366682191057    12.000000000000
         C            7.364858584664    -1.578986316670     0.366452014364    12.000000000000
         H           -9.528310151544     1.168193798128     0.363255508201     1.007825032230
         H            9.541406794881     1.065918837380     0.363893778534     1.007825032230
         C           -7.369842089494    -2.888198796998     0.369083488376    12.000000000000
         C           -4.924603288776    -2.917090908405     0.361351855940    12.000000000000
         C           -6.166626675393    -3.625305843890     0.367653696099    12.000000000000
         C           -3.702514539430    -3.633335200185     0.371675925126    12.000000000000
         C           -2.467651164839    -2.929979613868     0.359631286769    12.000000000000
         C           -0.015137653833    -2.941795296464     0.359912875278    12.000000000000
         C           -1.247126020952    -3.643385826627     0.371476828686    12.000000000000
         C            1.209240889918    -3.656568329708     0.374015858478    12.000000000000
         C            2.437331842429    -2.956295389240     0.359876100167    12.000000000000
         C            4.894298164045    -2.969776619350     0.360696840238    12.000000000000
         C            3.664611075316    -3.672873496596     0.373576260179    12.000000000000
         C            6.128634835020    -3.691237708782     0.366922102136    12.000000000000
         C            7.339668484970    -2.967066958435     0.368437328218    12.000000000000
         H           -9.541453290984    -1.283217117729     0.368217975921     1.007825032230
         H            9.528257688346    -1.385572724969     0.367931998818     1.007825032230
         H           -8.315169223574    -3.426803504277     0.373255716907     1.007825032230
         H            8.279150962767    -3.515794440958     0.372776884201     1.007825032230
         C           -6.144998368428    -5.036300923848     0.368979694159    12.000000000000
         C           -3.706787527723    -5.049915365182     0.359158726071    12.000000000000
         C           -4.955594237727    -5.752147624559     0.367125860716    12.000000000000
         C           -2.486125505952    -5.763439225474     0.372098397116    12.000000000000
         C           -1.254062515205    -5.064775701066     0.360922791130    12.000000000000
         C            1.201008394143    -5.077934039257     0.362103915388    12.000000000000
         C           -0.030340854139    -5.778173954203     0.369947115052    12.000000000000
         C            3.653745921603    -5.089397426479     0.362861915136    12.000000000000
         C            2.425488516150    -5.789828286592     0.372238845688    12.000000000000
         C            6.091961438086    -5.101911614451     0.369216328810    12.000000000000
         C            4.894972264885    -5.805002072022     0.367980132979    12.000000000000
         H           -7.089896567766    -5.575653493303     0.373382455840     1.007825032230
         H            7.031051029475    -5.651312187397     0.372796108573     1.007825032230
         C           -4.923549501924    -7.187474750742     0.366571091811    12.000000000000
         C           -2.485346267963    -7.196381728994     0.364061199375    12.000000000000
         C           -3.751690071504    -7.872600808701     0.364255878300    12.000000000000
         C           -0.037953136713    -7.208118525534     0.364276924523    12.000000000000
         C           -1.277960280127    -7.881558035731     0.362292231761    12.000000000000
         C            2.409440141001    -7.222675663067     0.365140125334    12.000000000000
         C            1.194745757428    -7.894839016627     0.362987834452    12.000000000000
         C            4.847616872773    -7.239915761644     0.367646939993    12.000000000000
         C            3.668467426150    -7.912441644008     0.365298505630    12.000000000000
         H           -5.869944530142    -7.722484249106     0.368115128677     1.007825032230
         H            5.788245445663    -7.784985840379     0.368774059475     1.007825032230
         H           -3.753531119175    -8.959725220301     0.362419963872     1.007825032230
         H           -1.284308585620    -8.969529043562     0.357864847903     1.007825032230
         H            1.189217394970    -8.982814271654     0.358895197762     1.007825032230
         H            3.658542435098    -8.999514285118     0.363643964207     1.007825032230

  Running in c1 symmetry.

  Rotational constants: A =      0.00064  B =      0.00064  C =      0.00035 [cm^-1]
  Rotational constants: A =     19.27259  B =     19.24515  C =     10.47568 [MHz]
  Nuclear repulsion = 18124.995670017651719

  Charge       = 1
  Multiplicity = 1
  Electrons    = 652
  Nalpha       = 326
  Nbeta        = 326

  ==> Algorithm <==

  SCF Algorithm Type is DF.
  DIIS enabled.
  MOM disabled.
  Fractional occupation disabled.
  Guess Type is SAD.
  Energy threshold   = 1.00e-08
  Density threshold  = 1.00e-08
  Integral threshold = 1.00e-12

  ==> Primary Basis <==

  Basis Set: JUN-CC-PVDZ
    Blend: JUN-CC-PVDZ
    Number of shells: 923
    Number of basis functions: 2019
    Number of Cartesian functions: 2122
    Spherical Harmonics?: true
    Max angular momentum: 2

   => Loading Basis Set <=

    Name: (JUN-CC-PVDZ AUX)
    Role: JKFIT
    Keyword: DF_BASIS_SCF
    atoms 1-2, 4-5, 10, 17-34, 41-53, 56-70, 73-89, 92-104, 109-119, 122-130 entry C          line   146 file /opt/software/pc2/EB-SW/software/PSI4/1.9-foss-2022a/share/psi4/basis/jun-cc-pvdz-jkfit.gbs 
    atoms 3, 6                                                               entry N          line   202 file /opt/software/pc2/EB-SW/software/PSI4/1.9-foss-2022a/share/psi4/basis/jun-cc-pvdz-jkfit.gbs 
    atoms 7-9, 11-16, 35-40, 54-55, 71-72, 90-91, 105-108, 120-121, 131-136  entry H          line    70 file /opt/software/pc2/EB-SW/software/PSI4/1.9-foss-2022a/share/psi4/basis/jun-cc-pvdz-jkfit.gbs 

  ==> Integral Setup <==

  ==> DiskDFJK: Density-Fitted J/K Matrices <==

    J tasked:                  Yes
    K tasked:                  Yes
    wK tasked:                  No
    OpenMP threads:             16
    Integrals threads:          16
    Memory [MiB]:            45776
    Algorithm:                Disk
    Integral Cache:           SAVE
    Schwarz Cutoff:          1E-12
    Fitting Condition:       1E-10

   => Auxiliary Basis Set <=

  Basis Set: (JUN-CC-PVDZ AUX)
    Blend: JUN-CC-PVDZ-JKFIT
    Number of shells: 3078
    Number of basis functions: 8896
    Number of Cartesian functions: 10198
    Spherical Harmonics?: true
    Max angular momentum: 3

  Minimum eigenvalue in the overlap matrix is 7.9808128574E-11.
  Reciprocal condition number of the overlap matrix is 3.3526390167E-12.
    Using canonical orthogonalization.
  Overall, 39 of 2019 possible MOs eliminated.


  ==> Pre-Iterations <==

  SCF Guess: Superposition of Atomic Densities via on-the-fly atomic UHF (no occupation information).

   -------------------------
    Irrep   Nso     Nmo    
   -------------------------
     A       2019    1980 
   -------------------------
    Total    2019    1980
   -------------------------

  ==> Iterations <==

                           Total Energy        Delta E     RMS |[F,P]|

   @DF-RHF iter SAD: -3967.25853629086669   -3.96726e+03   0.00000e+00 
   @DF-RHF iter   1: -3952.12040009891052    1.51381e+01   7.15925e-04 ADIIS/DIIS
   @DF-RHF iter   2: -3953.50505003358467   -1.38465e+00   2.38610e-04 ADIIS/DIIS
   @DF-RHF iter   3: -3953.62726067080348   -1.22211e-01   1.12014e-04 ADIIS/DIIS
   @DF-RHF iter   4: -3953.65372231517813   -2.64616e-02   4.84014e-05 DIIS
   @DF-RHF iter   5: -3953.65976233455012   -6.04002e-03   1.17683e-05 DIIS
   @DF-RHF iter   6: -3953.66028922856276   -5.26894e-04   4.68173e-06 DIIS
   @DF-RHF iter   7: -3953.66048503855154   -1.95810e-04   2.24328e-06 DIIS
   @DF-RHF iter   8: -3953.66055000739834   -6.49688e-05   1.11283e-06 DIIS
   @DF-RHF iter   9: -3953.66056811581439   -1.81084e-05   3.65898e-07 DIIS
   @DF-RHF iter  10: -3953.66056935651568   -1.24070e-06   1.49018e-07 DIIS
   @DF-RHF iter  11: -3953.66056951325527   -1.56740e-07   6.12595e-08 DIIS
   @DF-RHF iter  12: -3953.66056954640044   -3.31452e-08   3.16460e-08 DIIS
   @DF-RHF iter  13: -3953.66056955381646   -7.41602e-09   1.05279e-08 DIIS
   @DF-RHF iter  14: -3953.66056955462045   -8.03993e-10   4.42374e-09 DIIS
  Energy and wave function converged.


  ==> Post-Iterations <==

    Orbital Energies [Eh]
    ---------------------

    Doubly Occupied:                                                      

       1A    -15.801076     2A    -15.800614     3A    -11.494217  
       4A    -11.429982     5A    -11.428425     6A    -11.415812  
       7A    -11.415765     8A    -11.338764     9A    -11.337265  
      10A    -11.337208    11A    -11.336749    12A    -11.335650  
      13A    -11.335506    14A    -11.334660    15A    -11.334500  
      16A    -11.334220    17A    -11.333951    18A    -11.333674  
      19A    -11.333524    20A    -11.332239    21A    -11.332000  
      22A    -11.331911    23A    -11.331491    24A    -11.331385  
      25A    -11.330428    26A    -11.330347    27A    -11.329828  
      28A    -11.329669    29A    -11.329652    30A    -11.329407  
      31A    -11.329359    32A    -11.328093    33A    -11.328082  
      34A    -11.327960    35A    -11.327836    36A    -11.326898  
      37A    -11.326822    38A    -11.326760    39A    -11.326691  
      40A    -11.326648    41A    -11.326027    42A    -11.325996  
      43A    -11.325876    44A    -11.325828    45A    -11.325793  
      46A    -11.325721    47A    -11.325685    48A    -11.325016  
      49A    -11.324975    50A    -11.324564    51A    -11.324505  
      52A    -11.324450    53A    -11.324430    54A    -11.324131  
      55A    -11.324079    56A    -11.323998    57A    -11.323971  
      58A    -11.323332    59A    -11.323295    60A    -11.323024  
      61A    -11.322907    62A    -11.322858    63A    -11.322848  
      64A    -11.322444    65A    -11.322414    66A    -11.321463  
      67A    -11.321436    68A    -11.321246    69A    -11.321205  
      70A    -11.321199    71A    -11.321177    72A    -11.320704  
      73A    -11.320259    74A    -11.320237    75A    -11.319632  
      76A    -11.319589    77A    -11.319563    78A    -11.318775  
      79A    -11.318771    80A    -11.317050    81A    -11.317031  
      82A    -11.316982    83A    -11.316974    84A    -11.315466  
      85A    -11.315394    86A    -11.314650    87A    -11.314599  
      88A    -11.314507    89A    -11.314483    90A    -11.313170  
      91A    -11.313118    92A    -11.312596    93A    -11.312548  
      94A    -11.312496    95A    -11.312483    96A    -11.312061  
      97A    -11.311978    98A    -11.310973    99A    -11.310925  
     100A    -11.309589   101A    -11.309579   102A    -11.308078  
     103A    -11.308071   104A     -1.545220   105A     -1.400626  
     106A     -1.323747   107A     -1.305676   108A     -1.305014  
     109A     -1.285018   110A     -1.285006   111A     -1.282369  
     112A     -1.264121   113A     -1.259434   114A     -1.254607  
     115A     -1.254248   116A     -1.236463   117A     -1.236436  
     118A     -1.221219   119A     -1.221170   120A     -1.218843  
     121A     -1.206963   122A     -1.206934   123A     -1.206560  
     124A     -1.192700   125A     -1.180091   126A     -1.178368  
     127A     -1.178079   128A     -1.175274   129A     -1.173410  
     130A     -1.155930   131A     -1.152377   132A     -1.152314  
     133A     -1.138884   134A     -1.138867   135A     -1.132444  
     136A     -1.132318   137A     -1.130408   138A     -1.110100  
     139A     -1.110044   140A     -1.103940   141A     -1.100602  
     142A     -1.100591   143A     -1.090992   144A     -1.088441  
     145A     -1.088266   146A     -1.085706   147A     -1.070954  
     148A     -1.069733   149A     -1.066707   150A     -1.065081  
     151A     -1.065026   152A     -1.052438   153A     -1.034954  
     154A     -1.034874   155A     -1.018268   156A     -1.018190  
     157A     -0.990436   158A     -0.972292   159A     -0.972141  
     160A     -0.971468   161A     -0.966800   162A     -0.966759  
     163A     -0.963509   164A     -0.958503   165A     -0.958444  
     166A     -0.955890   167A     -0.955247   168A     -0.953277  
     169A     -0.934126   170A     -0.929230   171A     -0.914711  
     172A     -0.913105   173A     -0.912647   174A     -0.910134  
     175A     -0.907003   176A     -0.897570   177A     -0.897474  
     178A     -0.889376   179A     -0.889345   180A     -0.884012  
     181A     -0.849911   182A     -0.849739   183A     -0.847650  
     184A     -0.846029   185A     -0.845423   186A     -0.844736  
     187A     -0.844421   188A     -0.830713   189A     -0.826551  
     190A     -0.817640   191A     -0.814856   192A     -0.795377  
     193A     -0.790635   194A     -0.790319   195A     -0.788775  
     196A     -0.788001   197A     -0.787799   198A     -0.784850  
     199A     -0.783350   200A     -0.778668   201A     -0.778190  
     202A     -0.778166   203A     -0.761918   204A     -0.761910  
     205A     -0.757985   206A     -0.753465   207A     -0.751063  
     208A     -0.750965   209A     -0.748289   210A     -0.748240  
     211A     -0.744966   212A     -0.744959   213A     -0.742288  
     214A     -0.715755   215A     -0.714800   216A     -0.714757  
     217A     -0.713448   218A     -0.713214   219A     -0.711357  
     220A     -0.705490   221A     -0.705330   222A     -0.702626  
     223A     -0.701416   224A     -0.699677   225A     -0.699628  
     226A     -0.698594   227A     -0.692649   228A     -0.692192  
     229A     -0.686262   230A     -0.684544   231A     -0.676836  
     232A     -0.676764   233A     -0.671506   234A     -0.671459  
     235A     -0.665975   236A     -0.665317   237A     -0.663843  
     238A     -0.663441   239A     -0.662907   240A     -0.661941  
     241A     -0.657917   242A     -0.657671   243A     -0.657602  
     244A     -0.657278   245A     -0.653833   246A     -0.653793  
     247A     -0.652752   248A     -0.640258   249A     -0.640196  
     250A     -0.638199   251A     -0.638188   252A     -0.637173  
     253A     -0.636149   254A     -0.633037   255A     -0.632819  
     256A     -0.629058   257A     -0.628811   258A     -0.622126  
     259A     -0.622099   260A     -0.621121   261A     -0.619202  
     262A     -0.617201   263A     -0.613378   264A     -0.607913  
     265A     -0.607450   266A     -0.602090   267A     -0.601602  
     268A     -0.596265   269A     -0.596009   270A     -0.592642  
     271A     -0.590025   272A     -0.589986   273A     -0.580518  
     274A     -0.580389   275A     -0.577655   276A     -0.577610  
     277A     -0.571287   278A     -0.571118   279A     -0.564091  
     280A     -0.560677   281A     -0.559769   282A     -0.559701  
     283A     -0.559356   284A     -0.559278   285A     -0.556366  
     286A     -0.543059   287A     -0.539145   288A     -0.539100  
     289A     -0.536318   290A     -0.533622   291A     -0.529850  
     292A     -0.529643   293A     -0.522914   294A     -0.512190  
     295A     -0.511983   296A     -0.507322   297A     -0.507053  
     298A     -0.506501   299A     -0.495829   300A     -0.495519  
     301A     -0.492949   302A     -0.471422   303A     -0.471338  
     304A     -0.451682   305A     -0.451578   306A     -0.449748  
     307A     -0.446913   308A     -0.446857   309A     -0.417661  
     310A     -0.417594   311A     -0.414292   312A     -0.406402  
     313A     -0.404780   314A     -0.404590   315A     -0.393796  
     316A     -0.393702   317A     -0.372305   318A     -0.367726  
     319A     -0.367623   320A     -0.363464   321A     -0.348629  
     322A     -0.318698   323A     -0.318652   324A     -0.316320  
     325A     -0.267334   326A     -0.267121  

    Virtual:                                                              

     327A     -0.074795   328A     -0.074556   329A     -0.038662  
     330A     -0.034939   331A     -0.030528   332A     -0.030373  
     333A     -0.030334   334A     -0.019923   335A     -0.017606  
     336A     -0.009199   337A     -0.007386   338A     -0.005492  
     339A     -0.004022   340A     -0.000418   341A      0.000541  
     342A      0.001522   343A      0.002662   344A      0.004652  
     345A      0.004723   346A      0.005315   347A      0.005401  
     348A      0.008791   349A      0.009427   350A      0.011389  
     351A      0.013512   352A      0.014376   353A      0.015053  
     354A      0.015476   355A      0.015561   356A      0.018624  
     357A      0.020544   358A      0.020991   359A      0.021865  
     360A      0.025856   361A      0.026451   362A      0.026484  
     363A      0.027922   364A      0.032090   365A      0.032546  
     366A      0.035351   367A      0.036608   368A      0.037665  
     369A      0.038440   370A      0.041157   371A      0.043117  
     372A      0.043654   373A      0.044524   374A      0.046178  
     375A      0.047152   376A      0.048461   377A      0.050962  
     378A      0.053033   379A      0.053611   380A      0.053794  
     381A      0.054080   382A      0.054352   383A      0.055551  
     384A      0.055749   385A      0.056563   386A      0.057151  
     387A      0.058474   388A      0.059281   389A      0.063530  
     390A      0.064513   391A      0.065268   392A      0.068230  
     393A      0.068675   394A      0.069632   395A      0.069887  
     396A      0.075140   397A      0.075783   398A      0.076574  
     399A      0.077603   400A      0.078061   401A      0.081116  
     402A      0.081765   403A      0.083157   404A      0.084083  
     405A      0.086986   406A      0.087164   407A      0.089832  
     408A      0.089989   409A      0.092009   410A      0.092288  
     411A      0.093450   412A      0.094806   413A      0.097601  
     414A      0.098844   415A      0.099828   416A      0.101616  
     417A      0.103169   418A      0.106718   419A      0.107173  
     420A      0.107392   421A      0.108179   422A      0.109227  
     423A      0.110226   424A      0.110804   425A      0.112374  
     426A      0.113226   427A      0.115165   428A      0.115551  
     429A      0.116024   430A      0.116547   431A      0.116774  
     432A      0.118326   433A      0.118713   434A      0.121731  
     435A      0.126189   436A      0.127537   437A      0.128064  
     438A      0.131178   439A      0.131992   440A      0.132861  
     441A      0.133777   442A      0.135194   443A      0.136201  
     444A      0.136540   445A      0.137016   446A      0.137798  
     447A      0.139001   448A      0.143473   449A      0.144179  
     450A      0.145487   451A      0.147400   452A      0.147887  
     453A      0.148880   454A      0.149928   455A      0.150204  
     456A      0.150818   457A      0.151494   458A      0.152797  
     459A      0.153541   460A      0.153772   461A      0.154270  
     462A      0.155249   463A      0.156593   464A      0.157455  
     465A      0.158121   466A      0.158596   467A      0.159773  
     468A      0.160634   469A      0.161961   470A      0.162915  
     471A      0.163948   472A      0.164201   473A      0.166691  
     474A      0.166956   475A      0.167067   476A      0.168350  
     477A      0.168796   478A      0.170942   479A      0.171416  
     480A      0.173778   481A      0.174701   482A      0.175277  
     483A      0.175992   484A      0.177063   485A      0.177812  
     486A      0.178994   487A      0.180072   488A      0.181293  
     489A      0.183145   490A      0.183924   491A      0.185869  
     492A      0.186422   493A      0.187900   494A      0.188325  
     495A      0.189762   496A      0.190427   497A      0.191442  
     498A      0.192048   499A      0.193016   500A      0.193794  
     501A      0.195803   502A      0.196973   503A      0.197490  
     504A      0.199030   505A      0.199273   506A      0.202625  
     507A      0.203515   508A      0.203971   509A      0.206088  
     510A      0.207414   511A      0.207799   512A      0.208474  
     513A      0.209585   514A      0.210673   515A      0.211204  
     516A      0.212239   517A      0.213360   518A      0.213525  
     519A      0.214882   520A      0.216030   521A      0.217973  
     522A      0.218749   523A      0.220235   524A      0.220959  
     525A      0.221274   526A      0.222718   527A      0.222757  
     528A      0.224689   529A      0.225435   530A      0.226268  
     531A      0.227315   532A      0.229621   533A      0.230142  
     534A      0.230286   535A      0.231132   536A      0.233559  
     537A      0.234552   538A      0.236087   539A      0.236553  
     540A      0.237101   541A      0.237272   542A      0.238308  
     543A      0.240363   544A      0.241797   545A      0.243836  
     546A      0.245446   547A      0.246128   548A      0.246530  
     549A      0.247360   550A      0.247733   551A      0.249484  
     552A      0.250064   553A      0.250627   554A      0.251732  
     555A      0.252536   556A      0.253866   557A      0.255663  
     558A      0.256618   559A      0.257497   560A      0.258535  
     561A      0.260230   562A      0.261729   563A      0.261994  
     564A      0.262320   565A      0.263258   566A      0.263502  
     567A      0.264098   568A      0.264579   569A      0.266465  
     570A      0.267071   571A      0.268396   572A      0.270308  
     573A      0.271245   574A      0.271885   575A      0.272443  
     576A      0.273253   577A      0.274001   578A      0.274478  
     579A      0.274869   580A      0.275238   581A      0.275317  
     582A      0.276301   583A      0.277512   584A      0.278706  
     585A      0.279055   586A      0.281213   587A      0.282023  
     588A      0.282333   589A      0.284173   590A      0.285020  
     591A      0.287411   592A      0.289105   593A      0.289206  
     594A      0.289440   595A      0.289694   596A      0.290293  
     597A      0.291056   598A      0.292178   599A      0.293877  
     600A      0.295640   601A      0.296855   602A      0.297888  
     603A      0.299927   604A      0.301380   605A      0.302216  
     606A      0.303203   607A      0.303409   608A      0.305233  
     609A      0.305650   610A      0.306589   611A      0.307565  
     612A      0.308149   613A      0.308887   614A      0.309802  
     615A      0.310314   616A      0.311307   617A      0.311613  
     618A      0.313433   619A      0.313710   620A      0.315242  
     621A      0.317467   622A      0.319477   623A      0.320395  
     624A      0.321249   625A      0.321790   626A      0.323209  
     627A      0.324227   628A      0.324466   629A      0.325064  
     630A      0.326115   631A      0.326822   632A      0.327781  
     633A      0.330264   634A      0.331558   635A      0.331814  
     636A      0.333722   637A      0.333950   638A      0.334705  
     639A      0.334775   640A      0.335196   641A      0.336260  
     642A      0.337238   643A      0.337780   644A      0.337886  
     645A      0.338991   646A      0.340036   647A      0.340715  
     648A      0.342606   649A      0.343837   650A      0.344022  
     651A      0.344321   652A      0.345045   653A      0.345726  
     654A      0.346197   655A      0.347169   656A      0.347908  
     657A      0.348039   658A      0.350276   659A      0.350873  
     660A      0.351338   661A      0.352047   662A      0.353283  
     663A      0.354103   664A      0.354413   665A      0.354789  
     666A      0.357178   667A      0.357485   668A      0.357873  
     669A      0.358443   670A      0.359580   671A      0.360954  
     672A      0.362177   673A      0.362785   674A      0.365056  
     675A      0.365755   676A      0.367118   677A      0.367884  
     678A      0.368285   679A      0.369650   680A      0.370184  
     681A      0.370624   682A      0.371359   683A      0.372364  
     684A      0.373095   685A      0.375006   686A      0.376100  
     687A      0.376447   688A      0.379474   689A      0.380090  
     690A      0.380149   691A      0.380657   692A      0.382135  
     693A      0.383655   694A      0.384481   695A      0.387251  
     696A      0.387789   697A      0.390437   698A      0.391758  
     699A      0.392152   700A      0.393413   701A      0.394346  
     702A      0.395116   703A      0.395552   704A      0.396249  
     705A      0.396741   706A      0.397308   707A      0.398056  
     708A      0.399789   709A      0.401784   710A      0.402800  
     711A      0.403039   712A      0.404331   713A      0.405047  
     714A      0.405988   715A      0.406178   716A      0.406548  
     717A      0.407708   718A      0.409203   719A      0.411408  
     720A      0.411572   721A      0.412284   722A      0.412818  
     723A      0.413556   724A      0.414619   725A      0.415492  
     726A      0.415849   727A      0.417197   728A      0.417389  
     729A      0.418574   730A      0.419275   731A      0.420102  
     732A      0.422666   733A      0.425757   734A      0.426955  
     735A      0.427936   736A      0.428899   737A      0.429797  
     738A      0.431398   739A      0.432346   740A      0.434009  
     741A      0.435951   742A      0.436865   743A      0.437579  
     744A      0.438078   745A      0.440476   746A      0.441224  
     747A      0.442288   748A      0.443628   749A      0.444438  
     750A      0.445527   751A      0.447034   752A      0.447808  
     753A      0.448586   754A      0.449654   755A      0.450776  
     756A      0.452289   757A      0.454440   758A      0.455141  
     759A      0.456207   760A      0.457626   761A      0.458019  
     762A      0.458691   763A      0.460351   764A      0.460513  
     765A      0.461243   766A      0.462248   767A      0.465152  
     768A      0.466988   769A      0.467318   770A      0.469065  
     771A      0.470107   772A      0.471673   773A      0.472353  
     774A      0.474922   775A      0.475190   776A      0.478126  
     777A      0.479395   778A      0.480231   779A      0.480961  
     780A      0.483071   781A      0.485230   782A      0.489119  
     783A      0.490788   784A      0.496809   785A      0.499029  
     786A      0.500256   787A      0.502071   788A      0.502659  
     789A      0.503433   790A      0.504490   791A      0.505089  
     792A      0.505723   793A      0.506881   794A      0.508239  
     795A      0.509088   796A      0.510187   797A      0.511738  
     798A      0.513510   799A      0.514032   800A      0.515232  
     801A      0.516824   802A      0.517715   803A      0.518517  
     804A      0.519204   805A      0.522623   806A      0.523039  
     807A      0.524078   808A      0.525177   809A      0.527843  
     810A      0.529332   811A      0.530627   812A      0.530984  
     813A      0.532607   814A      0.534211   815A      0.536358  
     816A      0.537530   817A      0.539936   818A      0.542570  
     819A      0.542974   820A      0.544247   821A      0.544677  
     822A      0.546032   823A      0.554009   824A      0.557392  
     825A      0.558848   826A      0.559150   827A      0.559797  
     828A      0.562475   829A      0.564431   830A      0.566852  
     831A      0.568807   832A      0.570198   833A      0.570844  
     834A      0.574668   835A      0.578570   836A      0.579607  
     837A      0.585180   838A      0.587737   839A      0.590428  
     840A      0.593196   841A      0.594436   842A      0.595153  
     843A      0.597577   844A      0.598298   845A      0.599563  
     846A      0.604107   847A      0.604631   848A      0.605907  
     849A      0.610964   850A      0.617815   851A      0.620802  
     852A      0.622959   853A      0.624002   854A      0.626627  
     855A      0.627080   856A      0.628891   857A      0.629594  
     858A      0.631416   859A      0.636241   860A      0.636354  
     861A      0.637041   862A      0.638065   863A      0.643274  
     864A      0.643729   865A      0.644489   866A      0.650635  
     867A      0.656528   868A      0.660172   869A      0.666205  
     870A      0.671481   871A      0.674767   872A      0.677763  
     873A      0.678657   874A      0.679037   875A      0.680692  
     876A      0.681019   877A      0.682412   878A      0.686738  
     879A      0.687837   880A      0.691261   881A      0.694522  
     882A      0.704153   883A      0.707537   884A      0.719594  
     885A      0.722315   886A      0.724574   887A      0.725367  
     888A      0.727068   889A      0.731208   890A      0.732068  
     891A      0.733187   892A      0.734668   893A      0.740159  
     894A      0.740845   895A      0.742744   896A      0.743359  
     897A      0.744959   898A      0.749373   899A      0.751144  
     900A      0.752051   901A      0.753000   902A      0.754908  
     903A      0.755706   904A      0.757285   905A      0.760185  
     906A      0.762440   907A      0.762853   908A      0.764834  
     909A      0.766101   910A      0.768711   911A      0.768988  
     912A      0.772290   913A      0.773832   914A      0.774468  
     915A      0.774929   916A      0.776817   917A      0.780299  
     918A      0.783375   919A      0.785988   920A      0.787225  
     921A      0.788666   922A      0.789214   923A      0.792196  
     924A      0.793405   925A      0.795631   926A      0.796839  
     927A      0.797707   928A      0.800035   929A      0.800371  
     930A      0.803317   931A      0.804586   932A      0.807554  
     933A      0.808673   934A      0.809937   935A      0.811426  
     936A      0.813093   937A      0.814781   938A      0.816187  
     939A      0.818338   940A      0.820238   941A      0.823752  
     942A      0.825499   943A      0.826465   944A      0.827338  
     945A      0.828532   946A      0.828697   947A      0.831183  
     948A      0.831685   949A      0.833409   950A      0.835168  
     951A      0.836485   952A      0.838568   953A      0.839759  
     954A      0.843475   955A      0.844552   956A      0.845783  
     957A      0.847786   958A      0.850199   959A      0.851046  
     960A      0.853508   961A      0.854484   962A      0.856983  
     963A      0.857724   964A      0.859234   965A      0.860148  
     966A      0.861524   967A      0.862107   968A      0.863968  
     969A      0.864551   970A      0.864851   971A      0.866568  
     972A      0.871555   973A      0.872230   974A      0.872629  
     975A      0.873704   976A      0.874418   977A      0.876162  
     978A      0.876427   979A      0.881949   980A      0.882916  
     981A      0.884312   982A      0.885632   983A      0.887114  
     984A      0.887896   985A      0.889439   986A      0.890644  
     987A      0.890864   988A      0.892507   989A      0.892949  
     990A      0.894479   991A      0.895346   992A      0.896802  
     993A      0.897376   994A      0.898189   995A      0.900205  
     996A      0.902880   997A      0.905790   998A      0.906291  
     999A      0.907105  1000A      0.909471  1001A      0.911413  
    1002A      0.914119  1003A      0.920101  1004A      0.920303  
    1005A      0.923034  1006A      0.924686  1007A      0.925721  
    1008A      0.929183  1009A      0.929798  1010A      0.931222  
    1011A      0.933176  1012A      0.934754  1013A      0.937750  
    1014A      0.939089  1015A      0.940321  1016A      0.941523  
    1017A      0.941700  1018A      0.943896  1019A      0.944676  
    1020A      0.945232  1021A      0.948526  1022A      0.949996  
    1023A      0.952723  1024A      0.953097  1025A      0.954686  
    1026A      0.956689  1027A      0.958848  1028A      0.960147  
    1029A      0.961753  1030A      0.963889  1031A      0.966579  
    1032A      0.968793  1033A      0.969075  1034A      0.971548  
    1035A      0.972568  1036A      0.975160  1037A      0.976355  
    1038A      0.976518  1039A      0.978294  1040A      0.981445  
    1041A      0.982094  1042A      0.983425  1043A      0.984385  
    1044A      0.985599  1045A      0.987094  1046A      0.987979  
    1047A      0.989035  1048A      0.989512  1049A      0.991664  
    1050A      0.992965  1051A      0.994693  1052A      0.995482  
    1053A      0.996577  1054A      0.999726  1055A      1.001407  
    1056A      1.002021  1057A      1.003224  1058A      1.003565  
    1059A      1.004707  1060A      1.005229  1061A      1.006162  
    1062A      1.007539  1063A      1.008036  1064A      1.009297  
    1065A      1.009494  1066A      1.010236  1067A      1.010539  
    1068A      1.011659  1069A      1.012805  1070A      1.013322  
    1071A      1.013530  1072A      1.014618  1073A      1.015169  
    1074A      1.015419  1075A      1.016369  1076A      1.018038  
    1077A      1.018550  1078A      1.020170  1079A      1.020484  
    1080A      1.021279  1081A      1.022163  1082A      1.022773  
    1083A      1.023483  1084A      1.023944  1085A      1.024961  
    1086A      1.025422  1087A      1.026999  1088A      1.027881  
    1089A      1.028048  1090A      1.029442  1091A      1.030098  
    1092A      1.030595  1093A      1.031789  1094A      1.034474  
    1095A      1.036389  1096A      1.036862  1097A      1.037577  
    1098A      1.038669  1099A      1.039347  1100A      1.041713  
    1101A      1.042492  1102A      1.043872  1103A      1.047029  
    1104A      1.048023  1105A      1.050808  1106A      1.051842  
    1107A      1.054078  1108A      1.055738  1109A      1.056414  
    1110A      1.057763  1111A      1.059683  1112A      1.063105  
    1113A      1.063739  1114A      1.064880  1115A      1.065438  
    1116A      1.069131  1117A      1.070435  1118A      1.070772  
    1119A      1.071806  1120A      1.072839  1121A      1.073480  
    1122A      1.074174  1123A      1.075231  1124A      1.077975  
    1125A      1.081853  1126A      1.082928  1127A      1.085020  
    1128A      1.086131  1129A      1.087798  1130A      1.088745  
    1131A      1.090539  1132A      1.091276  1133A      1.092124  
    1134A      1.093324  1135A      1.095417  1136A      1.096672  
    1137A      1.098478  1138A      1.100279  1139A      1.103545  
    1140A      1.104302  1141A      1.105346  1142A      1.107171  
    1143A      1.107457  1144A      1.109743  1145A      1.112002  
    1146A      1.114149  1147A      1.115026  1148A      1.117113  
    1149A      1.118680  1150A      1.120397  1151A      1.123648  
    1152A      1.125164  1153A      1.129055  1154A      1.132688  
    1155A      1.137851  1156A      1.139116  1157A      1.139448  
    1158A      1.140892  1159A      1.142498  1160A      1.144606  
    1161A      1.146337  1162A      1.148726  1163A      1.150889  
    1164A      1.151910  1165A      1.154799  1166A      1.155523  
    1167A      1.157582  1168A      1.158345  1169A      1.161885  
    1170A      1.162903  1171A      1.166343  1172A      1.167427  
    1173A      1.169975  1174A      1.171690  1175A      1.173469  
    1176A      1.175654  1177A      1.178012  1178A      1.180945  
    1179A      1.182600  1180A      1.185507  1181A      1.188415  
    1182A      1.191068  1183A      1.191696  1184A      1.197550  
    1185A      1.199138  1186A      1.200356  1187A      1.200666  
    1188A      1.201116  1189A      1.202509  1190A      1.206259  
    1191A      1.209714  1192A      1.211107  1193A      1.212405  
    1194A      1.217186  1195A      1.219753  1196A      1.225995  
    1197A      1.226632  1198A      1.228152  1199A      1.228809  
    1200A      1.229973  1201A      1.233291  1202A      1.234261  
    1203A      1.234908  1204A      1.238099  1205A      1.240010  
    1206A      1.243139  1207A      1.246209  1208A      1.247325  
    1209A      1.248317  1210A      1.249877  1211A      1.252310  
    1212A      1.253124  1213A      1.255573  1214A      1.258023  
    1215A      1.258989  1216A      1.259704  1217A      1.261924  
    1218A      1.262090  1219A      1.266145  1220A      1.266478  
    1221A      1.270046  1222A      1.271267  1223A      1.272438  
    1224A      1.275370  1225A      1.276428  1226A      1.277084  
    1227A      1.277858  1228A      1.278301  1229A      1.282128  
    1230A      1.283214  1231A      1.289022  1232A      1.292124  
    1233A      1.292460  1234A      1.297675  1235A      1.298404  
    1236A      1.299830  1237A      1.301264  1238A      1.303340  
    1239A      1.303893  1240A      1.305776  1241A      1.307772  
    1242A      1.311608  1243A      1.312094  1244A      1.313762  
    1245A      1.314158  1246A      1.324108  1247A      1.325140  
    1248A      1.328861  1249A      1.330798  1250A      1.333988  
    1251A      1.334428  1252A      1.335651  1253A      1.337145  
    1254A      1.344182  1255A      1.346088  1256A      1.346966  
    1257A      1.347504  1258A      1.350975  1259A      1.352912  
    1260A      1.353513  1261A      1.354694  1262A      1.355827  
    1263A      1.359169  1264A      1.363138  1265A      1.364450  
    1266A      1.365592  1267A      1.366831  1268A      1.368290  
    1269A      1.370419  1270A      1.371867  1271A      1.372521  
    1272A      1.373780  1273A      1.374940  1274A      1.376997  
    1275A      1.377424  1276A      1.379157  1277A      1.380821  
    1278A      1.384171  1279A      1.384488  1280A      1.388049  
    1281A      1.389257  1282A      1.391092  1283A      1.393267  
    1284A      1.395300  1285A      1.398995  1286A      1.401843  
    1287A      1.406436  1288A      1.407434  1289A      1.409760  
    1290A      1.410443  1291A      1.411109  1292A      1.411782  
    1293A      1.413273  1294A      1.418432  1295A      1.422225  
    1296A      1.423834  1297A      1.424755  1298A      1.427972  
    1299A      1.429813  1300A      1.434725  1301A      1.435754  
    1302A      1.440376  1303A      1.442189  1304A      1.442994  
    1305A      1.444904  1306A      1.452215  1307A      1.455427  
    1308A      1.458619  1309A      1.473033  1310A      1.478143  
    1311A      1.479379  1312A      1.479816  1313A      1.489251  
    1314A      1.489474  1315A      1.493768  1316A      1.499326  
    1317A      1.507518  1318A      1.519661  1319A      1.524706  
    1320A      1.528415  1321A      1.531227  1322A      1.534448  
    1323A      1.536397  1324A      1.537921  1325A      1.540732  
    1326A      1.542296  1327A      1.543184  1328A      1.544246  
    1329A      1.547626  1330A      1.547875  1331A      1.548276  
    1332A      1.550130  1333A      1.550741  1334A      1.551758  
    1335A      1.554378  1336A      1.555856  1337A      1.558055  
    1338A      1.558568  1339A      1.560970  1340A      1.562639  
    1341A      1.563813  1342A      1.564967  1343A      1.566067  
    1344A      1.566557  1345A      1.568556  1346A      1.568786  
    1347A      1.570989  1348A      1.573036  1349A      1.573529  
    1350A      1.575381  1351A      1.575586  1352A      1.576071  
    1353A      1.577918  1354A      1.579980  1355A      1.581220  
    1356A      1.584778  1357A      1.586350  1358A      1.587607  
    1359A      1.590504  1360A      1.591949  1361A      1.592752  
    1362A      1.594073  1363A      1.596086  1364A      1.600478  
    1365A      1.601251  1366A      1.602550  1367A      1.603755  
    1368A      1.604176  1369A      1.605715  1370A      1.606351  
    1371A      1.606873  1372A      1.608321  1373A      1.609581  
    1374A      1.610028  1375A      1.612480  1376A      1.614442  
    1377A      1.615603  1378A      1.619440  1379A      1.624360  
    1380A      1.625287  1381A      1.628544  1382A      1.630845  
    1383A      1.633691  1384A      1.635823  1385A      1.636486  
    1386A      1.636751  1387A      1.639883  1388A      1.644103  
    1389A      1.646215  1390A      1.649340  1391A      1.650755  
    1392A      1.652421  1393A      1.653730  1394A      1.654547  
    1395A      1.656343  1396A      1.658260  1397A      1.658477  
    1398A      1.659811  1399A      1.663590  1400A      1.667355  
    1401A      1.673629  1402A      1.676483  1403A      1.676983  
    1404A      1.684405  1405A      1.684956  1406A      1.685624  
    1407A      1.688538  1408A      1.691645  1409A      1.695057  
    1410A      1.701945  1411A      1.703668  1412A      1.706000  
    1413A      1.714301  1414A      1.719218  1415A      1.726277  
    1416A      1.727443  1417A      1.730668  1418A      1.734730  
    1419A      1.736739  1420A      1.736927  1421A      1.747571  
    1422A      1.749837  1423A      1.757881  1424A      1.759613  
    1425A      1.763053  1426A      1.764872  1427A      1.766186  
    1428A      1.766807  1429A      1.768055  1430A      1.769965  
    1431A      1.771831  1432A      1.773321  1433A      1.773991  
    1434A      1.775000  1435A      1.775601  1436A      1.776167  
    1437A      1.779555  1438A      1.781458  1439A      1.782438  
    1440A      1.795477  1441A      1.796194  1442A      1.797823  
    1443A      1.798099  1444A      1.799373  1445A      1.799485  
    1446A      1.803248  1447A      1.805973  1448A      1.808162  
    1449A      1.809986  1450A      1.810707  1451A      1.814214  
    1452A      1.814629  1453A      1.816779  1454A      1.819630  
    1455A      1.820475  1456A      1.821063  1457A      1.821867  
    1458A      1.822914  1459A      1.824055  1460A      1.824863  
    1461A      1.825477  1462A      1.825805  1463A      1.826546  
    1464A      1.831706  1465A      1.837243  1466A      1.842205  
    1467A      1.843906  1468A      1.846054  1469A      1.846230  
    1470A      1.848195  1471A      1.851190  1472A      1.852053  
    1473A      1.853314  1474A      1.855561  1475A      1.857286  
    1476A      1.857901  1477A      1.858549  1478A      1.859243  
    1479A      1.861661  1480A      1.863924  1481A      1.864131  
    1482A      1.869682  1483A      1.874375  1484A      1.876261  
    1485A      1.876696  1486A      1.877265  1487A      1.878439  
    1488A      1.879319  1489A      1.880026  1490A      1.881691  
    1491A      1.883534  1492A      1.884210  1493A      1.888125  
    1494A      1.889204  1495A      1.891604  1496A      1.894235  
    1497A      1.895235  1498A      1.897124  1499A      1.898403  
    1500A      1.900834  1501A      1.901338  1502A      1.901920  
    1503A      1.904624  1504A      1.906608  1505A      1.907418  
    1506A      1.910937  1507A      1.911098  1508A      1.912499  
    1509A      1.913692  1510A      1.917807  1511A      1.918264  
    1512A      1.920470  1513A      1.922984  1514A      1.929310  
    1515A      1.929885  1516A      1.931637  1517A      1.932751  
    1518A      1.933755  1519A      1.934394  1520A      1.936252  
    1521A      1.944135  1522A      1.947218  1523A      1.948245  
    1524A      1.951951  1525A      1.952838  1526A      1.954369  
    1527A      1.954891  1528A      1.955706  1529A      1.956244  
    1530A      1.957129  1531A      1.959039  1532A      1.959872  
    1533A      1.961490  1534A      1.962850  1535A      1.965900  
    1536A      1.966760  1537A      1.967566  1538A      1.968724  
    1539A      1.974578  1540A      1.977477  1541A      1.978769  
    1542A      1.980044  1543A      1.980872  1544A      1.985143  
    1545A      1.987904  1546A      1.989279  1547A      1.991620  
    1548A      1.994197  1549A      1.995433  1550A      1.995801  
    1551A      1.997572  1552A      1.998653  1553A      1.999113  
    1554A      2.000600  1555A      2.003826  1556A      2.006632  
    1557A      2.006940  1558A      2.008075  1559A      2.008885  
    1560A      2.014808  1561A      2.017385  1562A      2.018645  
    1563A      2.019425  1564A      2.019645  1565A      2.020463  
    1566A      2.021015  1567A      2.021481  1568A      2.023417  
    1569A      2.024290  1570A      2.025468  1571A      2.027922  
    1572A      2.028498  1573A      2.029450  1574A      2.030403  
    1575A      2.030696  1576A      2.031304  1577A      2.033400  
    1578A      2.036338  1579A      2.037682  1580A      2.038511  
    1581A      2.039770  1582A      2.040037  1583A      2.040893  
    1584A      2.043733  1585A      2.046085  1586A      2.047992  
    1587A      2.050766  1588A      2.051210  1589A      2.051716  
    1590A      2.053655  1591A      2.053872  1592A      2.055616  
    1593A      2.056875  1594A      2.057149  1595A      2.057802  
    1596A      2.062818  1597A      2.064151  1598A      2.065939  
    1599A      2.066601  1600A      2.066712  1601A      2.067721  
    1602A      2.068558  1603A      2.069183  1604A      2.071962  
    1605A      2.076085  1606A      2.078015  1607A      2.079630  
    1608A      2.080733  1609A      2.082377  1610A      2.083708  
    1611A      2.083841  1612A      2.085330  1613A      2.088713  
    1614A      2.092751  1615A      2.094439  1616A      2.095523  
    1617A      2.097312  1618A      2.097960  1619A      2.099189  
    1620A      2.099642  1621A      2.101018  1622A      2.103108  
    1623A      2.105768  1624A      2.108972  1625A      2.110448  
    1626A      2.112780  1627A      2.117624  1628A      2.119449  
    1629A      2.120541  1630A      2.121954  1631A      2.123031  
    1632A      2.126696  1633A      2.127046  1634A      2.128068  
    1635A      2.129437  1636A      2.130308  1637A      2.133866  
    1638A      2.134108  1639A      2.136035  1640A      2.138327  
    1641A      2.139913  1642A      2.140433  1643A      2.142308  
    1644A      2.144113  1645A      2.146547  1646A      2.149857  
    1647A      2.150095  1648A      2.151177  1649A      2.156139  
    1650A      2.156593  1651A      2.158671  1652A      2.160411  
    1653A      2.161650  1654A      2.163120  1655A      2.164102  
    1656A      2.166689  1657A      2.169954  1658A      2.170542  
    1659A      2.172601  1660A      2.173519  1661A      2.174703  
    1662A      2.175237  1663A      2.176102  1664A      2.180553  
    1665A      2.187623  1666A      2.188016  1667A      2.188951  
    1668A      2.190686  1669A      2.194025  1670A      2.204241  
    1671A      2.204821  1672A      2.206585  1673A      2.207049  
    1674A      2.209287  1675A      2.210242  1676A      2.214763  
    1677A      2.217973  1678A      2.221398  1679A      2.222171  
    1680A      2.226420  1681A      2.230793  1682A      2.232802  
    1683A      2.233650  1684A      2.236139  1685A      2.241793  
    1686A      2.242755  1687A      2.245906  1688A      2.248505  
    1689A      2.257546  1690A      2.258180  1691A      2.262272  
    1692A      2.262668  1693A      2.266295  1694A      2.266697  
    1695A      2.268153  1696A      2.268714  1697A      2.269529  
    1698A      2.270730  1699A      2.272217  1700A      2.274627  
    1701A      2.276230  1702A      2.278589  1703A      2.279720  
    1704A      2.280272  1705A      2.281125  1706A      2.281228  
    1707A      2.282508  1708A      2.284927  1709A      2.285511  
    1710A      2.287866  1711A      2.304823  1712A      2.308346  
    1713A      2.310024  1714A      2.322690  1715A      2.325350  
    1716A      2.330032  1717A      2.331793  1718A      2.333423  
    1719A      2.333992  1720A      2.345162  1721A      2.356022  
    1722A      2.358063  1723A      2.359603  1724A      2.361050  
    1725A      2.365281  1726A      2.368850  1727A      2.379944  
    1728A      2.381469  1729A      2.388552  1730A      2.389458  
    1731A      2.399053  1732A      2.401265  1733A      2.403367  
    1734A      2.405254  1735A      2.406177  1736A      2.409915  
    1737A      2.410215  1738A      2.414681  1739A      2.429725  
    1740A      2.431144  1741A      2.431328  1742A      2.441143  
    1743A      2.446641  1744A      2.447173  1745A      2.450519  
    1746A      2.456214  1747A      2.475741  1748A      2.476066  
    1749A      2.477429  1750A      2.479965  1751A      2.481430  
    1752A      2.482655  1753A      2.485108  1754A      2.487819  
    1755A      2.488470  1756A      2.490244  1757A      2.490917  
    1758A      2.491409  1759A      2.501277  1760A      2.508992  
    1761A      2.509911  1762A      2.511796  1763A      2.519788  
    1764A      2.523544  1765A      2.524347  1766A      2.525472  
    1767A      2.526629  1768A      2.529827  1769A      2.530523  
    1770A      2.530932  1771A      2.535028  1772A      2.535867  
    1773A      2.540504  1774A      2.540834  1775A      2.546582  
    1776A      2.551371  1777A      2.552315  1778A      2.552694  
    1779A      2.555170  1780A      2.557432  1781A      2.558977  
    1782A      2.570842  1783A      2.579145  1784A      2.580029  
    1785A      2.582348  1786A      2.583924  1787A      2.585795  
    1788A      2.586203  1789A      2.589580  1790A      2.593328  
    1791A      2.596617  1792A      2.596977  1793A      2.600096  
    1794A      2.602922  1795A      2.607371  1796A      2.608813  
    1797A      2.610531  1798A      2.611792  1799A      2.617726  
    1800A      2.620180  1801A      2.623803  1802A      2.625299  
    1803A      2.625860  1804A      2.628430  1805A      2.629423  
    1806A      2.630653  1807A      2.631107  1808A      2.633010  
    1809A      2.633224  1810A      2.635850  1811A      2.642509  
    1812A      2.660300  1813A      2.666499  1814A      2.668300  
    1815A      2.669154  1816A      2.671863  1817A      2.672513  
    1818A      2.674872  1819A      2.692168  1820A      2.694770  
    1821A      2.697576  1822A      2.705081  1823A      2.709867  
    1824A      2.714394  1825A      2.717021  1826A      2.718203  
    1827A      2.725610  1828A      2.734502  1829A      2.735026  
    1830A      2.737284  1831A      2.737644  1832A      2.738325  
    1833A      2.748820  1834A      2.749608  1835A      2.749890  
    1836A      2.751531  1837A      2.751946  1838A      2.754439  
    1839A      2.756830  1840A      2.766107  1841A      2.767854  
    1842A      2.776569  1843A      2.777367  1844A      2.780019  
    1845A      2.780536  1846A      2.782215  1847A      2.785244  
    1848A      2.789397  1849A      2.796353  1850A      2.800207  
    1851A      2.801922  1852A      2.802219  1853A      2.809026  
    1854A      2.810023  1855A      2.812383  1856A      2.814980  
    1857A      2.828359  1858A      2.829227  1859A      2.831832  
    1860A      2.855082  1861A      2.858222  1862A      2.858937  
    1863A      2.869304  1864A      2.870420  1865A      2.875107  
    1866A      2.875617  1867A      2.893325  1868A      2.902175  
    1869A      2.906849  1870A      2.907813  1871A      2.915598  
    1872A      2.933199  1873A      2.933529  1874A      2.960108  
    1875A      2.965811  1876A      2.966984  1877A      2.976770  
    1878A      2.980478  1879A      2.984626  1880A      2.986846  
    1881A      2.989319  1882A      2.994272  1883A      2.994721  
    1884A      3.006315  1885A      3.010471  1886A      3.038962  
    1887A      3.048774  1888A      3.053441  1889A      3.054180  
    1890A      3.061216  1891A      3.067819  1892A      3.068178  
    1893A      3.073232  1894A      3.074983  1895A      3.083108  
    1896A      3.083716  1897A      3.088303  1898A      3.089473  
    1899A      3.091870  1900A      3.093742  1901A      3.094786  
    1902A      3.098433  1903A      3.102292  1904A      3.102414  
    1905A      3.113293  1906A      3.115098  1907A      3.117022  
    1908A      3.120736  1909A      3.133722  1910A      3.135472  
    1911A      3.160798  1912A      3.192351  1913A      3.198881  
    1914A      3.199840  1915A      3.200176  1916A      3.200941  
    1917A      3.203486  1918A      3.208898  1919A      3.210509  
    1920A      3.214441  1921A      3.215071  1922A      3.236406  
    1923A      3.237862  1924A      3.242453  1925A      3.247265  
    1926A      3.297935  1927A      3.298568  1928A      3.307564  
    1929A      3.351316  1930A      3.366945  1931A      3.371852  
    1932A      3.374805  1933A      3.385818  1934A      3.392144  
    1935A      3.401796  1936A      3.403231  1937A      3.403796  
    1938A      3.409898  1939A      3.420596  1940A      3.421202  
    1941A      3.426070  1942A      3.444058  1943A      3.454997  
    1944A      3.482409  1945A      3.500003  1946A      3.514581  
    1947A      3.520234  1948A      3.527508  1949A      3.531456  
    1950A      3.578287  1951A      3.585092  1952A      3.589154  
    1953A      3.608246  1954A      3.622653  1955A      3.643183  
    1956A      3.687212  1957A      3.691943  1958A      3.694333  
    1959A      3.701466  1960A      3.716782  1961A      3.723162  
    1962A      3.780675  1963A      3.783310  1964A      3.812985  
    1965A      3.813334  1966A      3.853093  1967A      3.865567  
    1968A      3.876749  1969A      3.884585  1970A      3.886272  
    1971A      3.892903  1972A      3.906110  1973A      3.909484  
    1974A      3.919257  1975A      3.958795  1976A      3.960861  
    1977A      4.020566  1978A      4.179071  1979A      4.246835  
    1980A      4.349520  

    Final Occupation by Irrep:
              A 
    DOCC [   326 ]
    NA   [   326 ]
    NB   [   326 ]

  @DF-RHF Final Energy: -3953.66056955462045

   => Energetics <=

    Nuclear Repulsion Energy =          18124.9956700176517188
    One-Electron Energy =              -41456.0380013357935240
    Two-Electron Energy =               19377.3817617635213537
    Total Energy =                      -3953.6605695546204515

Computation Completed


Properties will be evaluated at   0.000000,   0.000000,   0.000000 [a0]

Properties computed using the SCF density matrix


 Multipole Moments:

 ------------------------------------------------------------------------------------
     Multipole            Electronic (a.u.)      Nuclear  (a.u.)        Total (a.u.)
 ------------------------------------------------------------------------------------

 L = 1.  Multiply by 2.5417464519 to convert [e a0] to [Debye]
 Dipole X            :         -0.0039093            0.0004804           -0.0034288
 Dipole Y            :         -7.2148349            8.7122315            1.4973967
 Dipole Z            :         20.9695459          -27.2651866           -6.2956406
 Magnitude           :                                                    6.4712672

 ------------------------------------------------------------------------------------

*** tstop() called on n2cn1157 at Sat Jan 27 01:53:11 2024
Module time:
	user time   =   30336.39 seconds =     505.61 minutes
	system time =    1756.12 seconds =      29.27 minutes
	total time  =       5954 seconds =      99.23 minutes
Total time:
	user time   =   30336.39 seconds =     505.61 minutes
	system time =    1756.12 seconds =      29.27 minutes
	total time  =       5954 seconds =      99.23 minutes

  //>>>>>>>>>>>>>>>>>>>>>>>>>>>>>>>>>>>//
  //            Monomer A HF           //
  //<<<<<<<<<<<<<<<<<<<<<<<<<<<<<<<<<<<//

   => Libint2 <=

    Primary   basis highest AM E, G, H:  5, 4, 3
    Auxiliary basis highest AM E, G, H:  6, 5, 4
    Onebody   basis highest AM E, G, H:  6, 5, 4
    Solid Harmonics ordering:            gaussian

*** tstart() called on n2cn1157
*** at Sat Jan 27 01:53:11 2024

   => Loading Basis Set <=

    Name: JUN-CC-PVDZ
    Role: ORBITAL
    Keyword: BASIS
    atoms 1-2, 4-5, 10, 17-34, 41-53, 56-70, 73-89, 92-104, 109-119, 122-130 entry C          line   164 file /opt/software/pc2/EB-SW/software/PSI4/1.9-foss-2022a/share/psi4/basis/jun-cc-pvdz.gbs 
    atoms 3, 6                                                               entry N          line   198 file /opt/software/pc2/EB-SW/software/PSI4/1.9-foss-2022a/share/psi4/basis/jun-cc-pvdz.gbs 
    atoms 7-9, 11-16, 35-40, 54-55, 71-72, 90-91, 105-108, 120-121, 131-136  entry H          line    36 file /opt/software/pc2/EB-SW/software/PSI4/1.9-foss-2022a/share/psi4/basis/jun-cc-pvdz.gbs 


         ---------------------------------------------------------
                                   SCF
               by Justin Turney, Rob Parrish, Andy Simmonett
                          and Daniel G. A. Smith
                              RHF Reference
                       16 Threads,  61035 MiB Core
         ---------------------------------------------------------

  ==> Geometry <==

    Molecular point group: c1
    Full point group: C1

    Geometry (in Angstrom), charge = 1, multiplicity = 1:

       Center              X                  Y                   Z               Mass       
    ------------   -----------------  -----------------  -----------------  -----------------
         C            0.680062820275     1.308604348936    -5.649971854981    12.000000000000
         C           -0.680508179725     1.310632348936    -5.649587854981    12.000000000000
         N           -1.085639179725     1.311630348936    -4.331263854981    14.003074004430
[...]
    1585A      2.194489  1586A      2.195951  1587A      2.198409  
    1588A      2.198835  1589A      2.200183  1590A      2.200574  
    1591A      2.201283  1592A      2.202720  1593A      2.204063  
    1594A      2.204746  1595A      2.206413  1596A      2.209018  
    1597A      2.209964  1598A      2.212884  1599A      2.215170  
    1600A      2.216843  1601A      2.220187  1602A      2.220580  
    1603A      2.222355  1604A      2.223169  1605A      2.224468  
    1606A      2.225779  1607A      2.228397  1608A      2.229343  
    1609A      2.230658  1610A      2.232442  1611A      2.233711  
    1612A      2.234769  1613A      2.235649  1614A      2.238521  
    1615A      2.239746  1616A      2.241225  1617A      2.244431  
    1618A      2.245907  1619A      2.250895  1620A      2.251743  
    1621A      2.254602  1622A      2.258264  1623A      2.263182  
    1624A      2.266306  1625A      2.267120  1626A      2.267867  
    1627A      2.269485  1628A      2.270993  1629A      2.280751  
    1630A      2.283815  1631A      2.284632  1632A      2.291896  
    1633A      2.292086  1634A      2.295879  1635A      2.297251  
    1636A      2.298522  1637A      2.302765  1638A      2.305037  
    1639A      2.307637  1640A      2.309812  1641A      2.311037  
    1642A      2.323347  1643A      2.325514  1644A      2.325772  
    1645A      2.328711  1646A      2.329668  1647A      2.330671  
    1648A      2.331091  1649A      2.333725  1650A      2.335203  
    1651A      2.335872  1652A      2.338446  1653A      2.339425  
    1654A      2.341927  1655A      2.343533  1656A      2.344258  
    1657A      2.345194  1658A      2.346271  1659A      2.346450  
    1660A      2.347876  1661A      2.348952  1662A      2.350211  
    1663A      2.354658  1664A      2.371210  1665A      2.374912  
    1666A      2.376088  1667A      2.380956  1668A      2.385123  
    1669A      2.386175  1670A      2.388231  1671A      2.393890  
    1672A      2.396239  1673A      2.397812  1674A      2.400743  
    1675A      2.409966  1676A      2.418481  1677A      2.420358  
    1678A      2.422819  1679A      2.426718  1680A      2.428287  
    1681A      2.434448  1682A      2.442159  1683A      2.445764  
    1684A      2.452159  1685A      2.453288  1686A      2.455666  
    1687A      2.462638  1688A      2.466062  1689A      2.467018  
    1690A      2.468878  1691A      2.470918  1692A      2.472216  
    1693A      2.472423  1694A      2.491274  1695A      2.492776  
    1696A      2.494714  1697A      2.499563  1698A      2.502935  
    1699A      2.507721  1700A      2.509278  1701A      2.512308  
    1702A      2.515904  1703A      2.518584  1704A      2.529005  
    1705A      2.533749  1706A      2.539325  1707A      2.540163  
    1708A      2.541546  1709A      2.544107  1710A      2.545067  
    1711A      2.547515  1712A      2.549414  1713A      2.550070  
    1714A      2.551263  1715A      2.552718  1716A      2.556822  
    1717A      2.557268  1718A      2.559760  1719A      2.564720  
    1720A      2.571627  1721A      2.571920  1722A      2.576493  
    1723A      2.581011  1724A      2.585793  1725A      2.586092  
    1726A      2.586780  1727A      2.587315  1728A      2.589608  
    1729A      2.590331  1730A      2.593364  1731A      2.594701  
    1732A      2.602404  1733A      2.602545  1734A      2.613502  
    1735A      2.614272  1736A      2.614716  1737A      2.615280  
    1738A      2.618638  1739A      2.620414  1740A      2.633328  
    1741A      2.638566  1742A      2.642742  1743A      2.643809  
    1744A      2.644550  1745A      2.646305  1746A      2.649270  
    1747A      2.650300  1748A      2.653409  1749A      2.654100  
    1750A      2.657478  1751A      2.658387  1752A      2.666373  
    1753A      2.667120  1754A      2.668507  1755A      2.670629  
    1756A      2.671175  1757A      2.671556  1758A      2.674673  
    1759A      2.678009  1760A      2.680687  1761A      2.683724  
    1762A      2.686169  1763A      2.689052  1764A      2.691232  
    1765A      2.692003  1766A      2.692660  1767A      2.693826  
    1768A      2.696262  1769A      2.697144  1770A      2.702100  
    1771A      2.704175  1772A      2.710490  1773A      2.714749  
    1774A      2.722288  1775A      2.724723  1776A      2.731144  
    1777A      2.731801  1778A      2.732462  1779A      2.733898  
    1780A      2.735212  1781A      2.756029  1782A      2.761166  
    1783A      2.762976  1784A      2.773810  1785A      2.777415  
    1786A      2.778819  1787A      2.779990  1788A      2.785060  
    1789A      2.785477  1790A      2.791836  1791A      2.799873  
    1792A      2.800448  1793A      2.802550  1794A      2.802659  
    1795A      2.804879  1796A      2.815033  1797A      2.816017  
    1798A      2.817103  1799A      2.818539  1800A      2.820638  
    1801A      2.821172  1802A      2.831320  1803A      2.835711  
    1804A      2.840950  1805A      2.843141  1806A      2.843869  
    1807A      2.844453  1808A      2.848163  1809A      2.865364  
    1810A      2.866673  1811A      2.867097  1812A      2.871525  
    1813A      2.873206  1814A      2.876515  1815A      2.896168  
    1816A      2.897075  1817A      2.901011  1818A      2.913653  
    1819A      2.918762  1820A      2.919554  1821A      2.920852  
    1822A      2.927169  1823A      2.931367  1824A      2.931730  
    1825A      2.934774  1826A      2.936906  1827A      2.950154  
    1828A      2.957682  1829A      2.965260  1830A      2.967611  
    1831A      2.969175  1832A      2.977178  1833A      2.989623  
    1834A      2.994145  1835A      2.995497  1836A      3.001747  
    1837A      3.030754  1838A      3.031473  1839A      3.033772  
    1840A      3.040427  1841A      3.042589  1842A      3.048301  
    1843A      3.049852  1844A      3.051293  1845A      3.057989  
    1846A      3.059243  1847A      3.064920  1848A      3.073479  
    1849A      3.077662  1850A      3.087584  1851A      3.108232  
    1852A      3.112778  1853A      3.114287  1854A      3.120986  
    1855A      3.124543  1856A      3.131143  1857A      3.131409  
    1858A      3.137563  1859A      3.139234  1860A      3.144398  
    1861A      3.145117  1862A      3.151139  1863A      3.153926  
    1864A      3.154326  1865A      3.157047  1866A      3.158057  
    1867A      3.162494  1868A      3.168347  1869A      3.172687  
    1870A      3.176854  1871A      3.177788  1872A      3.181909  
    1873A      3.194577  1874A      3.196015  1875A      3.220759  
    1876A      3.254326  1877A      3.260897  1878A      3.262277  
    1879A      3.263239  1880A      3.264131  1881A      3.266677  
    1882A      3.270717  1883A      3.272117  1884A      3.276037  
    1885A      3.276633  1886A      3.298442  1887A      3.300463  
    1888A      3.302128  1889A      3.305963  1890A      3.310147  
    1891A      3.341482  1892A      3.363213  1893A      3.363681  
    1894A      3.373018  1895A      3.399393  1896A      3.417150  
    1897A      3.431244  1898A      3.439014  1899A      3.446847  
    1900A      3.451548  1901A      3.459329  1902A      3.465693  
    1903A      3.469460  1904A      3.471808  1905A      3.474524  
    1906A      3.481442  1907A      3.487883  1908A      3.493253  
    1909A      3.495663  1910A      3.510049  1911A      3.521722  
    1912A      3.544205  1913A      3.552373  1914A      3.579889  
    1915A      3.581271  1916A      3.591163  1917A      3.592821  
    1918A      3.626168  1919A      3.648580  1920A      3.653300  
    1921A      3.656717  1922A      3.675212  1923A      3.686804  
    1924A      3.708186  1925A      3.753792  1926A      3.755824  
    1927A      3.759289  1928A      3.763963  1929A      3.768110  
    1930A      3.779137  1931A      3.790043  1932A      3.829369  
    1933A      3.844529  1934A      3.846897  1935A      3.874994  
    1936A      3.875762  1937A      3.878335  1938A      3.916846  
    1939A      3.929484  1940A      3.943015  1941A      3.949045  
    1942A      3.949703  1943A      3.958957  1944A      3.973945  
    1945A      3.976572  1946A      3.986018  1947A      4.008701  
    1948A      4.025026  1949A      4.027732  1950A      4.088307  
    1951A      4.223933  1952A      4.239959  1953A      4.254029  
    1954A      4.321022  1955A      4.404167  1956A      4.413340  
    1957A      4.424905  1958A      4.509722  1959A      4.781247  
    1960A      4.847050  1961A      4.861820  1962A      4.880926  
    1963A      4.965409  1964A      5.079087  1965A      5.083748  
    1966A      5.089999  1967A      5.129863  1968A      5.211106  
    1969A      5.411514  1970A      5.438063  1971A      5.760039  
    1972A      5.783551  1973A      6.077412  1974A     18.204751  
    1975A     18.479417  1976A     18.501417  1977A     18.580800  
    1978A     18.851063  1979A     25.353957  1980A     25.388902  

    Final Occupation by Irrep:
              A 
    DOCC [   300 ]
    NA   [   300 ]
    NB   [   300 ]

  @DF-RHF Final Energy: -3650.34071962856251

   => Energetics <=

    Nuclear Repulsion Energy =          15611.4211649754306563
    One-Electron Energy =              -36072.1688479439180810
    Two-Electron Energy =               16810.4069633399267332
    Total Energy =                      -3650.3407196285625105

Computation Completed


Properties will be evaluated at   0.000000,   0.000000,   0.000000 [a0]

Properties computed using the SCF density matrix


 Multipole Moments:

 ------------------------------------------------------------------------------------
     Multipole            Electronic (a.u.)      Nuclear  (a.u.)        Total (a.u.)
 ------------------------------------------------------------------------------------

 L = 1.  Multiply by 2.5417464519 to convert [e a0] to [Debye]
 Dipole X            :         -0.0007098            0.0002112           -0.0004986
 Dipole Y            :        123.2188895         -123.2131634            0.0057261
 Dipole Z            :       -414.9318844          414.9386586            0.0067742
 Magnitude           :                                                    0.0088840

 ------------------------------------------------------------------------------------

*** tstop() called on n2cn1157 at Sat Jan 27 03:40:04 2024
Module time:
	user time   =   20693.08 seconds =     344.88 minutes
	system time =    1327.29 seconds =      22.12 minutes
	total time  =       3858 seconds =      64.30 minutes
Total time:
	user time   =   57657.16 seconds =     960.95 minutes
	system time =    3562.35 seconds =      59.37 minutes
	total time  =      12367 seconds =     206.12 minutes
  Constructing Basis Sets for SAPT...

   => Loading Basis Set <=

    Name: (JUN-CC-PVDZ AUX)
    Role: RIFIT
    Keyword: DF_BASIS_SAPT
    atoms 1-2, 4-5, 10, 17-34, 41-53, 56-70, 73-89, 92-104, 109-119, 122-130 entry C          line   100 file /opt/software/pc2/EB-SW/software/PSI4/1.9-foss-2022a/share/psi4/basis/jun-cc-pvdz-ri.gbs 
    atoms 3, 6                                                               entry N          line   144 file /opt/software/pc2/EB-SW/software/PSI4/1.9-foss-2022a/share/psi4/basis/jun-cc-pvdz-ri.gbs 
    atoms 7-9, 11-16, 35-40, 54-55, 71-72, 90-91, 105-108, 120-121, 131-136  entry H          line    30 file /opt/software/pc2/EB-SW/software/PSI4/1.9-foss-2022a/share/psi4/basis/jun-cc-pvdz-ri.gbs 

   => Loading Basis Set <=

    Name: (JUN-CC-PVDZ AUX)
    Role: JKFIT
    Keyword: DF_BASIS_ELST
    atoms 1-2, 4-5, 10, 17-34, 41-53, 56-70, 73-89, 92-104, 109-119, 122-130 entry C          line   146 file /opt/software/pc2/EB-SW/software/PSI4/1.9-foss-2022a/share/psi4/basis/jun-cc-pvdz-jkfit.gbs 
    atoms 3, 6                                                               entry N          line   202 file /opt/software/pc2/EB-SW/software/PSI4/1.9-foss-2022a/share/psi4/basis/jun-cc-pvdz-jkfit.gbs 
    atoms 7-9, 11-16, 35-40, 54-55, 71-72, 90-91, 105-108, 120-121, 131-136  entry H          line    70 file /opt/software/pc2/EB-SW/software/PSI4/1.9-foss-2022a/share/psi4/basis/jun-cc-pvdz-jkfit.gbs 


  //>>>>>>>>>>>>>>>>>>>>>>>>>>>>>>>>>>>//
  //               SSAPT0              //
  //<<<<<<<<<<<<<<<<<<<<<<<<<<<<<<<<<<<//


*** tstart() called on n2cn1157
*** at Sat Jan 27 03:40:06 2024

        SAPT0  
    Ed Hohenstein
     6 June 2009

      Orbital Information
  --------------------------
    NSO        =      2019
    NMO        =      1980
    NRI        =      7157
    NRI (Elst) =      8896
    NOCC A     =        26
    NOCC B     =       300
    FOCC A     =         7
    FOCC B     =        96
    NVIR A     =      1954
    NVIR B     =      1680

    Elst10,r            =    -0.012517337729 [Eh]
    Exch10              =     0.003210375464 [Eh]
    Exch10 (S^2)        =     0.003206996405 [Eh]

    Iter     Energy [mEh]          dE [mEh]         Residual      Time [s]
       1      -0.14117117       0.141171169       1.884736126           390
       2      -0.15429194       0.013120774       0.667380497           767
       3      -0.16282463       0.008532689       0.088475814          1099
       4      -0.16262823      -0.000196398       0.036687770          1454
       5      -0.16254277      -0.000085462       0.013070234          1736
       6      -0.16257631       0.000033532       0.005073948          2027
       7      -0.16258426       0.000007956       0.001658183          2357
       8      -0.16258230      -0.000001958       0.000570759          2667
       9      -0.16258114      -0.000001166       0.000175175          2943
      10      -0.16258111      -0.000000027       0.000049343          3320
      11      -0.16258123       0.000000116       0.000013789          3635
      12      -0.16258123       0.000000006       0.000004350          3874
      13      -0.16258123      -0.000000008       0.000001098          4216
      14      -0.16258123      -0.000000000       0.000000378          4432

    CHF Iterations converged


    Iter     Energy [mEh]          dE [mEh]         Residual      Time [s]
       1     -17.72396289      17.723962888      71.485649083           368
       2     -11.64079734      -6.083165551       9.165708486           741
       3     -11.64460735       0.003810009       3.391971288          1116
       4     -11.92073980       0.276132451       1.078110655          1447
       5     -11.95300432       0.032264525       0.404057508          1735
       6     -11.94471892      -0.008285405       0.263996593          2094
       7     -11.93809555      -0.006623367       0.103692636          2475
       8     -11.93898547       0.000889924       0.046696290          2823
       9     -11.94011929       0.001133820       0.016029497          3222
      10     -11.94006497      -0.000054322       0.011159457          3638
      11     -11.93989666      -0.000168314       0.006790586          3980
      12     -11.93987545      -0.000021206       0.004718640          4317
      13     -11.93994153       0.000066076       0.002800738          4676
      14     -11.93995807       0.000016541       0.001699566          4961
      15     -11.93994309      -0.000014979       0.000947889          5393
      16     -11.93993233      -0.000010755       0.000341320          5848
      17     -11.93993633       0.000003995       0.000160938          6356
      18     -11.93993836       0.000002029       0.000081045          6853
      19     -11.93993806      -0.000000300       0.000059328          7248
      20     -11.93993719      -0.000000873       0.000032269          7709
      21     -11.93993731       0.000000125       0.000017120          8149
      22     -11.93993752       0.000000211       0.000007017          8524
      23     -11.93993752       0.000000002       0.000003015          8850
      24     -11.93993749      -0.000000033       0.000001659          9169
      25     -11.93993748      -0.000000009       0.000000885          9402

    CHF Iterations converged

    Ind20,r (A<-B)      =    -0.000162581226 [Eh]
    Ind20,r (B<-A)      =    -0.011939937482 [Eh]
    Ind20,r             =    -0.012102518707 [Eh]
    Exch-Ind20,r (A<-B) =     0.000135159149 [Eh]
    Exch-Ind20,r (B<-A) =     0.000609336751 [Eh]
    Exch-Ind20,r        =     0.000744495900 [Eh]
    Disp20              =    -0.012957236887 [Eh]
    Disp20 (SS)         =    -0.006478618443 [Eh]
    Disp20 (OS)         =    -0.006478618443 [Eh]
    Exch-Disp20         =     0.000314782102 [Eh]
    Exch-Disp20 (SS)    =     0.000199651698 [Eh]
    Exch-Disp20 (OS)    =     0.000115130404 [Eh]

    SAPT Results 
  --------------------------------------------------------------------------------------------------------
    Electrostatics                -12.51733773 [mEh]      -7.85474801 [kcal/mol]     -32.86426568 [kJ/mol]
      Elst10,r                    -12.51733773 [mEh]      -7.85474801 [kcal/mol]     -32.86426568 [kJ/mol]

    Exchange                        3.21037546 [mEh]       2.01454102 [kcal/mol]       8.42883962 [kJ/mol]
      Exch10                        3.21037546 [mEh]       2.01454102 [kcal/mol]       8.42883962 [kJ/mol]
      Exch10(S^2)                   3.20699640 [mEh]       2.01242063 [kcal/mol]       8.41996790 [kJ/mol]

    Induction                     -12.55007340 [mEh]      -7.87528996 [kcal/mol]     -32.95021318 [kJ/mol]
      Ind20,r                     -12.10251871 [mEh]      -7.59444515 [kcal/mol]     -31.77515849 [kJ/mol]
      Exch-Ind20,r                  0.74449590 [mEh]       0.46717823 [kcal/mol]       1.95467372 [kJ/mol]
      delta HF,r (2)               -1.19205060 [mEh]      -0.74802304 [kcal/mol]      -3.12972841 [kJ/mol]

    Dispersion                    -12.64245478 [mEh]      -7.93326015 [kcal/mol]     -33.19276046 [kJ/mol]
      Disp20                      -12.95723689 [mEh]      -8.13078890 [kcal/mol]     -34.01922076 [kJ/mol]
      Exch-Disp20                   0.31478210 [mEh]       0.19752875 [kcal/mol]       0.82646029 [kJ/mol]
      Disp20 (SS)                  -6.47861844 [mEh]      -4.06539445 [kcal/mol]     -17.00961038 [kJ/mol]
      Disp20 (OS)                  -6.47861844 [mEh]      -4.06539445 [kcal/mol]     -17.00961038 [kJ/mol]
      Exch-Disp20 (SS)              0.19965170 [mEh]       0.12528333 [kcal/mol]       0.52418546 [kJ/mol]
      Exch-Disp20 (OS)              0.11513040 [mEh]       0.07224542 [kcal/mol]       0.30227483 [kJ/mol]

  Total HF                        -21.85703567 [mEh]     -13.71549695 [kcal/mol]     -57.38563924 [kJ/mol]
  Total SAPT0                     -34.49949045 [mEh]     -21.64875710 [kcal/mol]     -90.57839971 [kJ/mol]

  Special recipe for scaled SAPT0 (see Manual):
    Electrostatics sSAPT0         -12.51733773 [mEh]      -7.85474801 [kcal/mol]     -32.86426568 [kJ/mol]
    Exchange sSAPT0                 3.21037546 [mEh]       2.01454102 [kcal/mol]       8.42883962 [kJ/mol]
    Induction sSAPT0              -12.54771760 [mEh]      -7.87381167 [kcal/mol]     -32.94402803 [kJ/mol]
    Dispersion sSAPT0             -12.64145872 [mEh]      -7.93263511 [kcal/mol]     -33.19014530 [kJ/mol]
  Total sSAPT0                    -34.49613859 [mEh]     -21.64665378 [kcal/mol]     -90.56959940 [kJ/mol]
  --------------------------------------------------------------------------------------------------------

*** tstop() called on n2cn1157 at Sat Jan 27 14:47:24 2024
Module time:
	user time   =   76602.20 seconds =    1276.70 minutes
	system time =    3788.54 seconds =      63.14 minutes
	total time  =      40038 seconds =     667.30 minutes
Total time:
	user time   =  134260.86 seconds =    2237.68 minutes
	system time =    7350.89 seconds =     122.51 minutes
	total time  =      52407 seconds =     873.45 minutes

    Psi4 stopped on: Saturday, 27 January 2024 02:47PM
    Psi4 wall time for execution: 14:33:29.29

*** Psi4 exiting successfully. Buy a developer a beer!
