
    -----------------------------------------------------------------------
          Psi4: An Open-Source Ab Initio Electronic Structure Package
                               Psi4 1.9 release

                         Git: Rev {} zzzzzzz 


    D. G. A. Smith, L. A. Burns, A. C. Simmonett, R. M. Parrish,
    M. C. Schieber, R. Galvelis, P. Kraus, H. Kruse, R. Di Remigio,
    A. Alenaizan, A. M. James, S. Lehtola, J. P. Misiewicz, M. Scheurer,
    R. A. Shaw, J. B. Schriber, Y. Xie, Z. L. Glick, D. A. Sirianni,
    J. S. O'Brien, J. M. Waldrop, A. Kumar, E. G. Hohenstein,
    B. P. Pritchard, B. R. Brooks, H. F. Schaefer III, A. Yu. Sokolov,
    K. Patkowski, A. E. DePrince III, U. Bozkaya, R. A. King,
    F. A. Evangelista, J. M. Turney, T. D. Crawford, C. D. Sherrill,
    J. Chem. Phys. 152(18) 184108 (2020). https://doi.org/10.1063/5.0006002

                            Additional Code Authors
    E. T. Seidl, C. L. Janssen, E. F. Valeev, M. L. Leininger,
    J. F. Gonthier, R. M. Richard, H. R. McAlexander, M. Saitow, X. Wang,
    P. Verma, M. H. Lechner, A. Jiang, S. Behnle, A. G. Heide,
    M. F. Herbst, and D. L. Poole

             Previous Authors, Complete List of Code Contributors,
                       and Citations for Specific Modules
    https://github.com/psi4/psi4/blob/master/codemeta.json
    https://github.com/psi4/psi4/graphs/contributors
    http://psicode.org/psi4manual/master/introduction.html#citing-psifour

    -----------------------------------------------------------------------


    Psi4 started on: Saturday, 27 January 2024 11:25AM

    Process ID: 1734062
    Host:       n2cn0817
    PSIDATADIR: /opt/software/pc2/EB-SW/software/PSI4/1.9-foss-2022a/share/psi4
    Memory:     500.0 MiB
    Threads:    16
    
  ==> Input File <==

--------------------------------------------------------------------------
memory 64 GB # how much memory is available ! Depends on the nodes/cores !

molecule dimer {
# monomer A
-1 1    # Charge and multiplicity
B -0.000046  0.000337 2.799994
F -1.153597  0.000048 3.615641
F  1.153661 -0.000581 3.615641
F -0.000019 -1.153637 1.984360
F -0.000019  1.153978 1.984360
--
# monomer B
0 1     # Charge and multiplicity
C   -3.66844126402057      7.80375217008252      0.00190004133558
C   -4.84759871934653      7.13124183134024     -0.00046653359696
C   -4.89495929917518      5.69633040353158     -0.00103944469517
C   -3.65374067877320      4.98073034095895      0.00662099703436
C   -2.40942512149445      7.11398103667468      0.00209438359570
C   -2.42547734410473      5.68112195090346     -0.00491050527438
C   -1.19474401643570      7.78614419430947      0.00356656413763
C   0.03795902893699      7.09942164575698      0.00139585983271
C   0.03033258741920      5.66948955970466     -0.00408752508301
C   -1.20098450790502      4.96927034791531      0.00488220885047
C   1.27795782581485      7.77285944319479      0.00277170839332
C   2.48535808472416      7.08769688523756      0.00049722048857
C   2.48612868491717      5.65477081024076     -0.00644052849921
C   1.25408291964399      4.95607811366431      0.00518741308898
C   3.75171459140595      7.76391215098033      0.00062407186893
C   4.92356605618520      7.07878077698995     -0.00143240883900
C   4.95560727132542      5.64344746336949     -0.00159282164606
C   3.70680153420475      4.94121020833308      0.00349873852374
H   -3.65852113775815      8.89082741913536      0.00358502958574
H   -1.18921332975660      8.87412108735996      0.00753844057883
H   1.28429423888630      8.86083343548850      0.00693053253426
H   3.75354208679975      8.85103527897216      0.00214659618464
H   5.86995870320703      7.61379483465560     -0.00235777588134
H   -5.78823170750226      7.67630221293400     -0.00202638095293
C   -6.09197395869619      4.99326001364347     -0.00291168518608
C   -6.12866148031747      3.58258016879823     -0.00171050815740
C   -3.66457974004527      3.56418217974434     -0.00463560277484
C   -4.89429820469869      2.86108077590057      0.00453338221034
C   -2.43733499489796      2.84761165708481      0.00719617576166
C   -1.20922785759670      3.54788693497833     -0.00648285103018
C   1.24714157216223      3.53468075142962     -0.00729145743546
C   0.01517603956900      2.83311183930540      0.00439272578912
C   2.46764517244071      2.82128997725533      0.00449278391269
C   3.70254947457969      3.52466015442405     -0.00899517692985
C   6.14498038638375      4.92757236613191     -0.00282626685777
C   6.16658835886151      3.51658447594213     -0.00065971342101
C   4.92460995845939      2.80840792535402      0.00587903281610
H   7.08990550964105      5.46688776622306     -0.00658814770723
H   -7.03104175110130      5.54268795285765     -0.00714490013730
C   -7.33969804112295      2.85841153457957     -0.00333767559888
C   -7.36488195805880      1.47032337158330     -0.00157213747140
C   -4.90350460894690      1.44442681216000     -0.00628840166334
C   -6.13225715261081      0.73993935705394      0.00600164231964
C   -3.67687480051673      0.72669714267312      0.00433931473643
C   -2.44565658606518      1.42964113326212     -0.00597039546461
C   -1.22360068130162      0.71532450163492      0.00545886906656
C   0.00763786931376      1.41738314923765      0.00392452278437
C   1.23121980774686      0.70211669058719     -0.01490206287210
C   2.46082110053113      1.40329203612573      0.00460244601878
C   3.68443025419614      0.68719842821222      0.00377365974158
C   4.91870890153864      1.39173456118907     -0.00862816189375
C   7.36980207796101      2.77948220318441     -0.00242013321349
C   7.38016266612146      1.39121750785509     -0.00087345036788
C   6.13979953912259      0.67411862320065      0.00545489144369
H   -8.27919079934664      3.40711804112415     -0.00763522772059
H   8.31511347147953      3.31811809662368     -0.00663070901292
C   -8.59175593758115      0.72483255304480     -0.00123170985383
C   -8.59902460370342     -0.63263980622873      0.00089141472904
C   -6.13981313911873     -0.67413663715361     -0.00609792660607
C   -7.38018411213749     -1.39126618958160      0.00131813493501
C   -4.91868448025621     -1.39175501803000      0.00624257154343
C   -3.68443829568458     -0.68723731573599     -0.00478966852105
C   -2.46081704024768     -1.40334517882457      0.00575341766833
C   -1.23116201232071     -0.70217386488055     -0.00636696112346
C   -0.00756962538737     -1.41741884941102      0.00108956317991
C   1.22364771588843     -0.71527537726392      0.01109518512883
C   2.44567064933149     -1.42964328900682     -0.00065482763106
C   3.67686670284649     -0.72670743155550     -0.00479541202602
C   6.13224884641929     -0.73997883984993     -0.00632338623858
C   4.90351914550401     -1.44445752054090      0.00751768830159
C   8.59901484869081      0.63260386666793     -0.00101133422380
C   8.59174548810050     -0.72485086719319      0.00072504603735
C   7.36486276438985     -1.47033266560598      0.00049486934466
H   -9.52830597181814      1.27684744919284     -0.00270163681798
H   9.54141097460619      1.17457248844457     -0.00206336648518
C   -7.36983790976868     -2.77954514593389      0.00312634335708
C   -4.92459910905015     -2.80843725734101     -0.00460528907921
C   -6.16662249566744     -3.51665219282533      0.00169655107992
C   -3.70251035970491     -3.52468154912026      0.00571878010666
C   -2.46764698511392     -2.82132596280400     -0.00632585824990
C   -0.01513347410770     -2.83314164539971     -0.00604426974092
C   -1.24712184122656     -3.53473217556300      0.00551968366725
C   1.20924506964357     -3.54791467864352      0.00805871345849
C   2.43733602215464     -2.84764173817541     -0.00608104485234
C   4.89430234377080     -2.86112296828604     -0.00526030478103
C   3.66461525504104     -3.56421984553201      0.00761911515957
C   6.12863901474565     -3.58258405771778      0.00096495711699
C   7.33967266469532     -2.85841330737039      0.00248018319869
H   -9.54144911125902     -1.17456346666430      0.00226083090216
H   9.52826186807155     -1.27691907390448      0.00197485379837
H   -8.31516504384864     -3.31814985321231      0.00729857188773
H   8.27915514249207     -3.40714078989363      0.00681973918158
C   -6.14499418870218     -4.92764727278338      0.00302254913999
C   -3.70678334799751     -4.94126171411716     -0.00679841894792
C   -4.95559005800169     -5.64349397349412      0.00116871569699
C   -2.48612132622665     -5.65478557440947      0.00614125209662
C   -1.25405833548005     -4.95612205000132     -0.00503435388927
C   1.20101257386816     -4.96928038819302     -0.00385322963129
C   -0.03033667441341     -5.66952030313900      0.00398997003238
C   3.65375010132847     -4.98074377541453     -0.00309522988330
C   2.42549269587528     -5.68117463552727      0.00628170066869
C   6.09196561781097     -4.99325796338655      0.00325918379042
C   4.89497644461045     -5.69634842095790      0.00202298796027
H   -7.08989238804069     -5.46699984223871      0.00742531082125
H   7.03105520920009     -5.54265853633254      0.00683896355417
C   -4.92354532219813     -7.07882109967734      0.00061394679214
C   -2.48534208823777     -7.08772807792913     -0.00189594564379
C   -3.75168589177895     -7.76394715763627     -0.00170126671874
C   -0.03794895698805     -7.09946487446944     -0.00168022049625
C   -1.27795610040136     -7.77290438466689     -0.00366491325785
C   2.40944432072629     -7.11402201200282     -0.00081701968533
C   1.19474993715296     -7.78618536556242     -0.00296931056689
C   4.84762105249800     -7.13126211057943      0.00168979497423
C   3.66847160587561     -7.80378799294376     -0.00065863938960
H   -5.86994035041618     -7.61383059804164      0.00215798365757
H   5.78824962538815     -7.67633218931421      0.00281691445618
H   -3.75352693944918     -8.85107156923607     -0.00353718114765
H   -1.28430440589466     -8.86087539249706     -0.00809229711623
H   1.18922157469537     -8.87416062058945     -0.00706194725726
H   3.65854661482387     -8.89086063405326     -0.00231318081200

    units angstrom      # Angstroms are the default
    no_reorient         # Geometry fixed, default
    symmetry c1         # C1 symmetry, default
}

set {
    scf_type DF         # Density fitting, faster than exact integrals
    freeze_core True    # Freeze core electrons
    basis jun-cc-pVDZ   # Jun-cc-pVDZ basis set, recommended for sSAPT0 in https://doi.org/10.1063/1.4867135
}

energy('ssapt0')        # Compute sSAPT0 energy, includes also SAPT0
--------------------------------------------------------------------------

  Memory set to  59.605 GiB by Python driver.

Scratch directory: /tmp/
   => Loading Basis Set <=

    Name: JUN-CC-PVDZ
    Role: ORBITAL
    Keyword: BASIS
    atoms 1                                                   entry B          line   130 file /opt/software/pc2/EB-SW/software/PSI4/1.9-foss-2022a/share/psi4/basis/jun-cc-pvdz.gbs 
    atoms 2-5                                                 entry F          line   266 file /opt/software/pc2/EB-SW/software/PSI4/1.9-foss-2022a/share/psi4/basis/jun-cc-pvdz.gbs 
    atoms 6-23, 30-42, 45-59, 62-78, 81-93, 98-108, 111-119   entry C          line   164 file /opt/software/pc2/EB-SW/software/PSI4/1.9-foss-2022a/share/psi4/basis/jun-cc-pvdz.gbs 
    atoms 24-29, 43-44, 60-61, 79-80, 94-97, 109-110, 120-125 entry H          line    36 file /opt/software/pc2/EB-SW/software/PSI4/1.9-foss-2022a/share/psi4/basis/jun-cc-pvdz.gbs 

   => Loading Basis Set <=

    Name: JUN-CC-PVDZ
    Role: ORBITAL
    Keyword: BASIS
    atoms 1                                                   entry B          line   130 file /opt/software/pc2/EB-SW/software/PSI4/1.9-foss-2022a/share/psi4/basis/jun-cc-pvdz.gbs 
    atoms 2-5                                                 entry F          line   266 file /opt/software/pc2/EB-SW/software/PSI4/1.9-foss-2022a/share/psi4/basis/jun-cc-pvdz.gbs 
    atoms 6-23, 30-42, 45-59, 62-78, 81-93, 98-108, 111-119   entry C          line   164 file /opt/software/pc2/EB-SW/software/PSI4/1.9-foss-2022a/share/psi4/basis/jun-cc-pvdz.gbs 
    atoms 24-29, 43-44, 60-61, 79-80, 94-97, 109-110, 120-125 entry H          line    36 file /opt/software/pc2/EB-SW/software/PSI4/1.9-foss-2022a/share/psi4/basis/jun-cc-pvdz.gbs 


  //>>>>>>>>>>>>>>>>>>>>>>>>>>>>>>>>>>>//
  //              Dimer HF             //
  //<<<<<<<<<<<<<<<<<<<<<<<<<<<<<<<<<<<//

   => Libint2 <=

    Primary   basis highest AM E, G, H:  5, 4, 3
    Auxiliary basis highest AM E, G, H:  6, 5, 4
    Onebody   basis highest AM E, G, H:  6, 5, 4
    Solid Harmonics ordering:            gaussian

*** tstart() called on n2cn0817
*** at Sat Jan 27 11:25:37 2024

   => Loading Basis Set <=

    Name: JUN-CC-PVDZ
    Role: ORBITAL
    Keyword: BASIS
    atoms 1                                                   entry B          line   130 file /opt/software/pc2/EB-SW/software/PSI4/1.9-foss-2022a/share/psi4/basis/jun-cc-pvdz.gbs 
    atoms 2-5                                                 entry F          line   266 file /opt/software/pc2/EB-SW/software/PSI4/1.9-foss-2022a/share/psi4/basis/jun-cc-pvdz.gbs 
    atoms 6-23, 30-42, 45-59, 62-78, 81-93, 98-108, 111-119   entry C          line   164 file /opt/software/pc2/EB-SW/software/PSI4/1.9-foss-2022a/share/psi4/basis/jun-cc-pvdz.gbs 
    atoms 24-29, 43-44, 60-61, 79-80, 94-97, 109-110, 120-125 entry H          line    36 file /opt/software/pc2/EB-SW/software/PSI4/1.9-foss-2022a/share/psi4/basis/jun-cc-pvdz.gbs 


         ---------------------------------------------------------
                                   SCF
               by Justin Turney, Rob Parrish, Andy Simmonett
                          and Daniel G. A. Smith
                              RHF Reference
                       16 Threads,  61035 MiB Core
         ---------------------------------------------------------

  ==> Geometry <==

    Molecular point group: c1
    Full point group: C1

    Geometry (in Angstrom), charge = -1, multiplicity = 1:

       Center              X                  Y                   Z               Mass       
    ------------   -----------------  -----------------  -----------------  -----------------
         B           -0.000050191042     0.000351518223     2.607139441490    11.009305360000
         F           -1.153601191042     0.000062518223     3.422786441490    18.998403162730
         F            1.153656808958    -0.000566481777     3.422786441490    18.998403162730
         F           -0.000023191042    -1.153622481777     1.791505441490    18.998403162730
         F           -0.000023191042     1.153992518223     1.791505441490    18.998403162730
         C           -3.668445455062     7.803766688305    -0.190954517175    12.000000000000
         C           -4.847602910388     7.131256349563    -0.193321092107    12.000000000000
         C           -4.894963490217     5.696344921754    -0.193894003205    12.000000000000
         C           -3.653744869815     4.980744859182    -0.186233561476    12.000000000000
         C           -2.409429312536     7.113995554897    -0.190760174915    12.000000000000
         C           -2.425481535146     5.681136469126    -0.197765063785    12.000000000000
         C           -1.194748207477     7.786158712532    -0.189287994373    12.000000000000
         C            0.037954837895     7.099436163980    -0.191458698678    12.000000000000
         C            0.030328396378     5.669504077927    -0.196942083593    12.000000000000
         C           -1.200988698947     4.969284866138    -0.187972349660    12.000000000000
         C            1.277953634773     7.772873961417    -0.190082850117    12.000000000000
         C            2.485353893683     7.087711403460    -0.192357338022    12.000000000000
         C            2.486124493876     5.654785328463    -0.199295087009    12.000000000000
         C            1.254078728602     4.956092631887    -0.187667145421    12.000000000000
         C            3.751710400364     7.763926669203    -0.192230486641    12.000000000000
         C            4.923561865144     7.078795295213    -0.194286967349    12.000000000000
         C            4.955603080284     5.643461981592    -0.194447380156    12.000000000000
         C            3.706797343163     4.941224726556    -0.189355819987    12.000000000000
         H           -3.658525328800     8.890841937358    -0.189269528925     1.007825032230
         H           -1.189217520798     8.874135605583    -0.185316117931     1.007825032230
         H            1.284290047845     8.860847953711    -0.185924025976     1.007825032230
         H            3.753537895758     8.851049797195    -0.190707962326     1.007825032230
         H            5.869954512165     7.613809352878    -0.195212334392     1.007825032230
         H           -5.788235898544     7.676316731157    -0.194880939463     1.007825032230
         C           -6.091978149738     4.993274531866    -0.195766243696    12.000000000000
         C           -6.128665671359     3.582594687021    -0.194565066668    12.000000000000
         C           -3.664583931087     3.564196697967    -0.197490161285    12.000000000000
         C           -4.894302395740     2.861095294123    -0.188321176300    12.000000000000
         C           -2.437339185940     2.847626175307    -0.185658382749    12.000000000000
         C           -1.209232048638     3.547901453201    -0.199337409540    12.000000000000
         C            1.247137381121     3.534695269652    -0.200146015946    12.000000000000
         C            0.015171848527     2.833126357528    -0.188461832721    12.000000000000
         C            2.467640981399     2.821304495478    -0.188361774598    12.000000000000
         C            3.702545283538     3.524674672647    -0.201849735440    12.000000000000
         C            6.144976195342     4.927586884354    -0.195680825368    12.000000000000
         C            6.166584167820     3.516598994165    -0.193514271931    12.000000000000
         C            4.924605767418     2.808422443577    -0.186975525694    12.000000000000
         H            7.089901318599     5.466902284446    -0.199442706218     1.007825032230
         H           -7.031045942143     5.542702471080    -0.199999458648     1.007825032230
         C           -7.339702232165     2.858426052802    -0.196192234109    12.000000000000
         C           -7.364886149100     1.470337889806    -0.194426695982    12.000000000000
         C           -4.903508799989     1.444441330383    -0.199142960174    12.000000000000
         C           -6.132261343652     0.739953875277    -0.186852916191    12.000000000000
         C           -3.676878991558     0.726711660896    -0.188515243774    12.000000000000
         C           -2.445660777107     1.429655651485    -0.198824953975    12.000000000000
         C           -1.223604872343     0.715339019858    -0.187395689444    12.000000000000
         C            0.007633678272     1.417397667460    -0.188930035726    12.000000000000
         C            1.231215616705     0.702131208810    -0.207756621382    12.000000000000
         C            2.460816909489     1.403306554348    -0.188252112492    12.000000000000
         C            3.684426063155     0.687212946435    -0.189080898769    12.000000000000
         C            4.918704710497     1.391749079412    -0.201482720404    12.000000000000
         C            7.369797886919     2.779496721407    -0.195274691724    12.000000000000
         C            7.380158475080     1.391232026078    -0.193728008878    12.000000000000
         C            6.139795348081     0.674133141423    -0.187399667067    12.000000000000
         H           -8.279194990388     3.407132559347    -0.200489786231     1.007825032230
         H            8.315109280438     3.318132614846    -0.199485267523     1.007825032230
         C           -8.591760128623     0.724847071267    -0.194086268364    12.000000000000
         C           -8.599028794745    -0.632625288006    -0.191963143781    12.000000000000
         C           -6.139817330160    -0.674122118931    -0.198952485116    12.000000000000
         C           -7.380188303179    -1.391251671359    -0.191536423575    12.000000000000
         C           -4.918688671298    -1.391740499807    -0.186611986967    12.000000000000
         C           -3.684442486726    -0.687222797513    -0.197644227031    12.000000000000
         C           -2.460821231289    -1.403330660602    -0.187101140842    12.000000000000
         C           -1.231166203362    -0.702159346658    -0.199221519634    12.000000000000
         C           -0.007573816429    -1.417404331188    -0.191764995330    12.000000000000
         C            1.223643524847    -0.715260859041    -0.181759373381    12.000000000000
         C            2.445666458290    -1.429628770784    -0.193509386141    12.000000000000
         C            3.676862511805    -0.726692913333    -0.197649970536    12.000000000000
         C            6.132244655378    -0.739964321627    -0.199177944749    12.000000000000
         C            4.903514954462    -1.444443002318    -0.185336870209    12.000000000000
         C            8.599010657649     0.632618384891    -0.193865892734    12.000000000000
         C            8.591741297059    -0.724836348971    -0.192129512473    12.000000000000
         C            7.364858573348    -1.470318147383    -0.192359689166    12.000000000000
         H           -9.528310162860     1.276861967415    -0.195556195328     1.007825032230
         H            9.541406783565     1.174587006667    -0.194917924995     1.007825032230
         C           -7.369842100810    -2.779530627711    -0.189728215153    12.000000000000
         C           -4.924603300092    -2.808422739118    -0.197459847589    12.000000000000
         C           -6.166626686709    -3.516637674603    -0.191158007430    12.000000000000
         C           -3.702514550747    -3.524667030898    -0.187135778404    12.000000000000
         C           -2.467651176156    -2.821311444581    -0.199180416760    12.000000000000
         C           -0.015137665149    -2.833127127177    -0.198898828251    12.000000000000
         C           -1.247126032268    -3.534717657340    -0.187334874843    12.000000000000
         C            1.209240878602    -3.547900160421    -0.184795845052    12.000000000000
         C            2.437331831113    -2.847627219953    -0.198935603363    12.000000000000
         C            4.894298152729    -2.861108450063    -0.198114863291    12.000000000000
         C            3.664611063999    -3.564205327309    -0.185235443351    12.000000000000
         C            6.128634823704    -3.582569539495    -0.191889601393    12.000000000000
         C            7.339668473654    -2.858398789148    -0.190374375312    12.000000000000
         H           -9.541453302301    -1.174548948442    -0.190593727608     1.007825032230
         H            9.528257677030    -1.276904555682    -0.190879704712     1.007825032230
         H           -8.315169234890    -3.318135334990    -0.185555986623     1.007825032230
         H            8.279150951450    -3.407126271671    -0.186034819329     1.007825032230
         C           -6.144998379744    -4.927632754561    -0.189832009370    12.000000000000
         C           -3.706787539039    -4.941247195895    -0.199652977458    12.000000000000
         C           -4.955594249043    -5.643479455272    -0.191685842813    12.000000000000
         C           -2.486125517268    -5.654771056187    -0.186713306414    12.000000000000
         C           -1.254062526522    -4.956107531779    -0.197888912400    12.000000000000
         C            1.201008382827    -4.969265869970    -0.196707788142    12.000000000000
         C           -0.030340865455    -5.669505784916    -0.188864588478    12.000000000000
         C            3.653745910287    -4.980729257192    -0.195949788394    12.000000000000
         C            2.425488504834    -5.681160117305    -0.186572857842    12.000000000000
         C            6.091961426769    -4.993243445164    -0.189595374720    12.000000000000
         C            4.894972253569    -5.696333902735    -0.190831570550    12.000000000000
         H           -7.089896579082    -5.466985324016    -0.185429247689     1.007825032230
         H            7.031051018158    -5.542644018110    -0.186015594956     1.007825032230
         C           -4.923549513240    -7.078806581455    -0.192240611718    12.000000000000
         C           -2.485346279279    -7.087713559707    -0.194750504154    12.000000000000
         C           -3.751690082821    -7.763932639414    -0.194555825229    12.000000000000
         C           -0.037953148030    -7.099450356247    -0.194534779007    12.000000000000
         C           -1.277960291443    -7.772889866444    -0.196519471768    12.000000000000
         C            2.409440129685    -7.114007493780    -0.193671578196    12.000000000000
         C            1.194745746111    -7.786170847340    -0.195823869077    12.000000000000
         C            4.847616861456    -7.131247592357    -0.191164763536    12.000000000000
         C            3.668467414834    -7.803773474721    -0.193513197900    12.000000000000
         H           -5.869944541458    -7.613816079819    -0.190696574853     1.007825032230
         H            5.788245434347    -7.676317671092    -0.190037644054     1.007825032230
         H           -3.753531130491    -8.851057051013    -0.196391739658     1.007825032230
         H           -1.284308596936    -8.860860874274    -0.200946855627     1.007825032230
         H            1.189217383654    -8.874146102367    -0.199916505768     1.007825032230
         H            3.658542423782    -8.890846115831    -0.195167739322     1.007825032230

  Running in c1 symmetry.

  Rotational constants: A =      0.00068  B =      0.00068  C =      0.00035 [cm^-1]
  Rotational constants: A =     20.51675  B =     20.51316  C =     10.55117 [MHz]
  Nuclear repulsion = 17901.489283384507871

  Charge       = -1
  Multiplicity = 1
  Electrons    = 642
  Nalpha       = 321
  Nbeta        = 321

  ==> Algorithm <==

  SCF Algorithm Type is DF.
  DIIS enabled.
  MOM disabled.
  Fractional occupation disabled.
  Guess Type is SAD.
  Energy threshold   = 1.00e-08
  Density threshold  = 1.00e-08
  Integral threshold = 1.00e-12

  ==> Primary Basis <==

  Basis Set: JUN-CC-PVDZ
    Blend: JUN-CC-PVDZ
    Number of shells: 880
    Number of basis functions: 1938
    Number of Cartesian functions: 2039
    Spherical Harmonics?: true
    Max angular momentum: 2

   => Loading Basis Set <=

    Name: (JUN-CC-PVDZ AUX)
    Role: JKFIT
    Keyword: DF_BASIS_SCF
    atoms 1                                                   entry B          line    90 file /opt/software/pc2/EB-SW/software/PSI4/1.9-foss-2022a/share/psi4/basis/jun-cc-pvdz-jkfit.gbs 
    atoms 2-5                                                 entry F          line   314 file /opt/software/pc2/EB-SW/software/PSI4/1.9-foss-2022a/share/psi4/basis/jun-cc-pvdz-jkfit.gbs 
    atoms 6-23, 30-42, 45-59, 62-78, 81-93, 98-108, 111-119   entry C          line   146 file /opt/software/pc2/EB-SW/software/PSI4/1.9-foss-2022a/share/psi4/basis/jun-cc-pvdz-jkfit.gbs 
    atoms 24-29, 43-44, 60-61, 79-80, 94-97, 109-110, 120-125 entry H          line    70 file /opt/software/pc2/EB-SW/software/PSI4/1.9-foss-2022a/share/psi4/basis/jun-cc-pvdz-jkfit.gbs 

  ==> Integral Setup <==

  ==> DiskDFJK: Density-Fitted J/K Matrices <==

    J tasked:                  Yes
    K tasked:                  Yes
    wK tasked:                  No
    OpenMP threads:             16
    Integrals threads:          16
    Memory [MiB]:            45776
    Algorithm:                Disk
    Integral Cache:           SAVE
    Schwarz Cutoff:          1E-12
    Fitting Condition:       1E-10

   => Auxiliary Basis Set <=

  Basis Set: (JUN-CC-PVDZ AUX)
    Blend: JUN-CC-PVDZ-JKFIT
    Number of shells: 2943
    Number of basis functions: 8531
    Number of Cartesian functions: 9791
    Spherical Harmonics?: true
    Max angular momentum: 3

  Minimum eigenvalue in the overlap matrix is 5.8754088313E-11.
  Reciprocal condition number of the overlap matrix is 2.3720913429E-12.
    Using canonical orthogonalization.
  Overall, 40 of 1938 possible MOs eliminated.


  ==> Pre-Iterations <==

  SCF Guess: Superposition of Atomic Densities via on-the-fly atomic UHF (no occupation information).

   -------------------------
    Irrep   Nso     Nmo    
   -------------------------
     A       1938    1898 
   -------------------------
    Total    1938    1898
   -------------------------

  ==> Iterations <==

                           Total Energy        Delta E     RMS |[F,P]|

   @DF-RHF iter SAD: -4085.87937886149075   -4.08588e+03   0.00000e+00 
   @DF-RHF iter   1: -4071.39764187543915    1.44817e+01   7.90309e-04 ADIIS/DIIS
   @DF-RHF iter   2: -4072.80793878267559   -1.41030e+00   3.11599e-04 ADIIS/DIIS
   @DF-RHF iter   3: -4072.98019062187495   -1.72252e-01   1.18397e-04 ADIIS/DIIS
   @DF-RHF iter   4: -4073.00758843349558   -2.73978e-02   5.41596e-05 DIIS
   @DF-RHF iter   5: -4073.01443151848071   -6.84308e-03   1.54450e-05 DIIS
   @DF-RHF iter   6: -4073.01515978238513   -7.28264e-04   5.28213e-06 DIIS
   @DF-RHF iter   7: -4073.01537469757204   -2.14915e-04   2.85802e-06 DIIS
   @DF-RHF iter   8: -4073.01545635894672   -8.16614e-05   1.35958e-06 DIIS
   @DF-RHF iter   9: -4073.01548268745364   -2.63285e-05   5.26916e-07 DIIS
   @DF-RHF iter  10: -4073.01548475198524   -2.06453e-06   2.19084e-07 DIIS
   @DF-RHF iter  11: -4073.01548512245745   -3.70472e-07   9.31992e-08 DIIS
   @DF-RHF iter  12: -4073.01548521130553   -8.88481e-08   5.74721e-08 DIIS
   @DF-RHF iter  13: -4073.01548524822283   -3.69173e-08   2.81062e-08 DIIS
   @DF-RHF iter  14: -4073.01548525812586   -9.90303e-09   1.62795e-08 DIIS
   @DF-RHF iter  15: -4073.01548526194074   -3.81488e-09   8.40121e-09 DIIS
  Energy and wave function converged.


  ==> Post-Iterations <==

    Orbital Energies [Eh]
    ---------------------

    Doubly Occupied:                                                      

       1A    -26.137149     2A    -26.136777     3A    -26.112776  
       4A    -26.112723     5A    -11.193501     6A    -11.193493  
       7A    -11.193482     8A    -11.193471     9A    -11.193164  
      10A    -11.193161    11A    -11.193156    12A    -11.193149  
      13A    -11.193094    14A    -11.193087    15A    -11.193086  
      16A    -11.193082    17A    -11.192140    18A    -11.192137  
      19A    -11.192125    20A    -11.192119    21A    -11.191932  
      22A    -11.191920    23A    -11.190863    24A    -11.190852  
      25A    -11.190613    26A    -11.190612    27A    -11.190607  
      28A    -11.190605    29A    -11.189419    30A    -11.189408  
      31A    -11.189128    32A    -11.189124    33A    -11.189122  
      34A    -11.189119    35A    -11.188583    36A    -11.188564  
      37A    -11.188377    38A    -11.188358    39A    -11.188274  
      40A    -11.188255    41A    -11.188190    42A    -11.188165  
      43A    -11.188052    44A    -11.188008    45A    -11.187985  
      46A    -11.187951    47A    -11.187559    48A    -11.187538  
      49A    -11.187523    50A    -11.187501    51A    -11.186846  
      52A    -11.186813    53A    -11.186756    54A    -11.186740  
      55A    -11.186311    56A    -11.186285    57A    -11.186140  
      58A    -11.186119    59A    -11.186096    60A    -11.186086  
      61A    -11.185762    62A    -11.185754    63A    -11.185729  
      64A    -11.185718    65A    -11.185715    66A    -11.185706  
      67A    -11.185635    68A    -11.185629    69A    -11.184957  
      70A    -11.184937    71A    -11.184857    72A    -11.184854  
      73A    -11.183495    74A    -11.183475    75A    -11.183446  
      76A    -11.183437    77A    -11.183432    78A    -11.183416  
      79A    -11.183265    80A    -11.182856    81A    -11.182370  
      82A    -11.182357    83A    -11.182125    84A    -11.182104  
      85A    -11.182002    86A    -11.182001    87A    -11.179412  
      88A    -11.179394    89A    -11.179348    90A    -11.179336  
      91A    -11.178368    92A    -11.178334    93A    -11.178198  
      94A    -11.178196    95A    -11.171826    96A    -11.171700  
      97A    -11.171422    98A    -11.171379    99A    -11.170620  
     100A    -11.170535   101A     -7.599151   102A     -1.485990  
     103A     -1.441315   104A     -1.412736   105A     -1.396645  
     106A     -1.174223   107A     -1.163868   108A     -1.163383  
     109A     -1.147705   110A     -1.147297   111A     -1.137170  
     112A     -1.130037   113A     -1.123564   114A     -1.111682  
     115A     -1.111041   116A     -1.103299   117A     -1.103114  
     118A     -1.080536   119A     -1.080015   120A     -1.076940  
     121A     -1.074663   122A     -1.074612   123A     -1.055447  
     124A     -1.042934   125A     -1.042167   126A     -1.039905  
     127A     -1.037387   128A     -1.037198   129A     -1.015794  
     130A     -1.015491   131A     -1.007105   132A     -1.007064  
     133A     -0.993811   134A     -0.993559   135A     -0.990005  
     136A     -0.975219   137A     -0.975018   138A     -0.968790  
     139A     -0.968651   140A     -0.968093   141A     -0.950679  
     142A     -0.944718   143A     -0.943967   144A     -0.936326  
     145A     -0.933804   146A     -0.930790   147A     -0.926582  
     148A     -0.926503   149A     -0.921766   150A     -0.898223  
     151A     -0.897742   152A     -0.884787   153A     -0.884771  
     154A     -0.836946   155A     -0.836863   156A     -0.830344  
     157A     -0.830290   158A     -0.827718   159A     -0.816465  
     160A     -0.816131   161A     -0.815777   162A     -0.815709  
     163A     -0.815119   164A     -0.802303   165A     -0.801904  
     166A     -0.781742   167A     -0.774694   168A     -0.773846  
     169A     -0.770380   170A     -0.769680   171A     -0.763448  
     172A     -0.762959   173A     -0.759276   174A     -0.758984  
     175A     -0.715947   176A     -0.715898   177A     -0.711299  
     178A     -0.710024   179A     -0.709833   180A     -0.709081  
     181A     -0.708121   182A     -0.695609   183A     -0.686553  
     184A     -0.676644   185A     -0.675213   186A     -0.664602  
     187A     -0.655786   188A     -0.655548   189A     -0.652914  
     190A     -0.652854   191A     -0.652467   192A     -0.645231  
     193A     -0.641428   194A     -0.639845   195A     -0.628749  
     196A     -0.628732   197A     -0.616079   198A     -0.615840  
     199A     -0.615375   200A     -0.613470   201A     -0.611167  
     202A     -0.610707   203A     -0.608012   204A     -0.592811  
     205A     -0.591897   206A     -0.582176   207A     -0.580132  
     208A     -0.579756   209A     -0.579347   210A     -0.577118  
     211A     -0.576337   212A     -0.569557   213A     -0.569239  
     214A     -0.567930   215A     -0.567440   216A     -0.563886  
     217A     -0.563236   218A     -0.557337   219A     -0.553118  
     220A     -0.545406   221A     -0.545296   222A     -0.538892  
     223A     -0.538855   224A     -0.527261   225A     -0.526215  
     226A     -0.526194   227A     -0.525936   228A     -0.525257  
     229A     -0.525164   230A     -0.524371   231A     -0.524340  
     232A     -0.523924   233A     -0.522655   234A     -0.519050  
     235A     -0.518415   236A     -0.517313   237A     -0.517221  
     238A     -0.511448   239A     -0.510163   240A     -0.509941  
     241A     -0.503432   242A     -0.503035   243A     -0.502697  
     244A     -0.498584   245A     -0.496575   246A     -0.496047  
     247A     -0.492937   248A     -0.492351   249A     -0.489917  
     250A     -0.485668   251A     -0.485221   252A     -0.483197  
     253A     -0.481480   254A     -0.480530   255A     -0.480499  
     256A     -0.478860   257A     -0.477330   258A     -0.472872  
     259A     -0.467794   260A     -0.463424   261A     -0.463231  
     262A     -0.457498   263A     -0.457149   264A     -0.456691  
     265A     -0.453593   266A     -0.450684   267A     -0.447825  
     268A     -0.445815   269A     -0.445634   270A     -0.443989  
     271A     -0.442831   272A     -0.441277   273A     -0.439991  
     274A     -0.439672   275A     -0.434309   276A     -0.426372  
     277A     -0.423801   278A     -0.423718   279A     -0.418352  
     280A     -0.417460   281A     -0.411628   282A     -0.408230  
     283A     -0.407927   284A     -0.402876   285A     -0.395219  
     286A     -0.393875   287A     -0.393384   288A     -0.390401  
     289A     -0.386415   290A     -0.369580   291A     -0.369298  
     292A     -0.366666   293A     -0.366547   294A     -0.362161  
     295A     -0.361385   296A     -0.352450   297A     -0.334857  
     298A     -0.334133   299A     -0.317095   300A     -0.315769  
     301A     -0.311622   302A     -0.311381   303A     -0.297582  
     304A     -0.282564   305A     -0.281711   306A     -0.278654  
     307A     -0.264449   308A     -0.264312   309A     -0.259494  
     310A     -0.253513   311A     -0.237751   312A     -0.232887  
     313A     -0.228543   314A     -0.226365   315A     -0.224409  
     316A     -0.215053   317A     -0.190031   318A     -0.178034  
     319A     -0.165722   320A     -0.132913   321A     -0.132260  

    Virtual:                                                              

     322A      0.059998   323A      0.061608   324A      0.095812  
     325A      0.095958   326A      0.096444   327A      0.098265  
     328A      0.098557   329A      0.103595   330A      0.105136  
     331A      0.106042   332A      0.109046   333A      0.110700  
     334A      0.111554   335A      0.111600   336A      0.122906  
     337A      0.122926   338A      0.131844   339A      0.132797  
     340A      0.137773   341A      0.138762   342A      0.138903  
     343A      0.140112   344A      0.140920   345A      0.142940  
     346A      0.143070   347A      0.143258   348A      0.143536  
     349A      0.144894   350A      0.145534   351A      0.145787  
     352A      0.150407   353A      0.150586   354A      0.150768  
     355A      0.150950   356A      0.151061   357A      0.152760  
     358A      0.153572   359A      0.161099   360A      0.163379  
     361A      0.163856   362A      0.164316   363A      0.164889  
     364A      0.165703   365A      0.166374   366A      0.169616  
     367A      0.171395   368A      0.173327   369A      0.173385  
     370A      0.176162   371A      0.177247   372A      0.177706  
     373A      0.177844   374A      0.178216   375A      0.178613  
     376A      0.179503   377A      0.179947   378A      0.181195  
     379A      0.181231   380A      0.189646   381A      0.189690  
     382A      0.191303   383A      0.196757   384A      0.197994  
     385A      0.198067   386A      0.199667   387A      0.199696  
     388A      0.204902   389A      0.205568   390A      0.206465  
     391A      0.206804   392A      0.207656   393A      0.215379  
     394A      0.215708   395A      0.216019   396A      0.216275  
     397A      0.217311   398A      0.219423   399A      0.221301  
     400A      0.222689   401A      0.223337   402A      0.224640  
     403A      0.224775   404A      0.224962   405A      0.225430  
     406A      0.227396   407A      0.227608   408A      0.229349  
     409A      0.229599   410A      0.230849   411A      0.231001  
     412A      0.233923   413A      0.235500   414A      0.241066  
     415A      0.241403   416A      0.241469   417A      0.243719  
     418A      0.244314   419A      0.244409   420A      0.245069  
     421A      0.245348   422A      0.251253   423A      0.252903  
     424A      0.253667   425A      0.253938   426A      0.254421  
     427A      0.258340   428A      0.259028   429A      0.259478  
     430A      0.262164   431A      0.262317   432A      0.263212  
     433A      0.264048   434A      0.264451   435A      0.265028  
     436A      0.270503   437A      0.270946   438A      0.272960  
     439A      0.273490   440A      0.273748   441A      0.274412  
     442A      0.274608   443A      0.274657   444A      0.274945  
     445A      0.275861   446A      0.276757   447A      0.277051  
     448A      0.277325   449A      0.277837   450A      0.279253  
     451A      0.279773   452A      0.280208   453A      0.280918  
     454A      0.285636   455A      0.286231   456A      0.291744  
     457A      0.292068   458A      0.292907   459A      0.293194  
     460A      0.293678   461A      0.293788   462A      0.294611  
     463A      0.294980   464A      0.295993   465A      0.297277  
     466A      0.297440   467A      0.300507   468A      0.301499  
     469A      0.303771   470A      0.305036   471A      0.306699  
     472A      0.309134   473A      0.310156   474A      0.311215  
     475A      0.312170   476A      0.316009   477A      0.317099  
     478A      0.317233   479A      0.320356   480A      0.320841  
     481A      0.321733   482A      0.322082   483A      0.322982  
     484A      0.323568   485A      0.324819   486A      0.326508  
     487A      0.328382   488A      0.328945   489A      0.329445  
     490A      0.331445   491A      0.331580   492A      0.334230  
     493A      0.339848   494A      0.340017   495A      0.340175  
     496A      0.342125   497A      0.342420   498A      0.342875  
     499A      0.343985   500A      0.344285   501A      0.345399  
     502A      0.345621   503A      0.345884   504A      0.347525  
     505A      0.347789   506A      0.351407   507A      0.351674  
     508A      0.353409   509A      0.354215   510A      0.356422  
     511A      0.359908   512A      0.360665   513A      0.361183  
     514A      0.361460   515A      0.363282   516A      0.366508  
     517A      0.367404   518A      0.367638   519A      0.368005  
     520A      0.369088   521A      0.369779   522A      0.370315  
     523A      0.371071   524A      0.371975   525A      0.373622  
     526A      0.374031   527A      0.374788   528A      0.375749  
     529A      0.375859   530A      0.376332   531A      0.379063  
     532A      0.379525   533A      0.379903   534A      0.380743  
     535A      0.382965   536A      0.383524   537A      0.385994  
     538A      0.387523   539A      0.387991   540A      0.389604  
     541A      0.390294   542A      0.390564   543A      0.391247  
     544A      0.392433   545A      0.393643   546A      0.394577  
     547A      0.395824   548A      0.396688   549A      0.397468  
     550A      0.397894   551A      0.398452   552A      0.399449  
     553A      0.400304   554A      0.402269   555A      0.403918  
     556A      0.403966   557A      0.404934   558A      0.408128  
     559A      0.408348   560A      0.409352   561A      0.409574  
     562A      0.409785   563A      0.416497   564A      0.416717  
     565A      0.416869   566A      0.418031   567A      0.420294  
     568A      0.423439   569A      0.424779   570A      0.425430  
     571A      0.426695   572A      0.427278   573A      0.427651  
     574A      0.431246   575A      0.432845   576A      0.433249  
     577A      0.435536   578A      0.436945   579A      0.438649  
     580A      0.439158   581A      0.439475   582A      0.440142  
     583A      0.440989   584A      0.441664   585A      0.445264  
     586A      0.446123   587A      0.446531   588A      0.447865  
     589A      0.448528   590A      0.450102   591A      0.451648  
     592A      0.455791   593A      0.456618   594A      0.457321  
     595A      0.458151   596A      0.458597   597A      0.459162  
     598A      0.459768   599A      0.460367   600A      0.461320  
     601A      0.461816   602A      0.462792   603A      0.463545  
     604A      0.464885   605A      0.465780   606A      0.466267  
     607A      0.466932   608A      0.467647   609A      0.467820  
     610A      0.468082   611A      0.472202   612A      0.472468  
     613A      0.472604   614A      0.473550   615A      0.473697  
     616A      0.473955   617A      0.475808   618A      0.476119  
     619A      0.476203   620A      0.476977   621A      0.477588  
     622A      0.477718   623A      0.478156   624A      0.478529  
     625A      0.478855   626A      0.479001   627A      0.483196  
     628A      0.483543   629A      0.484062   630A      0.486546  
     631A      0.486932   632A      0.487542   633A      0.487877  
     634A      0.489687   635A      0.491285   636A      0.491643  
     637A      0.493657   638A      0.494340   639A      0.496349  
     640A      0.499635   641A      0.499780   642A      0.500109  
     643A      0.501722   644A      0.502012   645A      0.502556  
     646A      0.503154   647A      0.503586   648A      0.504232  
     649A      0.505516   650A      0.505776   651A      0.506543  
     652A      0.506743   653A      0.506853   654A      0.507165  
     655A      0.508228   656A      0.510812   657A      0.512090  
     658A      0.514720   659A      0.517880   660A      0.518236  
     661A      0.518632   662A      0.519184   663A      0.520622  
     664A      0.520880   665A      0.521573   666A      0.521982  
     667A      0.523190   668A      0.523462   669A      0.524137  
     670A      0.524776   671A      0.526459   672A      0.526973  
     673A      0.528220   674A      0.529626   675A      0.530048  
     676A      0.532535   677A      0.533062   678A      0.537791  
     679A      0.538188   680A      0.538372   681A      0.539779  
     682A      0.540635   683A      0.541187   684A      0.542778  
     685A      0.544533   686A      0.544762   687A      0.545441  
     688A      0.546112   689A      0.547007   690A      0.547441  
     691A      0.548980   692A      0.549718   693A      0.550554  
     694A      0.551459   695A      0.552320   696A      0.553451  
     697A      0.554083   698A      0.554160   699A      0.556412  
     700A      0.557632   701A      0.558474   702A      0.558809  
     703A      0.559570   704A      0.562586   705A      0.563258  
     706A      0.563780   707A      0.564732   708A      0.565353  
     709A      0.566340   710A      0.566844   711A      0.568882  
     712A      0.569090   713A      0.569443   714A      0.570074  
     715A      0.572882   716A      0.574589   717A      0.575462  
     718A      0.576578   719A      0.578752   720A      0.579946  
     721A      0.581217   722A      0.583795   723A      0.584671  
     724A      0.585606   725A      0.585803   726A      0.586570  
     727A      0.587479   728A      0.588523   729A      0.591133  
     730A      0.591842   731A      0.592648   732A      0.593952  
     733A      0.595672   734A      0.597675   735A      0.601732  
     736A      0.602647   737A      0.603239   738A      0.604372  
     739A      0.607694   740A      0.609470   741A      0.611187  
     742A      0.614584   743A      0.616258   744A      0.616539  
     745A      0.619746   746A      0.619997   747A      0.624405  
     748A      0.626193   749A      0.628402   750A      0.629049  
     751A      0.629749   752A      0.630222   753A      0.631573  
     754A      0.632421   755A      0.633518   756A      0.636707  
     757A      0.638407   758A      0.640123   759A      0.641073  
     760A      0.642018   761A      0.642896   762A      0.643252  
     763A      0.647370   764A      0.648085   765A      0.649115  
     766A      0.650462   767A      0.652001   768A      0.652305  
     769A      0.654396   770A      0.654920   771A      0.657148  
     772A      0.658582   773A      0.663960   774A      0.667117  
     775A      0.668434   776A      0.671244   777A      0.672239  
     778A      0.673577   779A      0.673981   780A      0.674548  
     781A      0.676579   782A      0.678134   783A      0.678707  
     784A      0.680698   785A      0.685448   786A      0.686468  
     787A      0.686723   788A      0.687092   789A      0.688130  
     790A      0.689402   791A      0.692469   792A      0.699929  
     793A      0.703300   794A      0.703769   795A      0.706471  
     796A      0.707303   797A      0.710428   798A      0.714832  
     799A      0.716086   800A      0.717101   801A      0.719434  
     802A      0.722428   803A      0.723449   804A      0.726719  
     805A      0.728527   806A      0.729519   807A      0.731582  
     808A      0.734394   809A      0.735471   810A      0.735826  
     811A      0.738299   812A      0.745132   813A      0.745642  
     814A      0.748300   815A      0.750555   816A      0.754229  
     817A      0.756981   818A      0.758739   819A      0.759553  
     820A      0.760455   821A      0.761069   822A      0.762699  
     823A      0.764605   824A      0.766009   825A      0.768193  
     826A      0.769182   827A      0.771890   828A      0.773360  
     829A      0.776602   830A      0.781208   831A      0.788052  
     832A      0.788174   833A      0.794659   834A      0.802646  
     835A      0.804374   836A      0.805198   837A      0.807780  
     838A      0.809015   839A      0.813182   840A      0.814555  
     841A      0.816084   842A      0.818903   843A      0.821568  
     844A      0.822778   845A      0.824460   846A      0.825888  
     847A      0.830635   848A      0.846932   849A      0.847521  
     850A      0.852421   851A      0.856236   852A      0.857439  
     853A      0.859294   854A      0.861419   855A      0.866671  
     856A      0.867640   857A      0.869263   858A      0.869841  
     859A      0.871079   860A      0.872046   861A      0.874033  
     862A      0.874303   863A      0.878967   864A      0.882430  
     865A      0.883355   866A      0.884166   867A      0.885009  
     868A      0.885249   869A      0.886344   870A      0.889339  
     871A      0.895374   872A      0.896459   873A      0.896702  
     874A      0.901188   875A      0.903764   876A      0.905316  
     877A      0.906528   878A      0.909163   879A      0.912226  
     880A      0.914122   881A      0.914777   882A      0.916080  
     883A      0.920650   884A      0.921591   885A      0.923324  
     886A      0.925501   887A      0.926936   888A      0.929796  
     889A      0.931922   890A      0.932305   891A      0.932956  
     892A      0.934559   893A      0.934796   894A      0.935473  
     895A      0.937721   896A      0.939182   897A      0.942272  
     898A      0.943004   899A      0.945703   900A      0.946531  
     901A      0.948694   902A      0.949731   903A      0.951263  
     904A      0.952791   905A      0.954725   906A      0.956058  
     907A      0.956693   908A      0.957653   909A      0.964271  
     910A      0.964998   911A      0.966609   912A      0.966937  
     913A      0.967663   914A      0.968877   915A      0.973621  
     916A      0.974969   917A      0.975487   918A      0.981069  
     919A      0.982454   920A      0.983380   921A      0.984546  
     922A      0.985291   923A      0.986168   924A      0.987900  
     925A      0.989095   926A      0.990969   927A      0.992995  
     928A      0.993910   929A      0.998545   930A      0.999054  
     931A      1.000625   932A      1.002088   933A      1.002669  
     934A      1.003145   935A      1.005980   936A      1.007810  
     937A      1.009349   938A      1.010662   939A      1.012300  
     940A      1.013026   941A      1.014815   942A      1.016262  
     943A      1.018900   944A      1.020932   945A      1.021264  
     946A      1.021594   947A      1.022760   948A      1.023767  
     949A      1.023951   950A      1.025718   951A      1.026706  
     952A      1.028837   953A      1.028933   954A      1.031159  
     955A      1.032390   956A      1.033841   957A      1.035614  
     958A      1.043248   959A      1.044077   960A      1.049574  
     961A      1.051527   962A      1.054579   963A      1.057972  
     964A      1.059549   965A      1.061154   966A      1.063716  
     967A      1.065169   968A      1.066414   969A      1.070582  
     970A      1.071944   971A      1.073332   972A      1.073863  
     973A      1.074356   974A      1.075074   975A      1.075521  
     976A      1.076934   977A      1.083231   978A      1.083643  
     979A      1.085463   980A      1.089666   981A      1.090075  
     982A      1.091288   983A      1.093691   984A      1.094350  
     985A      1.095482   986A      1.096680   987A      1.099517  
     988A      1.101852   989A      1.105511   990A      1.107797  
     991A      1.110128   992A      1.116057   993A      1.116084  
     994A      1.117288   995A      1.117477   996A      1.118116  
     997A      1.118738   998A      1.119831   999A      1.120894  
    1000A      1.122246  1001A      1.123286  1002A      1.124221  
    1003A      1.127712  1004A      1.129588  1005A      1.130669  
    1006A      1.131638  1007A      1.132916  1008A      1.133277  
    1009A      1.134444  1010A      1.135784  1011A      1.136737  
    1012A      1.139912  1013A      1.140493  1014A      1.141124  
    1015A      1.141501  1016A      1.142070  1017A      1.142763  
    1018A      1.143244  1019A      1.143729  1020A      1.144979  
    1021A      1.146948  1022A      1.147604  1023A      1.149712  
    1024A      1.150112  1025A      1.150694  1026A      1.151590  
    1027A      1.152054  1028A      1.153367  1029A      1.153967  
    1030A      1.154330  1031A      1.154576  1032A      1.154838  
    1033A      1.155411  1034A      1.156120  1035A      1.157768  
    1036A      1.159002  1037A      1.160659  1038A      1.162087  
    1039A      1.162657  1040A      1.165793  1041A      1.166941  
    1042A      1.168793  1043A      1.170647  1044A      1.172667  
    1045A      1.173895  1046A      1.175873  1047A      1.176184  
    1048A      1.176516  1049A      1.177415  1050A      1.178513  
    1051A      1.183264  1052A      1.184018  1053A      1.185855  
    1054A      1.188034  1055A      1.188250  1056A      1.188714  
    1057A      1.190376  1058A      1.190992  1059A      1.191970  
    1060A      1.196345  1061A      1.197414  1062A      1.198230  
    1063A      1.199921  1064A      1.203477  1065A      1.205384  
    1066A      1.206773  1067A      1.208705  1068A      1.210186  
    1069A      1.211065  1070A      1.214828  1071A      1.216102  
    1072A      1.218281  1073A      1.219906  1074A      1.221220  
    1075A      1.223330  1076A      1.223457  1077A      1.226459  
    1078A      1.227684  1079A      1.228397  1080A      1.229033  
    1081A      1.231758  1082A      1.233217  1083A      1.236923  
    1084A      1.238014  1085A      1.240090  1086A      1.242284  
    1087A      1.244396  1088A      1.244778  1089A      1.246500  
    1090A      1.248269  1091A      1.250361  1092A      1.254400  
    1093A      1.255739  1094A      1.256963  1095A      1.258688  
    1096A      1.260618  1097A      1.261267  1098A      1.262542  
    1099A      1.265199  1100A      1.266067  1101A      1.272865  
    1102A      1.275265  1103A      1.276716  1104A      1.277547  
    1105A      1.278155  1106A      1.279390  1107A      1.282331  
    1108A      1.282715  1109A      1.283567  1110A      1.284664  
    1111A      1.287972  1112A      1.288854  1113A      1.289266  
    1114A      1.290647  1115A      1.291131  1116A      1.297497  
    1117A      1.302971  1118A      1.305575  1119A      1.305921  
    1120A      1.312612  1121A      1.313765  1122A      1.319567  
    1123A      1.322232  1124A      1.323345  1125A      1.324627  
    1126A      1.325569  1127A      1.326040  1128A      1.327315  
    1129A      1.329194  1130A      1.335344  1131A      1.336384  
    1132A      1.336701  1133A      1.338066  1134A      1.338619  
    1135A      1.339457  1136A      1.341860  1137A      1.349828  
    1138A      1.350769  1139A      1.356176  1140A      1.359233  
    1141A      1.361949  1142A      1.363034  1143A      1.363383  
    1144A      1.364973  1145A      1.366829  1146A      1.370236  
    1147A      1.373266  1148A      1.374635  1149A      1.375551  
    1150A      1.378494  1151A      1.382589  1152A      1.384511  
    1153A      1.384977  1154A      1.385479  1155A      1.386634  
    1156A      1.388601  1157A      1.389164  1158A      1.391743  
    1159A      1.392282  1160A      1.395658  1161A      1.398448  
    1162A      1.398634  1163A      1.399400  1164A      1.402091  
    1165A      1.403608  1166A      1.405335  1167A      1.405620  
    1168A      1.407717  1169A      1.410799  1170A      1.411308  
    1171A      1.412869  1172A      1.417625  1173A      1.426506  
    1174A      1.427504  1175A      1.428023  1176A      1.430600  
    1177A      1.431850  1178A      1.432338  1179A      1.432846  
    1180A      1.433142  1181A      1.433406  1182A      1.439984  
    1183A      1.442028  1184A      1.444569  1185A      1.444968  
    1186A      1.446943  1187A      1.451251  1188A      1.455641  
    1189A      1.456560  1190A      1.456936  1191A      1.457931  
    1192A      1.460767  1193A      1.461419  1194A      1.463076  
    1195A      1.466905  1196A      1.471694  1197A      1.474448  
    1198A      1.476208  1199A      1.477048  1200A      1.479314  
    1201A      1.479686  1202A      1.480224  1203A      1.481212  
    1204A      1.481790  1205A      1.488072  1206A      1.491373  
    1207A      1.491979  1208A      1.492108  1209A      1.494435  
    1210A      1.499057  1211A      1.501778  1212A      1.502715  
    1213A      1.503390  1214A      1.504531  1215A      1.505652  
    1216A      1.507770  1217A      1.509033  1218A      1.513327  
    1219A      1.514318  1220A      1.515354  1221A      1.515997  
    1222A      1.517213  1223A      1.523136  1224A      1.525282  
    1225A      1.528348  1226A      1.528495  1227A      1.529874  
    1228A      1.531611  1229A      1.538546  1230A      1.539172  
    1231A      1.539587  1232A      1.542892  1233A      1.544782  
    1234A      1.546941  1235A      1.549829  1236A      1.551239  
    1237A      1.555676  1238A      1.556078  1239A      1.559835  
    1240A      1.563116  1241A      1.566694  1242A      1.570284  
    1243A      1.570993  1244A      1.573621  1245A      1.574956  
    1246A      1.584539  1247A      1.588535  1248A      1.590022  
    1249A      1.591792  1250A      1.609009  1251A      1.609921  
    1252A      1.611654  1253A      1.617551  1254A      1.622410  
    1255A      1.625329  1256A      1.655140  1257A      1.660093  
    1258A      1.660269  1259A      1.665738  1260A      1.673944  
    1261A      1.678750  1262A      1.679390  1263A      1.679853  
    1264A      1.681558  1265A      1.682371  1266A      1.684665  
    1267A      1.685916  1268A      1.688537  1269A      1.689357  
    1270A      1.690164  1271A      1.690496  1272A      1.691689  
    1273A      1.692534  1274A      1.694241  1275A      1.695513  
    1276A      1.697045  1277A      1.699744  1278A      1.699996  
    1279A      1.702119  1280A      1.703235  1281A      1.704390  
    1282A      1.705329  1283A      1.705782  1284A      1.707921  
    1285A      1.710455  1286A      1.711561  1287A      1.713319  
    1288A      1.714358  1289A      1.715785  1290A      1.716745  
    1291A      1.720974  1292A      1.721175  1293A      1.722269  
    1294A      1.722972  1295A      1.725067  1296A      1.726092  
    1297A      1.727720  1298A      1.729223  1299A      1.729746  
    1300A      1.733756  1301A      1.733873  1302A      1.737812  
    1303A      1.739045  1304A      1.741446  1305A      1.742725  
    1306A      1.743271  1307A      1.743795  1308A      1.748710  
    1309A      1.749836  1310A      1.752305  1311A      1.753726  
    1312A      1.755647  1313A      1.759066  1314A      1.761854  
    1315A      1.763288  1316A      1.764279  1317A      1.765023  
    1318A      1.766480  1319A      1.771789  1320A      1.772967  
    1321A      1.774803  1322A      1.775814  1323A      1.783060  
    1324A      1.784769  1325A      1.786027  1326A      1.786585  
    1327A      1.787158  1328A      1.791999  1329A      1.795007  
    1330A      1.795684  1331A      1.797428  1332A      1.799192  
    1333A      1.799548  1334A      1.802263  1335A      1.804265  
    1336A      1.811289  1337A      1.821870  1338A      1.821991  
    1339A      1.823017  1340A      1.824302  1341A      1.824787  
    1342A      1.837083  1343A      1.838321  1344A      1.849242  
    1345A      1.850866  1346A      1.851587  1347A      1.852570  
    1348A      1.855000  1349A      1.874141  1350A      1.878530  
    1351A      1.880517  1352A      1.889673  1353A      1.894654  
    1354A      1.896064  1355A      1.897481  1356A      1.898933  
    1357A      1.901205  1358A      1.902633  1359A      1.902819  
    1360A      1.903316  1361A      1.904622  1362A      1.906103  
    1363A      1.914137  1364A      1.917032  1365A      1.918723  
    1366A      1.922194  1367A      1.922812  1368A      1.924320  
    1369A      1.924808  1370A      1.932406  1371A      1.934714  
    1372A      1.935979  1373A      1.936761  1374A      1.937024  
    1375A      1.939318  1376A      1.942134  1377A      1.942433  
    1378A      1.944075  1379A      1.944630  1380A      1.945258  
    1381A      1.947627  1382A      1.949669  1383A      1.952371  
    1384A      1.953388  1385A      1.955574  1386A      1.956679  
    1387A      1.958175  1388A      1.962580  1389A      1.962793  
    1390A      1.964888  1391A      1.971694  1392A      1.972113  
    1393A      1.974145  1394A      1.975699  1395A      1.977904  
    1396A      1.979214  1397A      1.986817  1398A      1.988106  
    1399A      1.990105  1400A      1.992113  1401A      1.996140  
    1402A      1.997017  1403A      1.999761  1404A      2.001867  
    1405A      2.003294  1406A      2.004734  1407A      2.005388  
    1408A      2.008284  1409A      2.009910  1410A      2.012925  
    1411A      2.014362  1412A      2.015917  1413A      2.016313  
    1414A      2.017987  1415A      2.018406  1416A      2.021163  
    1417A      2.025711  1418A      2.026475  1419A      2.028173  
    1420A      2.029330  1421A      2.031311  1422A      2.034440  
    1423A      2.035186  1424A      2.038947  1425A      2.040458  
    1426A      2.042120  1427A      2.043513  1428A      2.045901  
    1429A      2.048396  1430A      2.050564  1431A      2.052359  
    1432A      2.055268  1433A      2.057429  1434A      2.058838  
    1435A      2.060202  1436A      2.062350  1437A      2.062796  
    1438A      2.063016  1439A      2.066714  1440A      2.072951  
    1441A      2.075114  1442A      2.077549  1443A      2.080438  
    1444A      2.080746  1445A      2.085241  1446A      2.087052  
    1447A      2.089322  1448A      2.090916  1449A      2.091489  
    1450A      2.093701  1451A      2.094537  1452A      2.094881  
    1453A      2.096212  1454A      2.096850  1455A      2.101821  
    1456A      2.103392  1457A      2.103869  1458A      2.105558  
    1459A      2.106887  1460A      2.108452  1461A      2.109082  
    1462A      2.109546  1463A      2.110198  1464A      2.114149  
    1465A      2.117460  1466A      2.122897  1467A      2.124235  
    1468A      2.127601  1469A      2.129164  1470A      2.131062  
    1471A      2.132795  1472A      2.133563  1473A      2.137640  
    1474A      2.139705  1475A      2.140922  1476A      2.142050  
    1477A      2.143469  1478A      2.147381  1479A      2.149784  
    1480A      2.151644  1481A      2.153231  1482A      2.153810  
    1483A      2.156004  1484A      2.156441  1485A      2.156677  
    1486A      2.156990  1487A      2.157391  1488A      2.158980  
    1489A      2.159389  1490A      2.160201  1491A      2.160747  
    1492A      2.161514  1493A      2.162252  1494A      2.163622  
    1495A      2.164584  1496A      2.166838  1497A      2.170137  
    1498A      2.172107  1499A      2.172980  1500A      2.174113  
    1501A      2.176628  1502A      2.178751  1503A      2.180419  
    1504A      2.183451  1505A      2.184453  1506A      2.186248  
    1507A      2.186962  1508A      2.187420  1509A      2.188612  
    1510A      2.189129  1511A      2.189622  1512A      2.191924  
    1513A      2.192931  1514A      2.195951  1515A      2.196532  
    1516A      2.196894  1517A      2.199724  1518A      2.200541  
    1519A      2.202360  1520A      2.203418  1521A      2.205216  
    1522A      2.205966  1523A      2.210446  1524A      2.212043  
    1525A      2.213457  1526A      2.214451  1527A      2.215847  
    1528A      2.218106  1529A      2.218587  1530A      2.220796  
    1531A      2.225712  1532A      2.229599  1533A      2.231020  
    1534A      2.232016  1535A      2.232539  1536A      2.233276  
    1537A      2.235017  1538A      2.237401  1539A      2.239242  
    1540A      2.239817  1541A      2.241300  1542A      2.241476  
    1543A      2.246542  1544A      2.248603  1545A      2.251471  
    1546A      2.252635  1547A      2.254190  1548A      2.255033  
    1549A      2.257047  1550A      2.263799  1551A      2.265351  
    1552A      2.268169  1553A      2.268647  1554A      2.270110  
    1555A      2.272067  1556A      2.272886  1557A      2.273974  
    1558A      2.274844  1559A      2.275295  1560A      2.278294  
    1561A      2.279685  1562A      2.280626  1563A      2.282848  
    1564A      2.285957  1565A      2.289870  1566A      2.291731  
    1567A      2.294023  1568A      2.294471  1569A      2.295036  
    1570A      2.297171  1571A      2.298373  1572A      2.299695  
    1573A      2.300409  1574A      2.302460  1575A      2.303192  
    1576A      2.305393  1577A      2.307595  1578A      2.311413  
    1579A      2.314396  1580A      2.316291  1581A      2.317002  
    1582A      2.320070  1583A      2.321375  1584A      2.328846  
    1585A      2.335558  1586A      2.337150  1587A      2.339339  
    1588A      2.341515  1589A      2.344013  1590A      2.346729  
    1591A      2.349769  1592A      2.350244  1593A      2.354197  
    1594A      2.355444  1595A      2.355900  1596A      2.361605  
    1597A      2.363620  1598A      2.367314  1599A      2.367913  
    1600A      2.374030  1601A      2.375128  1602A      2.377242  
    1603A      2.383826  1604A      2.390136  1605A      2.395663  
    1606A      2.396668  1607A      2.399851  1608A      2.400336  
    1609A      2.401139  1610A      2.403660  1611A      2.407232  
    1612A      2.407686  1613A      2.409898  1614A      2.411964  
    1615A      2.413050  1616A      2.414041  1617A      2.415020  
    1618A      2.416913  1619A      2.417377  1620A      2.420467  
    1621A      2.421261  1622A      2.428133  1623A      2.430661  
    1624A      2.443383  1625A      2.449885  1626A      2.452278  
    1627A      2.455483  1628A      2.458231  1629A      2.460486  
    1630A      2.467627  1631A      2.470772  1632A      2.476565  
    1633A      2.486472  1634A      2.490017  1635A      2.493188  
    1636A      2.498574  1637A      2.499974  1638A      2.504236  
    1639A      2.507517  1640A      2.515399  1641A      2.516094  
    1642A      2.527399  1643A      2.533191  1644A      2.535393  
    1645A      2.537603  1646A      2.538411  1647A      2.540738  
    1648A      2.542450  1649A      2.544096  1650A      2.551606  
    1651A      2.560986  1652A      2.567306  1653A      2.572785  
    1654A      2.573457  1655A      2.576265  1656A      2.579512  
    1657A      2.583989  1658A      2.592636  1659A      2.611100  
    1660A      2.611895  1661A      2.613476  1662A      2.614821  
    1663A      2.615077  1664A      2.615330  1665A      2.617073  
    1666A      2.620468  1667A      2.622689  1668A      2.629167  
    1669A      2.632926  1670A      2.634621  1671A      2.636127  
    1672A      2.639415  1673A      2.642189  1674A      2.650081  
    1675A      2.651259  1676A      2.651492  1677A      2.653151  
    1678A      2.655144  1679A      2.655863  1680A      2.656349  
    1681A      2.659918  1682A      2.663886  1683A      2.665003  
    1684A      2.672545  1685A      2.679082  1686A      2.683346  
    1687A      2.684007  1688A      2.685057  1689A      2.686294  
    1690A      2.690785  1691A      2.692138  1692A      2.705975  
    1693A      2.713184  1694A      2.716103  1695A      2.718168  
    1696A      2.720015  1697A      2.721115  1698A      2.722425  
    1699A      2.724262  1700A      2.725360  1701A      2.727255  
    1702A      2.729468  1703A      2.738387  1704A      2.739716  
    1705A      2.742481  1706A      2.743425  1707A      2.744457  
    1708A      2.747533  1709A      2.749156  1710A      2.754550  
    1711A      2.756245  1712A      2.759949  1713A      2.762440  
    1714A      2.763640  1715A      2.763910  1716A      2.765312  
    1717A      2.766107  1718A      2.769276  1719A      2.772716  
    1720A      2.779866  1721A      2.791495  1722A      2.795079  
    1723A      2.799757  1724A      2.799839  1725A      2.801598  
    1726A      2.803664  1727A      2.811392  1728A      2.830325  
    1729A      2.842766  1730A      2.852094  1731A      2.854456  
    1732A      2.858757  1733A      2.861358  1734A      2.868187  
    1735A      2.875039  1736A      2.875406  1737A      2.876597  
    1738A      2.877299  1739A      2.884870  1740A      2.888974  
    1741A      2.892315  1742A      2.892958  1743A      2.894771  
    1744A      2.896460  1745A      2.903007  1746A      2.907025  
    1747A      2.914647  1748A      2.915592  1749A      2.918570  
    1750A      2.921997  1751A      2.922436  1752A      2.939558  
    1753A      2.940118  1754A      2.941463  1755A      2.942535  
    1756A      2.945472  1757A      2.948348  1758A      2.974866  
    1759A      2.975376  1760A      2.977718  1761A      2.985958  
    1762A      2.986253  1763A      2.996153  1764A      2.997205  
    1765A      3.001863  1766A      3.005032  1767A      3.017498  
    1768A      3.033054  1769A      3.034968  1770A      3.035472  
    1771A      3.045793  1772A      3.061899  1773A      3.069494  
    1774A      3.100114  1775A      3.106159  1776A      3.108730  
    1777A      3.111006  1778A      3.114131  1779A      3.121526  
    1780A      3.126189  1781A      3.130756  1782A      3.131616  
    1783A      3.133567  1784A      3.139287  1785A      3.146902  
    1786A      3.179305  1787A      3.180024  1788A      3.183825  
    1789A      3.194908  1790A      3.200352  1791A      3.200828  
    1792A      3.210177  1793A      3.211596  1794A      3.212595  
    1795A      3.214670  1796A      3.219572  1797A      3.220966  
    1798A      3.222857  1799A      3.223033  1800A      3.229585  
    1801A      3.230249  1802A      3.240681  1803A      3.245152  
    1804A      3.247977  1805A      3.251569  1806A      3.261700  
    1807A      3.265041  1808A      3.288699  1809A      3.331086  
    1810A      3.332279  1811A      3.332887  1812A      3.334339  
    1813A      3.334841  1814A      3.337423  1815A      3.345446  
    1816A      3.346459  1817A      3.347417  1818A      3.351471  
    1819A      3.366764  1820A      3.371791  1821A      3.383496  
    1822A      3.385506  1823A      3.424717  1824A      3.438022  
    1825A      3.438649  1826A      3.450190  1827A      3.477072  
    1828A      3.496983  1829A      3.522055  1830A      3.530068  
    1831A      3.538581  1832A      3.539123  1833A      3.542750  
    1834A      3.549527  1835A      3.556218  1836A      3.560137  
    1837A      3.562855  1838A      3.566049  1839A      3.569537  
    1840A      3.590401  1841A      3.605890  1842A      3.611651  
    1843A      3.633410  1844A      3.650377  1845A      3.657925  
    1846A      3.663276  1847A      3.664722  1848A      3.723570  
    1849A      3.726199  1850A      3.742723  1851A      3.752434  
    1852A      3.768958  1853A      3.791479  1854A      3.830897  
    1855A      3.832435  1856A      3.849060  1857A      3.849994  
    1858A      3.851812  1859A      3.915647  1860A      3.919286  
    1861A      3.923505  1862A      3.946522  1863A      3.952563  
    1864A      3.992768  1865A      3.995959  1866A      4.013480  
    1867A      4.021237  1868A      4.022115  1869A      4.041498  
    1870A      4.043725  1871A      4.051004  1872A      4.082740  
    1873A      4.101607  1874A      4.105545  1875A      4.136171  
    1876A      4.158085  1877A      4.167397  1878A      4.177905  
    1879A      4.180847  1880A      4.182786  1881A      4.236335  
    1882A      4.245407  1883A      4.270536  1884A      4.281481  
    1885A      4.301020  1886A      4.337513  1887A      4.380149  
    1888A      4.427363  1889A      4.457198  1890A      4.498668  
    1891A      4.564017  1892A      4.647609  1893A      4.658689  
    1894A      4.680551  1895A      4.712239  1896A      4.744198  
    1897A      4.763402  1898A      4.781778  

    Final Occupation by Irrep:
              A 
    DOCC [   321 ]
    NA   [   321 ]
    NB   [   321 ]

  @DF-RHF Final Energy: -4073.01548526194074

   => Energetics <=

    Nuclear Repulsion Energy =          17901.4892833845078712
    One-Electron Energy =              -41293.2707808568084147
    Two-Electron Energy =               19318.7660122103588947
    Total Energy =                      -4073.0154852619416488

Computation Completed


Properties will be evaluated at   0.000000,   0.000000,   0.000000 [a0]

Properties computed using the SCF density matrix


 Multipole Moments:

 ------------------------------------------------------------------------------------
     Multipole            Electronic (a.u.)      Nuclear  (a.u.)        Total (a.u.)
 ------------------------------------------------------------------------------------

 L = 1.  Multiply by 2.5417464519 to convert [e a0] to [Debye]
 Dipole X            :          0.0017391           -0.0001188            0.0016203
 Dipole Y            :          0.0008568           -0.0002727            0.0005841
 Dipole Z            :         13.7049506          -16.6635843           -2.9586338
 Magnitude           :                                                    2.9586343

 ------------------------------------------------------------------------------------

*** tstop() called on n2cn0817 at Sat Jan 27 14:47:05 2024
Module time:
	user time   =   25577.15 seconds =     426.29 minutes
	system time =    1495.58 seconds =      24.93 minutes
	total time  =      12088 seconds =     201.47 minutes
Total time:
	user time   =   25577.15 seconds =     426.29 minutes
	system time =    1495.58 seconds =      24.93 minutes
	total time  =      12088 seconds =     201.47 minutes

  //>>>>>>>>>>>>>>>>>>>>>>>>>>>>>>>>>>>//
  //            Monomer A HF           //
  //<<<<<<<<<<<<<<<<<<<<<<<<<<<<<<<<<<<//

   => Libint2 <=

    Primary   basis highest AM E, G, H:  5, 4, 3
    Auxiliary basis highest AM E, G, H:  6, 5, 4
    Onebody   basis highest AM E, G, H:  6, 5, 4
    Solid Harmonics ordering:            gaussian

*** tstart() called on n2cn0817
*** at Sat Jan 27 14:47:05 2024

   => Loading Basis Set <=

    Name: JUN-CC-PVDZ
    Role: ORBITAL
    Keyword: BASIS
    atoms 1                                                   entry B          line   130 file /opt/software/pc2/EB-SW/software/PSI4/1.9-foss-2022a/share/psi4/basis/jun-cc-pvdz.gbs 
    atoms 2-5                                                 entry F          line   266 file /opt/software/pc2/EB-SW/software/PSI4/1.9-foss-2022a/share/psi4/basis/jun-cc-pvdz.gbs 
    atoms 6-23, 30-42, 45-59, 62-78, 81-93, 98-108, 111-119   entry C          line   164 file /opt/software/pc2/EB-SW/software/PSI4/1.9-foss-2022a/share/psi4/basis/jun-cc-pvdz.gbs 
    atoms 24-29, 43-44, 60-61, 79-80, 94-97, 109-110, 120-125 entry H          line    36 file /opt/software/pc2/EB-SW/software/PSI4/1.9-foss-2022a/share/psi4/basis/jun-cc-pvdz.gbs 


         ---------------------------------------------------------
                                   SCF
               by Justin Turney, Rob Parrish, Andy Simmonett
                          and Daniel G. A. Smith
                              RHF Reference
                       16 Threads,  61035 MiB Core
         ---------------------------------------------------------

  ==> Geometry <==

    Molecular point group: c1
    Full point group: C1

    Geometry (in Angstrom), charge = -1, multiplicity = 1:

       Center              X                  Y                   Z               Mass       
    ------------   -----------------  -----------------  -----------------  -----------------
         B           -0.000050191042     0.000351518223     2.607139441490    11.009305360000
         F           -1.153601191042     0.000062518223     3.422786441490    18.998403162730
         F            1.153656808958    -0.000566481777     3.422786441490    18.998403162730
         F           -0.000023191042    -1.153622481777     1.791505441490    18.998403162730
         F           -0.000023191042     1.153992518223     1.791505441490    18.998403162730
      Gh(C)          -3.668445455062     7.803766688305    -0.190954517175    12.000000000000
      Gh(C)          -4.847602910388     7.131256349563    -0.193321092107    12.000000000000
      Gh(C)          -4.894963490217     5.696344921754    -0.193894003205    12.000000000000
      Gh(C)          -3.653744869815     4.980744859182    -0.186233561476    12.000000000000
      Gh(C)          -2.409429312536     7.113995554897    -0.190760174915    12.000000000000
      Gh(C)          -2.425481535146     5.681136469126    -0.197765063785    12.000000000000
      Gh(C)          -1.194748207477     7.786158712532    -0.189287994373    12.000000000000
      Gh(C)           0.037954837895     7.099436163980    -0.191458698678    12.000000000000
      Gh(C)           0.030328396378     5.669504077927    -0.196942083593    12.000000000000
      Gh(C)          -1.200988698947     4.969284866138    -0.187972349660    12.000000000000
      Gh(C)           1.277953634773     7.772873961417    -0.190082850117    12.000000000000
      Gh(C)           2.485353893683     7.087711403460    -0.192357338022    12.000000000000
      Gh(C)           2.486124493876     5.654785328463    -0.199295087009    12.000000000000
      Gh(C)           1.254078728602     4.956092631887    -0.187667145421    12.000000000000
      Gh(C)           3.751710400364     7.763926669203    -0.192230486641    12.000000000000
      Gh(C)           4.923561865144     7.078795295213    -0.194286967349    12.000000000000
      Gh(C)           4.955603080284     5.643461981592    -0.194447380156    12.000000000000
      Gh(C)           3.706797343163     4.941224726556    -0.189355819987    12.000000000000
      Gh(H)          -3.658525328800     8.890841937358    -0.189269528925     1.007825032230
      Gh(H)          -1.189217520798     8.874135605583    -0.185316117931     1.007825032230
      Gh(H)           1.284290047845     8.860847953711    -0.185924025976     1.007825032230
      Gh(H)           3.753537895758     8.851049797195    -0.190707962326     1.007825032230
      Gh(H)           5.869954512165     7.613809352878    -0.195212334392     1.007825032230
      Gh(H)          -5.788235898544     7.676316731157    -0.194880939463     1.007825032230
[...]
    1522A      2.163210  1523A      2.164142  1524A      2.164981  
    1525A      2.168766  1526A      2.172290  1527A      2.173554  
    1528A      2.174086  1529A      2.177824  1530A      2.180746  
    1531A      2.182067  1532A      2.183505  1533A      2.183937  
    1534A      2.186342  1535A      2.193625  1536A      2.195520  
    1537A      2.196285  1538A      2.197391  1539A      2.198197  
    1540A      2.201211  1541A      2.202601  1542A      2.203758  
    1543A      2.204864  1544A      2.206876  1545A      2.207746  
    1546A      2.210284  1547A      2.211112  1548A      2.212883  
    1549A      2.216630  1550A      2.220514  1551A      2.221810  
    1552A      2.222939  1553A      2.223751  1554A      2.228308  
    1555A      2.229421  1556A      2.230806  1557A      2.232158  
    1558A      2.232301  1559A      2.232389  1560A      2.232848  
    1561A      2.235832  1562A      2.239268  1563A      2.244601  
    1564A      2.247158  1565A      2.248613  1566A      2.249070  
    1567A      2.251382  1568A      2.262823  1569A      2.264437  
    1570A      2.266248  1571A      2.268890  1572A      2.271069  
    1573A      2.273122  1574A      2.275959  1575A      2.278020  
    1576A      2.279360  1577A      2.281669  1578A      2.284293  
    1579A      2.293650  1580A      2.295112  1581A      2.297360  
    1582A      2.298295  1583A      2.300099  1584A      2.305463  
    1585A      2.308308  1586A      2.318722  1587A      2.321514  
    1588A      2.325510  1589A      2.328197  1590A      2.328601  
    1591A      2.330077  1592A      2.330774  1593A      2.331220  
    1594A      2.333603  1595A      2.335819  1596A      2.337201  
    1597A      2.339293  1598A      2.341195  1599A      2.342138  
    1600A      2.342744  1601A      2.345174  1602A      2.345292  
    1603A      2.346830  1604A      2.347311  1605A      2.352731  
    1606A      2.354095  1607A      2.355550  1608A      2.378403  
    1609A      2.381144  1610A      2.385227  1611A      2.387941  
    1612A      2.391906  1613A      2.394658  1614A      2.406214  
    1615A      2.412233  1616A      2.418535  1617A      2.421961  
    1618A      2.425843  1619A      2.427957  1620A      2.428380  
    1621A      2.443145  1622A      2.444368  1623A      2.453395  
    1624A      2.455505  1625A      2.460427  1626A      2.465832  
    1627A      2.468206  1628A      2.468546  1629A      2.469348  
    1630A      2.472120  1631A      2.472545  1632A      2.492052  
    1633A      2.492666  1634A      2.502539  1635A      2.505835  
    1636A      2.506890  1637A      2.512370  1638A      2.515118  
    1639A      2.518567  1640A      2.538827  1641A      2.540528  
    1642A      2.541694  1643A      2.543484  1644A      2.544220  
    1645A      2.548460  1646A      2.549790  1647A      2.551802  
    1648A      2.554482  1649A      2.556638  1650A      2.557459  
    1651A      2.559967  1652A      2.564347  1653A      2.571745  
    1654A      2.572033  1655A      2.581967  1656A      2.583614  
    1657A      2.585592  1658A      2.585939  1659A      2.587462  
    1660A      2.589387  1661A      2.589929  1662A      2.593310  
    1663A      2.594543  1664A      2.601558  1665A      2.602630  
    1666A      2.612485  1667A      2.614442  1668A      2.615208  
    1669A      2.615416  1670A      2.615898  1671A      2.621769  
    1672A      2.631554  1673A      2.635106  1674A      2.642595  
    1675A      2.644194  1676A      2.647298  1677A      2.648318  
    1678A      2.650066  1679A      2.651077  1680A      2.653872  
    1681A      2.656406  1682A      2.656800  1683A      2.658980  
    1684A      2.666383  1685A      2.670437  1686A      2.671680  
    1687A      2.671990  1688A      2.673511  1689A      2.677728  
    1690A      2.680699  1691A      2.682082  1692A      2.687335  
    1693A      2.691508  1694A      2.691658  1695A      2.692338  
    1696A      2.694510  1697A      2.694805  1698A      2.695493  
    1699A      2.698235  1700A      2.704691  1701A      2.713534  
    1702A      2.725738  1703A      2.729126  1704A      2.731213  
    1705A      2.731343  1706A      2.732137  1707A      2.734408  
    1708A      2.754468  1709A      2.769793  1710A      2.776624  
    1711A      2.781105  1712A      2.782002  1713A      2.786730  
    1714A      2.793605  1715A      2.799973  1716A      2.801227  
    1717A      2.802446  1718A      2.802527  1719A      2.810972  
    1720A      2.815097  1721A      2.815210  1722A      2.815988  
    1723A      2.817851  1724A      2.819034  1725A      2.827313  
    1726A      2.830229  1727A      2.839058  1728A      2.842554  
    1729A      2.843867  1730A      2.847271  1731A      2.849407  
    1732A      2.852842  1733A      2.865620  1734A      2.866405  
    1735A      2.871005  1736A      2.872439  1737A      2.876095  
    1738A      2.882572  1739A      2.896140  1740A      2.896932  
    1741A      2.908552  1742A      2.918115  1743A      2.918475  
    1744A      2.928269  1745A      2.931361  1746A      2.932883  
    1747A      2.935615  1748A      2.946687  1749A      2.965046  
    1750A      2.966494  1751A      2.967695  1752A      2.976417  
    1753A      2.984029  1754A      2.992339  1755A      3.013157  
    1756A      3.029983  1757A      3.039065  1758A      3.040416  
    1759A      3.041785  1760A      3.047558  1761A      3.056629  
    1762A      3.058046  1763A      3.058163  1764A      3.065050  
    1765A      3.069038  1766A      3.073960  1767A      3.086916  
    1768A      3.110780  1769A      3.112976  1770A      3.117128  
    1771A      3.124295  1772A      3.129383  1773A      3.130743  
    1774A      3.139466  1775A      3.143205  1776A      3.143661  
    1777A      3.149693  1778A      3.150212  1779A      3.151922  
    1780A      3.155145  1781A      3.159116  1782A      3.162256  
    1783A      3.163383  1784A      3.169914  1785A      3.173291  
    1786A      3.178594  1787A      3.189027  1788A      3.193569  
    1789A      3.199016  1790A      3.223509  1791A      3.262015  
    1792A      3.262753  1793A      3.264379  1794A      3.265217  
    1795A      3.266106  1796A      3.267541  1797A      3.274706  
    1798A      3.276759  1799A      3.278083  1800A      3.281976  
    1801A      3.298500  1802A      3.305975  1803A      3.313873  
    1804A      3.321696  1805A      3.363031  1806A      3.363573  
    1807A      3.400693  1808A      3.420545  1809A      3.452969  
    1810A      3.457096  1811A      3.461523  1812A      3.466148  
    1813A      3.468642  1814A      3.472576  1815A      3.479042  
    1816A      3.479232  1817A      3.484180  1818A      3.488784  
    1819A      3.508452  1820A      3.514632  1821A      3.529428  
    1822A      3.553798  1823A      3.573539  1824A      3.581553  
    1825A      3.586605  1826A      3.591338  1827A      3.646468  
    1828A      3.655764  1829A      3.669926  1830A      3.677395  
    1831A      3.697398  1832A      3.719367  1833A      3.760175  
    1834A      3.762546  1835A      3.772968  1836A      3.778980  
    1837A      3.783003  1838A      3.847184  1839A      3.849376  
    1840A      3.874074  1841A      3.877464  1842A      3.921045  
    1843A      3.925313  1844A      3.941428  1845A      3.949956  
    1846A      3.954015  1847A      3.958900  1848A      3.970761  
    1849A      3.979497  1850A      3.993750  1851A      4.025141  
    1852A      4.027774  1853A      4.070165  1854A      4.165544  
    1855A      4.305520  1856A      4.367309  1857A      4.415319  
    1858A      4.454311  1859A      4.565574  1860A      4.719125  
    1861A      4.767895  1862A      5.763613  1863A      5.770107  
    1864A      5.778533  1865A      5.795515  1866A      5.801742  
    1867A      5.810044  1868A      5.862076  1869A      5.874347  
    1870A      5.880177  1871A      5.885858  1872A      5.942802  
    1873A      6.051605  1874A      6.071148  1875A      6.130932  
    1876A      6.231879  1877A      6.342140  1878A      6.348220  
    1879A      6.407836  1880A      6.411807  1881A      6.414568  
    1882A      7.327617  1883A      7.361748  1884A      7.402503  
    1885A      7.412657  1886A      7.587540  1887A      7.626359  
    1888A      7.678578  1889A      7.681499  1890A      7.718153  
    1891A      7.771902  1892A      7.979257  1893A      8.039564  
    1894A     12.941358  1895A     42.943994  1896A     42.972642  
    1897A     43.000176  1898A     43.004384  

    Final Occupation by Irrep:
              A 
    DOCC [   300 ]
    NA   [   300 ]
    NB   [   300 ]

  @DF-RHF Final Energy: -3650.34042874415536

   => Energetics <=

    Nuclear Repulsion Energy =          15611.4211649754324753
    One-Electron Energy =              -36072.1583555075121694
    Two-Electron Energy =               16810.3967617879243335
    Total Energy =                      -3650.3404287441553606

Computation Completed


Properties will be evaluated at   0.000000,   0.000000,   0.000000 [a0]

Properties computed using the SCF density matrix


 Multipole Moments:

 ------------------------------------------------------------------------------------
     Multipole            Electronic (a.u.)      Nuclear  (a.u.)        Total (a.u.)
 ------------------------------------------------------------------------------------

 L = 1.  Multiply by 2.5417464519 to convert [e a0] to [Debye]
 Dipole X            :          0.0002602            0.0001983            0.0004586
 Dipole Y            :          0.0012962           -0.0013163           -0.0000201
 Dipole Z            :        218.6629308         -218.6619867            0.0009442
 Magnitude           :                                                    0.0010498

 ------------------------------------------------------------------------------------

*** tstop() called on n2cn0817 at Sat Jan 27 17:14:26 2024
Module time:
	user time   =   17920.66 seconds =     298.68 minutes
	system time =     961.75 seconds =      16.03 minutes
	total time  =       5463 seconds =      91.05 minutes
Total time:
	user time   =   47990.98 seconds =     799.85 minutes
	system time =    2724.79 seconds =      45.41 minutes
	total time  =      20929 seconds =     348.82 minutes
  Constructing Basis Sets for SAPT...

   => Loading Basis Set <=

    Name: (JUN-CC-PVDZ AUX)
    Role: RIFIT
    Keyword: DF_BASIS_SAPT
    atoms 1                                                   entry B          line    56 file /opt/software/pc2/EB-SW/software/PSI4/1.9-foss-2022a/share/psi4/basis/jun-cc-pvdz-ri.gbs 
    atoms 2-5                                                 entry F          line   232 file /opt/software/pc2/EB-SW/software/PSI4/1.9-foss-2022a/share/psi4/basis/jun-cc-pvdz-ri.gbs 
    atoms 6-23, 30-42, 45-59, 62-78, 81-93, 98-108, 111-119   entry C          line   100 file /opt/software/pc2/EB-SW/software/PSI4/1.9-foss-2022a/share/psi4/basis/jun-cc-pvdz-ri.gbs 
    atoms 24-29, 43-44, 60-61, 79-80, 94-97, 109-110, 120-125 entry H          line    30 file /opt/software/pc2/EB-SW/software/PSI4/1.9-foss-2022a/share/psi4/basis/jun-cc-pvdz-ri.gbs 

   => Loading Basis Set <=

    Name: (JUN-CC-PVDZ AUX)
    Role: JKFIT
    Keyword: DF_BASIS_ELST
    atoms 1                                                   entry B          line    90 file /opt/software/pc2/EB-SW/software/PSI4/1.9-foss-2022a/share/psi4/basis/jun-cc-pvdz-jkfit.gbs 
    atoms 2-5                                                 entry F          line   314 file /opt/software/pc2/EB-SW/software/PSI4/1.9-foss-2022a/share/psi4/basis/jun-cc-pvdz-jkfit.gbs 
    atoms 6-23, 30-42, 45-59, 62-78, 81-93, 98-108, 111-119   entry C          line   146 file /opt/software/pc2/EB-SW/software/PSI4/1.9-foss-2022a/share/psi4/basis/jun-cc-pvdz-jkfit.gbs 
    atoms 24-29, 43-44, 60-61, 79-80, 94-97, 109-110, 120-125 entry H          line    70 file /opt/software/pc2/EB-SW/software/PSI4/1.9-foss-2022a/share/psi4/basis/jun-cc-pvdz-jkfit.gbs 


  //>>>>>>>>>>>>>>>>>>>>>>>>>>>>>>>>>>>//
  //               SSAPT0              //
  //<<<<<<<<<<<<<<<<<<<<<<<<<<<<<<<<<<<//


*** tstart() called on n2cn0817
*** at Sat Jan 27 17:14:28 2024

        SAPT0  
    Ed Hohenstein
     6 June 2009

      Orbital Information
  --------------------------
    NSO        =      1938
    NMO        =      1898
    NRI        =      6901
    NRI (Elst) =      8531
    NOCC A     =        21
    NOCC B     =       300
    FOCC A     =         5
    FOCC B     =        96
    NVIR A     =      1877
    NVIR B     =      1598

    Elst10,r            =    -0.096868125454 [Eh]
    Exch10              =     0.249144763844 [Eh]
    Exch10 (S^2)        =     0.240139553725 [Eh]

    Iter     Energy [mEh]          dE [mEh]         Residual      Time [s]
       1     -37.27941580      37.279415803      44.678324781           692
       2     -45.76387342       8.484457615      20.730069321          1315
       3     -48.22815654       2.464283125       3.324434305          1844
       4     -48.08641686      -0.141739687       1.052845431          2494
       5     -48.04635042      -0.040066434       0.231702215          3054
       6     -48.04814145       0.001791030       0.070505965          3681
       7     -48.05116824       0.003026784       0.012935926          4242
       8     -48.05076985      -0.000398388       0.002710584          4892
       9     -48.05077526       0.000005412       0.000464233          5593
      10     -48.05078399       0.000008734       0.000077433          6252
      11     -48.05078232      -0.000001671       0.000015997          6781
      12     -48.05078249       0.000000164       0.000003587          7488
      13     -48.05078251       0.000000026       0.000001312          8102
      14     -48.05078251      -0.000000005       0.000000205          8875

    CHF Iterations converged


    Iter     Energy [mEh]          dE [mEh]         Residual      Time [s]
       1    -117.73684743     117.736847427     128.655577217           790
       2    -104.53464736     -13.202200067      27.003698914          1657
       3    -113.18517492       8.650527563      11.279161589          2461
       4    -115.08450642       1.899331498       2.985744694          3123
       5    -114.82926288      -0.255243545       1.367274876          3757
       6    -114.67092173      -0.158341144       0.636019145          4398
       7    -114.69773222       0.026810490       0.372952250          5001
       8    -114.73682364       0.039091413       0.172832284          5574
       9    -114.73280559      -0.004018041       0.089084226          6094
      10    -114.72480007      -0.008005525       0.047908621          6691
      11    -114.72613856       0.001338488       0.026688505          7233
      12    -114.72796913       0.001830574       0.013179735          8047
      13    -114.72788474      -0.000084393       0.007105524          8968
      14    -114.72733410      -0.000550642       0.005315385          9771
      15    -114.72738767       0.000053571       0.003976905         10590
      16    -114.72759775       0.000210081       0.001846929         11573
      17    -114.72755229      -0.000045455       0.000731007         12591
      18    -114.72753303      -0.000019264       0.000340456         13616
      19    -114.72753610       0.000003067       0.000143283         14556
      20    -114.72753961       0.000003517       0.000066118         15575
      21    -114.72754033       0.000000718       0.000030639         16580
      22    -114.72753972      -0.000000615       0.000015497         17485
      23    -114.72753938      -0.000000336       0.000007210         18429
      24    -114.72753952       0.000000139       0.000003221         19752
      25    -114.72753960       0.000000076       0.000001389         20870
      26    -114.72753958      -0.000000019       0.000000647         21840

    CHF Iterations converged

    Ind20,r (A<-B)      =    -0.048050782508 [Eh]
    Ind20,r (B<-A)      =    -0.114727539578 [Eh]
    Ind20,r             =    -0.162778322086 [Eh]
    Exch-Ind20,r (A<-B) =     0.039710393361 [Eh]
    Exch-Ind20,r (B<-A) =     0.082709189901 [Eh]
    Exch-Ind20,r        =     0.122419583262 [Eh]
    Disp20              =    -0.058467114043 [Eh]
    Disp20 (SS)         =    -0.029233557021 [Eh]
    Disp20 (OS)         =    -0.029233557021 [Eh]
    Exch-Disp20         =     0.018434459894 [Eh]
    Exch-Disp20 (SS)    =     0.009464273999 [Eh]
    Exch-Disp20 (OS)    =     0.008970185895 [Eh]

    SAPT Results 
  --------------------------------------------------------------------------------------------------------
    Electrostatics                -96.86812545 [mEh]     -60.78566643 [kcal/mol]    -254.32722834 [kJ/mol]
      Elst10,r                    -96.86812545 [mEh]     -60.78566643 [kcal/mol]    -254.32722834 [kJ/mol]

    Exchange                      249.14476384 [mEh]     156.34069965 [kcal/mol]     654.12948735 [kJ/mol]
      Exch10                      249.14476384 [mEh]     156.34069965 [kcal/mol]     654.12948735 [kJ/mol]
      Exch10(S^2)                 240.13955373 [mEh]     150.68984499 [kcal/mol]     630.48631144 [kJ/mol]

    Induction                     -51.02481666 [mEh]     -32.01855585 [kcal/mol]    -133.96563768 [kJ/mol]
      Ind20,r                    -162.77832209 [mEh]    -102.14493923 [kcal/mol]    -427.37442576 [kJ/mol]
      Exch-Ind20,r                122.41958326 [mEh]      76.81944827 [kcal/mol]     321.41257157 [kJ/mol]
      delta HF,r (2)              -10.66607783 [mEh]      -6.69306489 [kcal/mol]     -28.00378350 [kJ/mol]

    Dispersion                    -40.03265415 [mEh]     -25.12086974 [kcal/mol]    -105.10571899 [kJ/mol]
      Disp20                      -58.46711404 [mEh]     -36.68866797 [kcal/mol]    -153.50538677 [kJ/mol]
      Exch-Disp20                  18.43445989 [mEh]      11.56779823 [kcal/mol]      48.39966778 [kJ/mol]
      Disp20 (SS)                 -29.23355702 [mEh]     -18.34433398 [kcal/mol]     -76.75269339 [kJ/mol]
      Disp20 (OS)                 -29.23355702 [mEh]     -18.34433398 [kcal/mol]     -76.75269339 [kJ/mol]
      Exch-Disp20 (SS)              9.46427400 [mEh]       5.93892160 [kcal/mol]      24.84844796 [kJ/mol]
      Exch-Disp20 (OS)              8.97018589 [mEh]       5.62887663 [kcal/mol]      23.55121982 [kJ/mol]

  Total HF                        101.25182173 [mEh]      63.53647737 [kcal/mol]     265.83662133 [kJ/mol]
  Total SAPT0                      61.21916758 [mEh]      38.41560763 [kcal/mol]     160.73090234 [kJ/mol]

  Special recipe for scaled SAPT0 (see Manual):
    Electrostatics sSAPT0         -96.86812545 [mEh]     -60.78566643 [kcal/mol]    -254.32722834 [kJ/mol]
    Exchange sSAPT0               249.14476384 [mEh]     156.34069965 [kcal/mol]     654.12948735 [kJ/mol]
    Induction sSAPT0              -36.72973831 [mEh]     -23.04825876 [kcal/mol]     -96.43391464 [kJ/mol]
    Dispersion sSAPT0             -37.88004064 [mEh]     -23.77008437 [kcal/mol]     -99.45403300 [kJ/mol]
  Total sSAPT0                     77.66685944 [mEh]      48.73669010 [kcal/mol]     203.91431137 [kJ/mol]
  --------------------------------------------------------------------------------------------------------

*** tstop() called on n2cn0817 at Mon Jan 29 11:00:44 2024
Module time:
	user time   =   69448.85 seconds =    1157.48 minutes
	system time =    3118.89 seconds =      51.98 minutes
	total time  =     150376 seconds =    2506.27 minutes
Total time:
	user time   =  117441.30 seconds =    1957.36 minutes
	system time =    5843.68 seconds =      97.39 minutes
	total time  =     171307 seconds =    2855.12 minutes

    Psi4 stopped on: Monday, 29 January 2024 11:00AM
    Psi4 wall time for execution: 1 day, 23:35:08.38

*** Psi4 exiting successfully. Buy a developer a beer!
