
    -----------------------------------------------------------------------
          Psi4: An Open-Source Ab Initio Electronic Structure Package
                               Psi4 1.9 release

                         Git: Rev {} zzzzzzz 


    D. G. A. Smith, L. A. Burns, A. C. Simmonett, R. M. Parrish,
    M. C. Schieber, R. Galvelis, P. Kraus, H. Kruse, R. Di Remigio,
    A. Alenaizan, A. M. James, S. Lehtola, J. P. Misiewicz, M. Scheurer,
    R. A. Shaw, J. B. Schriber, Y. Xie, Z. L. Glick, D. A. Sirianni,
    J. S. O'Brien, J. M. Waldrop, A. Kumar, E. G. Hohenstein,
    B. P. Pritchard, B. R. Brooks, H. F. Schaefer III, A. Yu. Sokolov,
    K. Patkowski, A. E. DePrince III, U. Bozkaya, R. A. King,
    F. A. Evangelista, J. M. Turney, T. D. Crawford, C. D. Sherrill,
    J. Chem. Phys. 152(18) 184108 (2020). https://doi.org/10.1063/5.0006002

                            Additional Code Authors
    E. T. Seidl, C. L. Janssen, E. F. Valeev, M. L. Leininger,
    J. F. Gonthier, R. M. Richard, H. R. McAlexander, M. Saitow, X. Wang,
    P. Verma, M. H. Lechner, A. Jiang, S. Behnle, A. G. Heide,
    M. F. Herbst, and D. L. Poole

             Previous Authors, Complete List of Code Contributors,
                       and Citations for Specific Modules
    https://github.com/psi4/psi4/blob/master/codemeta.json
    https://github.com/psi4/psi4/graphs/contributors
    http://psicode.org/psi4manual/master/introduction.html#citing-psifour

    -----------------------------------------------------------------------


    Psi4 started on: Saturday, 10 February 2024 11:52AM

    Process ID: 1723185
    Host:       n2cn0979
    PSIDATADIR: /opt/software/pc2/EB-SW/software/PSI4/1.9-foss-2022a/share/psi4
    Memory:     500.0 MiB
    Threads:    16
    
  ==> Input File <==

--------------------------------------------------------------------------
memory 48 GB # how much memory is available ! Depends on the nodes/cores !

molecule dimer {
# monomer A
+1 1    # Charge and multiplicity
C  0.680067 -1.215929 2.308042
C -0.680504 -1.215545 2.306014
N -1.085635  0.102779 2.305016
C  0.000108  0.884180 2.301740
C -2.477365  0.570758 2.255610
N  1.085222  0.102779 2.305016
H  1.385146 -2.033368 2.315870
H -1.385302 -2.033214 2.306204
H -0.000009  1.965269 2.299993
C  2.478117  0.567877 2.321908
H  2.490592  1.658130 2.294563
H  2.967028  0.220701 3.235354
H  3.001428  0.176405 1.446425
H -2.857359  0.490799 1.233539
H -3.082679 -0.042306 2.925694
H -2.518128  1.610706 2.582594
--
# monomer B
0 1     # Charge and multiplicity
C   1.22531237526482      0.70753866091955      0.00613762728373
C   1.22532433589282     -0.70753852257020     -0.00619318228664
C   -0.00000567409046      1.41496628609039     -0.00672680580738
C   2.45644923379077      1.41832825917820      0.00902448468363
C   0.00001130712078     -1.41497612663474      0.00347275151708
C   -1.22530046906674      0.70754574598412      0.00838914760619
C   2.45643823516184     -1.41832293188077     -0.00843833914343
C   -0.00000085313587      2.83680140328112     -0.00913035594137
C   3.68182717731192      0.70931832800114     -0.00808954934571
C   2.45512052870677      2.83422403348893     -0.00819210630633
C   3.68182158506039     -0.70933346742900      0.00798293467272
C   -1.22531311884624     -0.70752714354401     -0.00512042085974
C   1.22670006104402      3.54346985599427      0.00816696660346
C   0.00000526469929     -2.83678176723568      0.00832091913869
C   -2.45643555300670      1.41831729028492      0.00842454345199
C   2.45512389762097     -2.83422965658853      0.00783102630520
C   -1.22671388474763      3.54346943575023      0.00827029982280
C   4.91451777504333      1.42717324448953     -0.00160886631602
C   3.69315067131765      3.54279566454522     -0.00155906667985
C   -2.45643712022637     -1.41831290883911     -0.00846337726810
C   1.22670532178455     -3.54347386990643     -0.00780316414624
C   -2.45512491866593      2.83421703463423     -0.00818572995999
C   4.91452486062398     -1.42718653794377      0.00136387641845
C   1.22142509354026      4.97013443726031      0.00150231067809
C   4.89300870916237      2.82518837202648     -0.00039219795739
C   -1.22669652864725     -3.54347062507680     -0.00753595973677
C   -3.68181849668397      0.70932533873199     -0.00807686886569
C   3.69314758099218     -3.54280096939050      0.00148176697923
C   -1.22143177215231      4.97012866986289      0.00168580605083
C   6.13477145276790      0.68054831910577     -0.00083909176631
C   3.65678936045204      4.97295361556775     -0.00065042889723
C   -2.45512642789169     -2.83421472106065      0.00758666850712
C   -3.68181869921921     -0.70932533146830      0.00810055625144
C   4.89301309775526     -2.82519973363176      0.00021895393805
C   -0.00000059327114      5.65044773803267      0.00045449734393
C   6.13477559217374     -0.68055448207492      0.00042622874941
C   2.47813196269732      5.65357712333155      0.00063835075260
C   1.22142288457925     -4.97012668293268     -0.00129718634452
C   -3.69316190412301      3.54279732619245     -0.00139355922051
C   -1.22142804110313     -4.97011793159564     -0.00140994817719
C   -4.91452132810043      1.42717581899491     -0.00153192130862
C   3.65678749952045     -4.97295485423912      0.00080007163680
C   -2.47813805026426      5.65357479452875      0.00092287576113
C   -3.69314125872231     -3.54278984697859      0.00136564082345
C   -4.91451200321153     -1.42718062802730      0.00139857359209
C   -0.00000552908399     -5.65043791501335      0.00005899322272
C   -4.89302000425900      2.82518897091939     -0.00040227981744
C   2.47812647313991     -5.65357317188818     -0.00029052915548
C   -3.65679823041642      4.97295655404175     -0.00047374852278
C   -4.89299899901461     -2.82519139505969      0.00006491824035
C   -2.47812801824129     -5.65356579800621     -0.00056571680280
C   -6.13477002348955      0.68054913825639     -0.00086464346868
C   -3.65678835334731     -4.97294365097028      0.00058578382008
C   -6.13476456307132     -0.68055354348201      0.00040575295444
H   5.83528897565761      3.36927626695423      0.00396712770529
H   7.07385965258860      1.22821762089947     -0.00037744837300
H   4.60066374401555      5.51238117445323     -0.00014522814529
H   5.83528386714679     -3.36930568472863     -0.00423551337640
H   -0.00001167146422      6.73853104613662     -0.00389474766392
H   7.07386165167227     -1.22822657074368     -0.00008250934481
H   2.47331421164041      6.74068466339473      0.00017162982210
H   4.60066897122302     -5.51237575717576      0.00039007446835
H   -2.47331820069565      6.74068209160650      0.00047297644710
H   -0.00000978838621     -6.73852780445195      0.00458867820736
H   -5.83530143450167      3.36927132229595      0.00410314985360
H   2.47330840367253     -6.74068500242887      0.00027980126949
H   -4.60067436136587      5.51237839860371      0.00002010017831
H   -5.83527902699321     -3.36928859177951     -0.00451481925734
H   -2.47329986759855     -6.74067870613986     -0.00016951527498
H   -7.07385728692578      1.22822084484047     -0.00046143985387
H   -4.60067330624313     -5.51236229778631      0.00021776644566
H   -7.07385645456741     -1.22822025997701     -0.00017736581114

    units angstrom      # Angstroms are the default
    no_reorient         # Geometry fixed, default
    symmetry c1         # C1 symmetry, default
}

set {
    scf_type DF         # Density fitting, faster than exact integrals
    freeze_core True    # Freeze core electrons
    basis jun-cc-pVDZ   # Jun-cc-pVDZ basis set, recommended for sSAPT0 in https://doi.org/10.1063/1.4867135
}

energy('ssapt0')        # Compute sSAPT0 energy, includes also SAPT0
--------------------------------------------------------------------------

  Memory set to  44.703 GiB by Python driver.

Scratch directory: /tmp/
   => Loading Basis Set <=

    Name: JUN-CC-PVDZ
    Role: ORBITAL
    Keyword: BASIS
    atoms 1-2, 4-5, 10, 17-70 entry C          line   164 file /opt/software/pc2/EB-SW/software/PSI4/1.9-foss-2022a/share/psi4/basis/jun-cc-pvdz.gbs 
    atoms 3, 6                entry N          line   198 file /opt/software/pc2/EB-SW/software/PSI4/1.9-foss-2022a/share/psi4/basis/jun-cc-pvdz.gbs 
    atoms 7-9, 11-16, 71-88   entry H          line    36 file /opt/software/pc2/EB-SW/software/PSI4/1.9-foss-2022a/share/psi4/basis/jun-cc-pvdz.gbs 

   => Loading Basis Set <=

    Name: JUN-CC-PVDZ
    Role: ORBITAL
    Keyword: BASIS
    atoms 1-2, 4-5, 10, 17-70 entry C          line   164 file /opt/software/pc2/EB-SW/software/PSI4/1.9-foss-2022a/share/psi4/basis/jun-cc-pvdz.gbs 
    atoms 3, 6                entry N          line   198 file /opt/software/pc2/EB-SW/software/PSI4/1.9-foss-2022a/share/psi4/basis/jun-cc-pvdz.gbs 
    atoms 7-9, 11-16, 71-88   entry H          line    36 file /opt/software/pc2/EB-SW/software/PSI4/1.9-foss-2022a/share/psi4/basis/jun-cc-pvdz.gbs 


  //>>>>>>>>>>>>>>>>>>>>>>>>>>>>>>>>>>>//
  //              Dimer HF             //
  //<<<<<<<<<<<<<<<<<<<<<<<<<<<<<<<<<<<//

   => Libint2 <=

    Primary   basis highest AM E, G, H:  5, 4, 3
    Auxiliary basis highest AM E, G, H:  6, 5, 4
    Onebody   basis highest AM E, G, H:  6, 5, 4
    Solid Harmonics ordering:            gaussian

*** tstart() called on n2cn0979
*** at Sat Feb 10 11:53:01 2024

   => Loading Basis Set <=

    Name: JUN-CC-PVDZ
    Role: ORBITAL
    Keyword: BASIS
    atoms 1-2, 4-5, 10, 17-70 entry C          line   164 file /opt/software/pc2/EB-SW/software/PSI4/1.9-foss-2022a/share/psi4/basis/jun-cc-pvdz.gbs 
    atoms 3, 6                entry N          line   198 file /opt/software/pc2/EB-SW/software/PSI4/1.9-foss-2022a/share/psi4/basis/jun-cc-pvdz.gbs 
    atoms 7-9, 11-16, 71-88   entry H          line    36 file /opt/software/pc2/EB-SW/software/PSI4/1.9-foss-2022a/share/psi4/basis/jun-cc-pvdz.gbs 


         ---------------------------------------------------------
                                   SCF
               by Justin Turney, Rob Parrish, Andy Simmonett
                          and Daniel G. A. Smith
                              RHF Reference
                       16 Threads,  45776 MiB Core
         ---------------------------------------------------------

  ==> Geometry <==

    Molecular point group: c1
    Full point group: C1

    Geometry (in Angstrom), charge = 1, multiplicity = 1:

       Center              X                  Y                   Z               Mass       
    ------------   -----------------  -----------------  -----------------  -----------------
         C            0.680066520158    -1.215933861162     2.015498292152    12.000000000000
         C           -0.680504479842    -1.215549861162     2.013470292152    12.000000000000
         N           -1.085635479842     0.102774138838     2.012472292152    14.003074004430
         C            0.000107520158     0.884175138838     2.009196292152    12.000000000000
         C           -2.477365479842     0.570753138838     1.963066292152    12.000000000000
         N            1.085221520158     0.102774138838     2.012472292152    14.003074004430
         H            1.385145520158    -2.033372861162     2.023326292152     1.007825032230
         H           -1.385302479842    -2.033218861162     2.013660292152     1.007825032230
         H           -0.000009479842     1.965264138838     2.007449292152     1.007825032230
         C            2.478116520158     0.567872138838     2.029364292152    12.000000000000
         H            2.490591520158     1.658125138838     2.002019292152     1.007825032230
         H            2.967027520158     0.220696138838     2.942810292152     1.007825032230
         H            3.001427520158     0.176400138838     1.153881292152     1.007825032230
         H           -2.857359479842     0.490794138838     0.940995292152     1.007825032230
         H           -3.082679479842    -0.042310861162     2.633150292152     1.007825032230
         H           -2.518128479842     1.610701138838     2.290050292152     1.007825032230
         C            1.225311895423     0.707533799757    -0.286406080564    12.000000000000
         C            1.225323856051    -0.707543383733    -0.298736890134    12.000000000000
         C           -0.000006153932     1.414961424928    -0.299270513655    12.000000000000
         C            2.456448753949     1.418323398016    -0.283519223164    12.000000000000
         C            0.000010827279    -1.414980987797    -0.289070956331    12.000000000000
         C           -1.225300948908     0.707540884822    -0.284154560241    12.000000000000
         C            2.456437755320    -1.418327793043    -0.300982046991    12.000000000000
         C           -0.000001332978     2.836796542119    -0.301674063789    12.000000000000
         C            3.681826697470     0.709313466839    -0.300633257193    12.000000000000
         C            2.455120048865     2.834219172327    -0.300735814154    12.000000000000
         C            3.681821105219    -0.709338328591    -0.284560773175    12.000000000000
         C           -1.225313598688    -0.707532004706    -0.297664128707    12.000000000000
         C            1.226699581202     3.543464994832    -0.284376741244    12.000000000000
         C            0.000004784858    -2.836786628398    -0.284222788709    12.000000000000
         C           -2.456436032848     1.418312429123    -0.284119164396    12.000000000000
         C            2.455123417779    -2.834234517751    -0.284712681542    12.000000000000
         C           -1.226714364589     3.543464574588    -0.284273408025    12.000000000000
         C            4.914517295202     1.427168383327    -0.294152574164    12.000000000000
         C            3.693150191476     3.542790803383    -0.294102774527    12.000000000000
         C           -2.456437600068    -1.418317770001    -0.301007085116    12.000000000000
         C            1.226704841943    -3.543478731069    -0.300346871994    12.000000000000
         C           -2.455125398508     2.834212173472    -0.300729437808    12.000000000000
         C            4.914524380782    -1.427191399106    -0.291179831429    12.000000000000
         C            1.221424613699     4.970129576098    -0.291041397170    12.000000000000
         C            4.893008229321     2.825183510864    -0.292935905805    12.000000000000
         C           -1.226697008489    -3.543475486239    -0.300079667584    12.000000000000
         C           -3.681818976526     0.709320477570    -0.300620576713    12.000000000000
         C            3.693147101150    -3.542805830553    -0.291061940868    12.000000000000
         C           -1.221432251994     4.970123808701    -0.290857901797    12.000000000000
         C            6.134770972926     0.680543457943    -0.293382799614    12.000000000000
         C            3.656788880610     4.972948754405    -0.293194136745    12.000000000000
         C           -2.455126907733    -2.834219582223    -0.284957039340    12.000000000000
         C           -3.681819179061    -0.709330192631    -0.284443151596    12.000000000000
         C            4.893012617914    -2.825204594794    -0.292324753910    12.000000000000
         C           -0.000001073113     5.650442876870    -0.292089210504    12.000000000000
         C            6.134775112332    -0.680559343237    -0.292117479098    12.000000000000
         C            2.478131482856     5.653572262169    -0.291905357095    12.000000000000
         C            1.221422404738    -4.970131544095    -0.293840894192    12.000000000000
         C           -3.693162383965     3.542792465030    -0.293937267068    12.000000000000
         C           -1.221428520945    -4.970122792758    -0.293953656025    12.000000000000
         C           -4.914521807942     1.427170957833    -0.294075629156    12.000000000000
         C            3.656787019679    -4.972959715401    -0.291743636211    12.000000000000
         C           -2.478138530106     5.653569933366    -0.291620832086    12.000000000000
         C           -3.693141738564    -3.542794708141    -0.291178067024    12.000000000000
         C           -4.914512483053    -1.427185489190    -0.291145134256    12.000000000000
         C           -0.000006008926    -5.650442776176    -0.292484714625    12.000000000000
         C           -4.893020484101     2.825184109757    -0.292945987665    12.000000000000
         C            2.478125993298    -5.653578033051    -0.292834237003    12.000000000000
         C           -3.656798710258     4.972951692879    -0.293017456370    12.000000000000
         C           -4.892999478856    -2.825196256222    -0.292478789607    12.000000000000
         C           -2.478128498083    -5.653570659169    -0.293109424650    12.000000000000
         C           -6.134770503331     0.680544277094    -0.293408351316    12.000000000000
         C           -3.656788833189    -4.972948512133    -0.291957924028    12.000000000000
         C           -6.134765042913    -0.680558404644    -0.292137954893    12.000000000000
         H            5.835288495816     3.369271405792    -0.288576580142     1.007825032230
         H            7.073859172747     1.228212759737    -0.292921156221     1.007825032230
         H            4.600663264174     5.512376313291    -0.292688935993     1.007825032230
         H            5.835283387305    -3.369310545891    -0.296779221224     1.007825032230
         H           -0.000012151306     6.738526184974    -0.296438455512     1.007825032230
         H            7.073861171831    -1.228231431906    -0.292626217192     1.007825032230
         H            2.473313731799     6.740679802232    -0.292372078026     1.007825032230
         H            4.600668491381    -5.512380618338    -0.292153633379     1.007825032230
         H           -2.473318680537     6.740677230444    -0.292070731401     1.007825032230
         H           -0.000010268228    -6.738532665614    -0.287955029640     1.007825032230
         H           -5.835301914343     3.369266461134    -0.288440557994     1.007825032230
         H            2.473307923831    -6.740689863591    -0.292263906578     1.007825032230
         H           -4.600674841208     5.512373537441    -0.292523607669     1.007825032230
         H           -5.835279506835    -3.369293452942    -0.297058527105     1.007825032230
         H           -2.473300347440    -6.740683567302    -0.292713223123     1.007825032230
         H           -7.073857766768     1.228215983678    -0.293005147701     1.007825032230
         H           -4.600673786085    -5.512367158949    -0.292325941402     1.007825032230
         H           -7.073856934409    -1.228225121139    -0.292721073659     1.007825032230

  Running in c1 symmetry.

  Rotational constants: A =      0.00207  B =      0.00203  C =      0.00109 [cm^-1]
  Rotational constants: A =     62.20488  B =     60.91778  C =     32.56832 [MHz]
  Nuclear repulsion = 8725.235458625935280

  Charge       = 1
  Multiplicity = 1
  Electrons    = 394
  Nalpha       = 197
  Nbeta        = 197

  ==> Algorithm <==

  SCF Algorithm Type is DF.
  DIIS enabled.
  MOM disabled.
  Fractional occupation disabled.
  Guess Type is SAD.
  Energy threshold   = 1.00e-08
  Density threshold  = 1.00e-08
  Integral threshold = 1.00e-12

  ==> Primary Basis <==

  Basis Set: JUN-CC-PVDZ
    Blend: JUN-CC-PVDZ
    Number of shells: 569
    Number of basis functions: 1233
    Number of Cartesian functions: 1294
    Spherical Harmonics?: true
    Max angular momentum: 2

   => Loading Basis Set <=

    Name: (JUN-CC-PVDZ AUX)
    Role: JKFIT
    Keyword: DF_BASIS_SCF
    atoms 1-2, 4-5, 10, 17-70 entry C          line   146 file /opt/software/pc2/EB-SW/software/PSI4/1.9-foss-2022a/share/psi4/basis/jun-cc-pvdz-jkfit.gbs 
    atoms 3, 6                entry N          line   202 file /opt/software/pc2/EB-SW/software/PSI4/1.9-foss-2022a/share/psi4/basis/jun-cc-pvdz-jkfit.gbs 
    atoms 7-9, 11-16, 71-88   entry H          line    70 file /opt/software/pc2/EB-SW/software/PSI4/1.9-foss-2022a/share/psi4/basis/jun-cc-pvdz-jkfit.gbs 

  ==> Integral Setup <==

  ==> DiskDFJK: Density-Fitted J/K Matrices <==

    J tasked:                  Yes
    K tasked:                  Yes
    wK tasked:                  No
    OpenMP threads:             16
    Integrals threads:          16
    Memory [MiB]:            34332
    Algorithm:                Core
    Integral Cache:           SAVE
    Schwarz Cutoff:          1E-12
    Fitting Condition:       1E-10

   => Auxiliary Basis Set <=

  Basis Set: (JUN-CC-PVDZ AUX)
    Blend: JUN-CC-PVDZ-JKFIT
    Number of shells: 1890
    Number of basis functions: 5440
    Number of Cartesian functions: 6226
    Spherical Harmonics?: true
    Max angular momentum: 3

  Minimum eigenvalue in the overlap matrix is 2.0572577135E-10.
  Reciprocal condition number of the overlap matrix is 7.2062909404E-12.
    Using canonical orthogonalization.
  Overall, 15 of 1233 possible MOs eliminated.


  ==> Pre-Iterations <==

  SCF Guess: Superposition of Atomic Densities via on-the-fly atomic UHF (no occupation information).

   -------------------------
    Irrep   Nso     Nmo    
   -------------------------
     A       1233    1218 
   -------------------------
    Total    1233    1218
   -------------------------

  ==> Iterations <==

                           Total Energy        Delta E     RMS |[F,P]|

   @DF-RHF iter SAD: -2369.30341054475139   -2.36930e+03   0.00000e+00 
   @DF-RHF iter   1: -2357.81493028628165    1.14885e+01   9.58727e-04 DIIS/ADIIS
   @DF-RHF iter   2: -2358.72353345978536   -9.08603e-01   3.39554e-04 DIIS/ADIIS
   @DF-RHF iter   3: -2358.81992222857480   -9.63888e-02   1.39451e-04 DIIS/ADIIS
   @DF-RHF iter   4: -2358.83562563490386   -1.57034e-02   6.56358e-05 DIIS
   @DF-RHF iter   5: -2358.83947128309183   -3.84565e-03   1.95826e-05 DIIS
   @DF-RHF iter   6: -2358.83989659358986   -4.25310e-04   6.68543e-06 DIIS
   @DF-RHF iter   7: -2358.84002179890831   -1.25205e-04   3.27930e-06 DIIS
   @DF-RHF iter   8: -2358.84006323665199   -4.14377e-05   1.59919e-06 DIIS
   @DF-RHF iter   9: -2358.84007643016230   -1.31935e-05   6.84368e-07 DIIS
   @DF-RHF iter  10: -2358.84007792943294   -1.49927e-06   3.65678e-07 DIIS
   @DF-RHF iter  11: -2358.84007831997724   -3.90544e-07   2.00286e-07 DIIS
   @DF-RHF iter  12: -2358.84007852181730   -2.01840e-07   1.44764e-07 DIIS
   @DF-RHF iter  13: -2358.84007869201514   -1.70198e-07   9.34826e-08 DIIS
   @DF-RHF iter  14: -2358.84007876313217   -7.11170e-08   5.87057e-08 DIIS
   @DF-RHF iter  15: -2358.84007879375258   -3.06204e-08   2.78595e-08 DIIS
   @DF-RHF iter  16: -2358.84007879849378   -4.74120e-09   1.98439e-08 DIIS
   @DF-RHF iter  17: -2358.84007879968567   -1.19189e-09   8.72277e-09 DIIS
  Energy and wave function converged.


  ==> Post-Iterations <==

    Orbital Energies [Eh]
    ---------------------

    Doubly Occupied:                                                      

       1A    -15.759563     2A    -15.759478     3A    -11.474511  
       4A    -11.392173     5A    -11.390644     6A    -11.372768  
       7A    -11.366913     8A    -11.363441     9A    -11.362324  
      10A    -11.361857    11A    -11.361796    12A    -11.359616  
      13A    -11.359418    14A    -11.357734    15A    -11.357163  
      16A    -11.356279    17A    -11.355913    18A    -11.355494  
      19A    -11.355396    20A    -11.354277    21A    -11.354159  
      22A    -11.353581    23A    -11.353474    24A    -11.353313  
      25A    -11.353246    26A    -11.353092    27A    -11.352934  
      28A    -11.352514    29A    -11.352375    30A    -11.352260  
      31A    -11.351900    32A    -11.351497    33A    -11.351477  
      34A    -11.351361    35A    -11.351108    36A    -11.350974  
      37A    -11.350650    38A    -11.350043    39A    -11.349889  
      40A    -11.349847    41A    -11.349759    42A    -11.348361  
      43A    -11.348155    44A    -11.344855    45A    -11.342529  
      46A    -11.342350    47A    -11.342308    48A    -11.341545  
      49A    -11.339986    50A    -11.339882    51A    -11.339524  
      52A    -11.339011    53A    -11.338738    54A    -11.338512  
      55A    -11.338175    56A    -11.337999    57A    -11.337392  
      58A    -11.336940    59A    -11.336824    60A    -11.336295  
      61A    -11.335882    62A     -1.523674    63A     -1.382098  
      64A     -1.352243    65A     -1.323387    66A     -1.318819  
      67A     -1.290127    68A     -1.285543    69A     -1.280809  
      70A     -1.251639    71A     -1.244590    72A     -1.239586  
      73A     -1.235958    74A     -1.206663    75A     -1.205384  
      76A     -1.196119    77A     -1.180746    78A     -1.176560  
      79A     -1.176008    80A     -1.157223    81A     -1.157085  
      82A     -1.139766    83A     -1.134390    84A     -1.123955  
      85A     -1.120686    86A     -1.114339    87A     -1.109249  
      88A     -1.102862    89A     -1.088429    90A     -1.084455  
      91A     -1.059998    92A     -1.053836    93A     -1.050447  
      94A     -0.996406    95A     -0.992198    96A     -0.987602  
      97A     -0.983925    98A     -0.982477    99A     -0.978975  
     100A     -0.977812   101A     -0.961190   102A     -0.954994  
     103A     -0.943946   104A     -0.926131   105A     -0.914564  
     106A     -0.912304   107A     -0.908994   108A     -0.907395  
     109A     -0.889668   110A     -0.885709   111A     -0.863179  
     112A     -0.844071   113A     -0.843045   114A     -0.835092  
     115A     -0.830047   116A     -0.827518   117A     -0.825554  
     118A     -0.823222   119A     -0.810470   120A     -0.794668  
     121A     -0.792378   122A     -0.788260   123A     -0.787436  
     124A     -0.776944   125A     -0.762968   126A     -0.761293  
     127A     -0.751639   128A     -0.747109   129A     -0.745438  
     130A     -0.740705   131A     -0.740424   132A     -0.737577  
     133A     -0.731408   134A     -0.730092   135A     -0.729385  
     136A     -0.723316   137A     -0.722122   138A     -0.720966  
     139A     -0.703190   140A     -0.696608   141A     -0.692700  
     142A     -0.691458   143A     -0.690653   144A     -0.687964  
     145A     -0.687616   146A     -0.687126   147A     -0.681737  
     148A     -0.675304   149A     -0.673186   150A     -0.672455  
     151A     -0.661053   152A     -0.660733   153A     -0.656956  
     154A     -0.656861   155A     -0.656156   156A     -0.653040  
     157A     -0.644923   158A     -0.644763   159A     -0.639627  
     160A     -0.629018   161A     -0.628832   162A     -0.627392  
     163A     -0.622475   164A     -0.614923   165A     -0.614102  
     166A     -0.610099   167A     -0.600419   168A     -0.593352  
     169A     -0.589547   170A     -0.584159   171A     -0.583675  
     172A     -0.578938   173A     -0.577372   174A     -0.574714  
     175A     -0.574108   176A     -0.559912   177A     -0.547079  
     178A     -0.546594   179A     -0.537790   180A     -0.529992  
     181A     -0.525677   182A     -0.497706   183A     -0.494924  
     184A     -0.485802   185A     -0.474308   186A     -0.463591  
     187A     -0.463067   188A     -0.438056   189A     -0.432789  
     190A     -0.414040   191A     -0.402538   192A     -0.394916  
     193A     -0.383956   194A     -0.381087   195A     -0.379429  
     196A     -0.311735   197A     -0.311585  

    Virtual:                                                              

     198A     -0.088013   199A     -0.086045   200A     -0.039398  
     201A     -0.035861   202A     -0.034389   203A     -0.027860  
     204A     -0.021111   205A     -0.019774   206A     -0.018301  
     207A     -0.012592   208A     -0.012394   209A     -0.011525  
     210A     -0.008424   211A     -0.005106   212A     -0.003734  
     213A     -0.002810   214A      0.000018   215A      0.000707  
     216A      0.001374   217A      0.007161   218A      0.010727  
     219A      0.011436   220A      0.012774   221A      0.012789  
     222A      0.017092   223A      0.017234   224A      0.018971  
     225A      0.028401   226A      0.028473   227A      0.029306  
     228A      0.029996   229A      0.030377   230A      0.032892  
     231A      0.033249   232A      0.035698   233A      0.039516  
     234A      0.040079   235A      0.043795   236A      0.048326  
     237A      0.052743   238A      0.053854   239A      0.054202  
     240A      0.058138   241A      0.058931   242A      0.060002  
     243A      0.060632   244A      0.062429   245A      0.062663  
     246A      0.063474   247A      0.070161   248A      0.070376  
     249A      0.075026   250A      0.076614   251A      0.076945  
     252A      0.078624   253A      0.079745   254A      0.080258  
     255A      0.085395   256A      0.086030   257A      0.091319  
     258A      0.092120   259A      0.093956   260A      0.095459  
     261A      0.096526   262A      0.098101   263A      0.099128  
     264A      0.099464   265A      0.099839   266A      0.105197  
     267A      0.109388   268A      0.112295   269A      0.112833  
     270A      0.113856   271A      0.114657   272A      0.116963  
     273A      0.118409   274A      0.120162   275A      0.120355  
     276A      0.121288   277A      0.126295   278A      0.130052  
     279A      0.131061   280A      0.135064   281A      0.137828  
     282A      0.138832   283A      0.142035   284A      0.142486  
     285A      0.144000   286A      0.144983   287A      0.145272  
     288A      0.145553   289A      0.146155   290A      0.147418  
     291A      0.150199   292A      0.151207   293A      0.151672  
     294A      0.151705   295A      0.154135   296A      0.157456  
     297A      0.157994   298A      0.160408   299A      0.162689  
     300A      0.162831   301A      0.164185   302A      0.166634  
     303A      0.167289   304A      0.168652   305A      0.173196  
     306A      0.174323   307A      0.174686   308A      0.177038  
     309A      0.180188   310A      0.180632   311A      0.180787  
     312A      0.181352   313A      0.182071   314A      0.183965  
     315A      0.186467   316A      0.186941   317A      0.187839  
     318A      0.189098   319A      0.190452   320A      0.191226  
     321A      0.194642   322A      0.197003   323A      0.198074  
     324A      0.200038   325A      0.200415   326A      0.201491  
     327A      0.202538   328A      0.204211   329A      0.208993  
     330A      0.211219   331A      0.212693   332A      0.213215  
     333A      0.215392   334A      0.217578   335A      0.218727  
     336A      0.223074   337A      0.224051   338A      0.225169  
     339A      0.227582   340A      0.228526   341A      0.229785  
     342A      0.231590   343A      0.232613   344A      0.233096  
     345A      0.233130   346A      0.235862   347A      0.237321  
     348A      0.237889   349A      0.239211   350A      0.239624  
     351A      0.240819   352A      0.240928   353A      0.242117  
     354A      0.242579   355A      0.244525   356A      0.245097  
     357A      0.248120   358A      0.251025   359A      0.252023  
     360A      0.252882   361A      0.253725   362A      0.254761  
     363A      0.255694   364A      0.257847   365A      0.261037  
     366A      0.264891   367A      0.267069   368A      0.268848  
     369A      0.271638   370A      0.272248   371A      0.272581  
     372A      0.274055   373A      0.274665   374A      0.277342  
     375A      0.279044   376A      0.279865   377A      0.280567  
     378A      0.282310   379A      0.283116   380A      0.284418  
     381A      0.285190   382A      0.285889   383A      0.286502  
     384A      0.289138   385A      0.290889   386A      0.291469  
     387A      0.292712   388A      0.293131   389A      0.294602  
     390A      0.296673   391A      0.298515   392A      0.299227  
     393A      0.305891   394A      0.306803   395A      0.307209  
     396A      0.308655   397A      0.308875   398A      0.312992  
     399A      0.313886   400A      0.316122   401A      0.317045  
     402A      0.317825   403A      0.319171   404A      0.320349  
     405A      0.322470   406A      0.323310   407A      0.325167  
     408A      0.326230   409A      0.326450   410A      0.326984  
     411A      0.327574   412A      0.328008   413A      0.329110  
     414A      0.330577   415A      0.330932   416A      0.332605  
     417A      0.333351   418A      0.333753   419A      0.336169  
     420A      0.337385   421A      0.341845   422A      0.342846  
     423A      0.344998   424A      0.346469   425A      0.348260  
     426A      0.353224   427A      0.354087   428A      0.355512  
     429A      0.356481   430A      0.357397   431A      0.359249  
     432A      0.360689   433A      0.361601   434A      0.363163  
     435A      0.365511   436A      0.367940   437A      0.370941  
     438A      0.372232   439A      0.373232   440A      0.374881  
     441A      0.375427   442A      0.376908   443A      0.377697  
     444A      0.379409   445A      0.381046   446A      0.382524  
     447A      0.383938   448A      0.385807   449A      0.387934  
     450A      0.390258   451A      0.396162   452A      0.397357  
     453A      0.398663   454A      0.402161   455A      0.402658  
     456A      0.404963   457A      0.406101   458A      0.407387  
     459A      0.408481   460A      0.411134   461A      0.411645  
     462A      0.413241   463A      0.415257   464A      0.417172  
     465A      0.417939   466A      0.419283   467A      0.422612  
     468A      0.423973   469A      0.425959   470A      0.429247  
     471A      0.430212   472A      0.432447   473A      0.434693  
     474A      0.437646   475A      0.438704   476A      0.440678  
     477A      0.444829   478A      0.449944   479A      0.451628  
     480A      0.452699   481A      0.454671   482A      0.456332  
     483A      0.459139   484A      0.459936   485A      0.462489  
     486A      0.465984   487A      0.467969   488A      0.468995  
     489A      0.469549   490A      0.471035   491A      0.472134  
     492A      0.473738   493A      0.475111   494A      0.475949  
     495A      0.476040   496A      0.477969   497A      0.481241  
     498A      0.488052   499A      0.490107   500A      0.493862  
     501A      0.499500   502A      0.500430   503A      0.508026  
     504A      0.510404   505A      0.513462   506A      0.514648  
     507A      0.516633   508A      0.519557   509A      0.523258  
     510A      0.523733   511A      0.527494   512A      0.532219  
     513A      0.536826   514A      0.538401   515A      0.539909  
     516A      0.544437   517A      0.546457   518A      0.549697  
     519A      0.550748   520A      0.565097   521A      0.566209  
     522A      0.568403   523A      0.577748   524A      0.578193  
     525A      0.583843   526A      0.586432   527A      0.587293  
     528A      0.588538   529A      0.592677   530A      0.606940  
     531A      0.620063   532A      0.626451   533A      0.628266  
     534A      0.651729   535A      0.652989   536A      0.654192  
     537A      0.654291   538A      0.655206   539A      0.656833  
     540A      0.665945   541A      0.668848   542A      0.669694  
     543A      0.688979   544A      0.698530   545A      0.706159  
     546A      0.708669   547A      0.712104   548A      0.723815  
     549A      0.728053   550A      0.732913   551A      0.738465  
     552A      0.738716   553A      0.741581   554A      0.749621  
     555A      0.758346   556A      0.767369   557A      0.770520  
     558A      0.772550   559A      0.775081   560A      0.775671  
     561A      0.776840   562A      0.783639   563A      0.787757  
     564A      0.789894   565A      0.791418   566A      0.792620  
     567A      0.792734   568A      0.795925   569A      0.797805  
     570A      0.800862   571A      0.804023   572A      0.806666  
     573A      0.808493   574A      0.812701   575A      0.814024  
     576A      0.816422   577A      0.816753   578A      0.820004  
     579A      0.822721   580A      0.823995   581A      0.827559  
     582A      0.829775   583A      0.830670   584A      0.832335  
     585A      0.833155   586A      0.834746   587A      0.836489  
     588A      0.843510   589A      0.844404   590A      0.846040  
     591A      0.847789   592A      0.851758   593A      0.852660  
     594A      0.856617   595A      0.857106   596A      0.859744  
     597A      0.860995   598A      0.862879   599A      0.864189  
     600A      0.867410   601A      0.867742   602A      0.871563  
     603A      0.873407   604A      0.877287   605A      0.879304  
     606A      0.881674   607A      0.882535   608A      0.883167  
     609A      0.887495   610A      0.887912   611A      0.890550  
     612A      0.893887   613A      0.895261   614A      0.897440  
     615A      0.899040   616A      0.901913   617A      0.905550  
     618A      0.908104   619A      0.909747   620A      0.911943  
     621A      0.913766   622A      0.919050   623A      0.922283  
     624A      0.923359   625A      0.923675   626A      0.926223  
     627A      0.929942   628A      0.931075   629A      0.934982  
     630A      0.936272   631A      0.937954   632A      0.940002  
     633A      0.943381   634A      0.944537   635A      0.946805  
     636A      0.949649   637A      0.950408   638A      0.952952  
     639A      0.953043   640A      0.955672   641A      0.956424  
     642A      0.956621   643A      0.958930   644A      0.959269  
     645A      0.961042   646A      0.962981   647A      0.965774  
     648A      0.968402   649A      0.969198   650A      0.970560  
     651A      0.973216   652A      0.976163   653A      0.977678  
     654A      0.985011   655A      0.985167   656A      0.987197  
     657A      0.988169   658A      0.990129   659A      0.993108  
     660A      0.996173   661A      0.998279   662A      1.001586  
     663A      1.002963   664A      1.003957   665A      1.006477  
     666A      1.007559   667A      1.009843   668A      1.011898  
     669A      1.014522   670A      1.015189   671A      1.017184  
     672A      1.019809   673A      1.022605   674A      1.023911  
     675A      1.026316   676A      1.028791   677A      1.032041  
     678A      1.035459   679A      1.036064   680A      1.039033  
     681A      1.041397   682A      1.045979   683A      1.047971  
     684A      1.052039   685A      1.055449   686A      1.057546  
     687A      1.060572   688A      1.061067   689A      1.066403  
     690A      1.071978   691A      1.073157   692A      1.078981  
     693A      1.080941   694A      1.082736   695A      1.087606  
     696A      1.092200   697A      1.096775   698A      1.098248  
     699A      1.100872   700A      1.107668   701A      1.110870  
     702A      1.118605   703A      1.120362   704A      1.121013  
     705A      1.123215   706A      1.127051   707A      1.130480  
     708A      1.131102   709A      1.133666   710A      1.136954  
     711A      1.140358   712A      1.143537   713A      1.146263  
     714A      1.148679   715A      1.153654   716A      1.156672  
     717A      1.160560   718A      1.161897   719A      1.165198  
     720A      1.165955   721A      1.167559   722A      1.169497  
     723A      1.171621   724A      1.172644   725A      1.174054  
     726A      1.179349   727A      1.181862   728A      1.184837  
     729A      1.190977   730A      1.192253   731A      1.195477  
     732A      1.197486   733A      1.201686   734A      1.206725  
     735A      1.207666   736A      1.210098   737A      1.212113  
     738A      1.215680   739A      1.219064   740A      1.221520  
     741A      1.225339   742A      1.228951   743A      1.235351  
     744A      1.237513   745A      1.239190   746A      1.243551  
     747A      1.244782   748A      1.246354   749A      1.250124  
     750A      1.251135   751A      1.252510   752A      1.254598  
     753A      1.256384   754A      1.258965   755A      1.261844  
     756A      1.268815   757A      1.270263   758A      1.272801  
     759A      1.275816   760A      1.279745   761A      1.285606  
     762A      1.287609   763A      1.291524   764A      1.292085  
     765A      1.298057   766A      1.299136   767A      1.299428  
     768A      1.305887   769A      1.307063   770A      1.309937  
     771A      1.320895   772A      1.323365   773A      1.326525  
     774A      1.330784   775A      1.331199   776A      1.334176  
     777A      1.335909   778A      1.338663   779A      1.344835  
     780A      1.345388   781A      1.351833   782A      1.354948  
     783A      1.358637   784A      1.359086   785A      1.359725  
     786A      1.363756   787A      1.366325   788A      1.367474  
     789A      1.369323   790A      1.372807   791A      1.382317  
     792A      1.385709   793A      1.389911   794A      1.393168  
     795A      1.396566   796A      1.403702   797A      1.412096  
     798A      1.414593   799A      1.420676   800A      1.428068  
     801A      1.438087   802A      1.448464   803A      1.454376  
     804A      1.463146   805A      1.473426   806A      1.479015  
     807A      1.483335   808A      1.487014   809A      1.497947  
     810A      1.505658   811A      1.509464   812A      1.515761  
     813A      1.521569   814A      1.524827   815A      1.530881  
     816A      1.532696   817A      1.533644   818A      1.539430  
     819A      1.541818   820A      1.545966   821A      1.551289  
     822A      1.556891   823A      1.561753   824A      1.562101  
     825A      1.564202   826A      1.567862   827A      1.570716  
     828A      1.578569   829A      1.582691   830A      1.583232  
     831A      1.585732   832A      1.587306   833A      1.592181  
     834A      1.592773   835A      1.595472   836A      1.597908  
     837A      1.600685   838A      1.602749   839A      1.608922  
     840A      1.609425   841A      1.611560   842A      1.617082  
     843A      1.619393   844A      1.622665   845A      1.630189  
     846A      1.640036   847A      1.642301   848A      1.647988  
     849A      1.650505   850A      1.657714   851A      1.662004  
     852A      1.666105   853A      1.668728   854A      1.670260  
     855A      1.674709   856A      1.678607   857A      1.681337  
     858A      1.684550   859A      1.688825   860A      1.691786  
     861A      1.699199   862A      1.700328   863A      1.707775  
     864A      1.709168   865A      1.719363   866A      1.725065  
     867A      1.726870   868A      1.730215   869A      1.738270  
     870A      1.743183   871A      1.746091   872A      1.747386  
     873A      1.755425   874A      1.756745   875A      1.761632  
     876A      1.763852   877A      1.767109   878A      1.769402  
     879A      1.770744   880A      1.779079   881A      1.782751  
     882A      1.786896   883A      1.789499   884A      1.792889  
     885A      1.794330   886A      1.795123   887A      1.795498  
     888A      1.804589   889A      1.806802   890A      1.808499  
     891A      1.815300   892A      1.817126   893A      1.818363  
     894A      1.822474   895A      1.825222   896A      1.827100  
     897A      1.830169   898A      1.834877   899A      1.835817  
     900A      1.839253   901A      1.841946   902A      1.848683  
     903A      1.851221   904A      1.852514   905A      1.857699  
     906A      1.861370   907A      1.864844   908A      1.866166  
     909A      1.867034   910A      1.869065   911A      1.872077  
     912A      1.876914   913A      1.879197   914A      1.884049  
     915A      1.886555   916A      1.888215   917A      1.895655  
     918A      1.899974   919A      1.902951   920A      1.903858  
     921A      1.907994   922A      1.909332   923A      1.912741  
     924A      1.916542   925A      1.921323   926A      1.924305  
     927A      1.925384   928A      1.928086   929A      1.931316  
     930A      1.933561   931A      1.937348   932A      1.939710  
     933A      1.946947   934A      1.950216   935A      1.953439  
     936A      1.955489   937A      1.956926   938A      1.961324  
     939A      1.962635   940A      1.965833   941A      1.968339  
     942A      1.972153   943A      1.973622   944A      1.976122  
     945A      1.979184   946A      1.983298   947A      1.988395  
     948A      1.991443   949A      1.996284   950A      1.997872  
     951A      2.002980   952A      2.003633   953A      2.006642  
     954A      2.008607   955A      2.011370   956A      2.012669  
     957A      2.014978   958A      2.016529   959A      2.017901  
     960A      2.018898   961A      2.022673   962A      2.023739  
     963A      2.025166   964A      2.027630   965A      2.028775  
     966A      2.030835   967A      2.034206   968A      2.034803  
     969A      2.036593   970A      2.038821   971A      2.042605  
     972A      2.044299   973A      2.046058   974A      2.051327  
     975A      2.052813   976A      2.054378   977A      2.056481  
     978A      2.058453   979A      2.061785   980A      2.065177  
     981A      2.068611   982A      2.072603   983A      2.076595  
     984A      2.080432   985A      2.081569   986A      2.085444  
     987A      2.090043   988A      2.095490   989A      2.097323  
     990A      2.100947   991A      2.104064   992A      2.109204  
     993A      2.110158   994A      2.111847   995A      2.114488  
     996A      2.119858   997A      2.122466   998A      2.123496  
     999A      2.126237  1000A      2.134722  1001A      2.137962  
    1002A      2.145554  1003A      2.147434  1004A      2.151378  
    1005A      2.154397  1006A      2.156156  1007A      2.159486  
    1008A      2.165728  1009A      2.166568  1010A      2.166850  
    1011A      2.168730  1012A      2.170639  1013A      2.175172  
    1014A      2.177360  1015A      2.181539  1016A      2.184146  
    1017A      2.185710  1018A      2.189681  1019A      2.193695  
    1020A      2.195326  1021A      2.198446  1022A      2.204375  
    1023A      2.212477  1024A      2.214630  1025A      2.221491  
    1026A      2.225157  1027A      2.231614  1028A      2.235326  
    1029A      2.235540  1030A      2.241176  1031A      2.244910  
    1032A      2.247596  1033A      2.256560  1034A      2.259089  
    1035A      2.263902  1036A      2.268048  1037A      2.275395  
    1038A      2.279446  1039A      2.282676  1040A      2.286868  
    1041A      2.295659  1042A      2.304239  1043A      2.309304  
    1044A      2.312753  1045A      2.315369  1046A      2.316876  
    1047A      2.322576  1048A      2.323741  1049A      2.334183  
    1050A      2.337588  1051A      2.341499  1052A      2.350632  
    1053A      2.357812  1054A      2.366679  1055A      2.375763  
    1056A      2.385432  1057A      2.393530  1058A      2.396469  
    1059A      2.401069  1060A      2.411086  1061A      2.415609  
    1062A      2.418283  1063A      2.420253  1064A      2.426701  
    1065A      2.439444  1066A      2.440504  1067A      2.442878  
    1068A      2.447171  1069A      2.455405  1070A      2.458995  
    1071A      2.461730  1072A      2.464549  1073A      2.468524  
    1074A      2.469717  1075A      2.476146  1076A      2.477273  
    1077A      2.479251  1078A      2.482127  1079A      2.485000  
    1080A      2.491392  1081A      2.492012  1082A      2.498008  
    1083A      2.506437  1084A      2.509208  1085A      2.514726  
    1086A      2.517752  1087A      2.518650  1088A      2.533103  
    1089A      2.539223  1090A      2.541917  1091A      2.548169  
    1092A      2.555473  1093A      2.557675  1094A      2.563373  
    1095A      2.563634  1096A      2.568575  1097A      2.578098  
    1098A      2.580180  1099A      2.587906  1100A      2.590460  
    1101A      2.598757  1102A      2.606824  1103A      2.608475  
    1104A      2.615170  1105A      2.616429  1106A      2.618695  
    1107A      2.623216  1108A      2.625703  1109A      2.628185  
    1110A      2.631075  1111A      2.635685  1112A      2.642861  
    1113A      2.652368  1114A      2.663993  1115A      2.668355  
    1116A      2.675986  1117A      2.684278  1118A      2.689756  
    1119A      2.694974  1120A      2.702224  1121A      2.709077  
    1122A      2.714754  1123A      2.722207  1124A      2.736931  
    1125A      2.741542  1126A      2.746768  1127A      2.750651  
    1128A      2.756683  1129A      2.761262  1130A      2.770146  
    1131A      2.775390  1132A      2.779438  1133A      2.791870  
    1134A      2.811833  1135A      2.822210  1136A      2.830438  
    1137A      2.834467  1138A      2.839596  1139A      2.849646  
    1140A      2.851200  1141A      2.857273  1142A      2.867091  
    1143A      2.874662  1144A      2.877619  1145A      2.883032  
    1146A      2.900180  1147A      2.903401  1148A      2.916040  
    1149A      2.925109  1150A      2.931386  1151A      2.937211  
    1152A      2.941127  1153A      2.966450  1154A      2.970815  
    1155A      2.971658  1156A      2.975078  1157A      2.992954  
    1158A      3.004144  1159A      3.016609  1160A      3.022431  
    1161A      3.033022  1162A      3.043638  1163A      3.044680  
    1164A      3.058931  1165A      3.061040  1166A      3.061613  
    1167A      3.063524  1168A      3.064598  1169A      3.076783  
    1170A      3.081961  1171A      3.089464  1172A      3.096007  
    1173A      3.106276  1174A      3.111903  1175A      3.115698  
    1176A      3.126583  1177A      3.129211  1178A      3.138760  
    1179A      3.147240  1180A      3.164351  1181A      3.170321  
    1182A      3.172426  1183A      3.193178  1184A      3.201359  
    1185A      3.223203  1186A      3.229360  1187A      3.249616  
    1188A      3.258043  1189A      3.282571  1190A      3.290416  
    1191A      3.307972  1192A      3.342143  1193A      3.345276  
    1194A      3.412122  1195A      3.429184  1196A      3.478734  
    1197A      3.549232  1198A      3.562488  1199A      3.566855  
    1200A      3.582910  1201A      3.588688  1202A      3.600826  
    1203A      3.606673  1204A      3.674001  1205A      3.733264  
    1206A      3.781798  1207A      3.783941  1208A      3.785125  
    1209A      3.827305  1210A      3.829730  1211A      3.880983  
    1212A      3.903181  1213A      3.918427  1214A      4.002030  
    1215A      4.084818  1216A      4.168425  1217A      4.201344  
    1218A      4.347460  

    Final Occupation by Irrep:
              A 
    DOCC [   197 ]
    NA   [   197 ]
    NB   [   197 ]

  @DF-RHF Final Energy: -2358.84007879968567

   => Energetics <=

    Nuclear Repulsion Energy =           8725.2354586259352800
    One-Electron Energy =              -20545.5057577279512770
    Two-Electron Energy =                9461.4302203023307811
    Total Energy =                      -2358.8400787996852159

Computation Completed


Properties will be evaluated at   0.000000,   0.000000,   0.000000 [a0]

Properties computed using the SCF density matrix


 Multipole Moments:

 ------------------------------------------------------------------------------------
     Multipole            Electronic (a.u.)      Nuclear  (a.u.)        Total (a.u.)
 ------------------------------------------------------------------------------------

 L = 1.  Multiply by 2.5417464519 to convert [e a0] to [Debye]
 Dipole X            :          0.0185015            0.0006313            0.0191328
 Dipole Y            :         -1.8534767            1.8864948            0.0330181
 Dipole Z            :        -10.0195953           11.9332724            1.9136771
 Magnitude           :                                                    1.9140575

 ------------------------------------------------------------------------------------

*** tstop() called on n2cn0979 at Sat Feb 10 12:02:24 2024
Module time:
	user time   =    7165.68 seconds =     119.43 minutes
	system time =     249.64 seconds =       4.16 minutes
	total time  =        563 seconds =       9.38 minutes
Total time:
	user time   =    7165.68 seconds =     119.43 minutes
	system time =     249.64 seconds =       4.16 minutes
	total time  =        563 seconds =       9.38 minutes

  //>>>>>>>>>>>>>>>>>>>>>>>>>>>>>>>>>>>//
  //            Monomer A HF           //
  //<<<<<<<<<<<<<<<<<<<<<<<<<<<<<<<<<<<//

   => Libint2 <=

    Primary   basis highest AM E, G, H:  5, 4, 3
    Auxiliary basis highest AM E, G, H:  6, 5, 4
    Onebody   basis highest AM E, G, H:  6, 5, 4
    Solid Harmonics ordering:            gaussian

*** tstart() called on n2cn0979
*** at Sat Feb 10 12:02:24 2024

   => Loading Basis Set <=

    Name: JUN-CC-PVDZ
    Role: ORBITAL
    Keyword: BASIS
    atoms 1-2, 4-5, 10, 17-70 entry C          line   164 file /opt/software/pc2/EB-SW/software/PSI4/1.9-foss-2022a/share/psi4/basis/jun-cc-pvdz.gbs 
    atoms 3, 6                entry N          line   198 file /opt/software/pc2/EB-SW/software/PSI4/1.9-foss-2022a/share/psi4/basis/jun-cc-pvdz.gbs 
    atoms 7-9, 11-16, 71-88   entry H          line    36 file /opt/software/pc2/EB-SW/software/PSI4/1.9-foss-2022a/share/psi4/basis/jun-cc-pvdz.gbs 


         ---------------------------------------------------------
                                   SCF
               by Justin Turney, Rob Parrish, Andy Simmonett
                          and Daniel G. A. Smith
                              RHF Reference
                       16 Threads,  45776 MiB Core
         ---------------------------------------------------------

  ==> Geometry <==

    Molecular point group: c1
    Full point group: C1

    Geometry (in Angstrom), charge = 1, multiplicity = 1:

       Center              X                  Y                   Z               Mass       
    ------------   -----------------  -----------------  -----------------  -----------------
         C            0.680066520158    -1.215933861162     2.015498292152    12.000000000000
         C           -0.680504479842    -1.215549861162     2.013470292152    12.000000000000
         N           -1.085635479842     0.102774138838     2.012472292152    14.003074004430
         C            0.000107520158     0.884175138838     2.009196292152    12.000000000000
         C           -2.477365479842     0.570753138838     1.963066292152    12.000000000000
         N            1.085221520158     0.102774138838     2.012472292152    14.003074004430
         H            1.385145520158    -2.033372861162     2.023326292152     1.007825032230
         H           -1.385302479842    -2.033218861162     2.013660292152     1.007825032230
         H           -0.000009479842     1.965264138838     2.007449292152     1.007825032230
         C            2.478116520158     0.567872138838     2.029364292152    12.000000000000
         H            2.490591520158     1.658125138838     2.002019292152     1.007825032230
         H            2.967027520158     0.220696138838     2.942810292152     1.007825032230
         H            3.001427520158     0.176400138838     1.153881292152     1.007825032230
         H           -2.857359479842     0.490794138838     0.940995292152     1.007825032230
         H           -3.082679479842    -0.042310861162     2.633150292152     1.007825032230
         H           -2.518128479842     1.610701138838     2.290050292152     1.007825032230
      Gh(C)           1.225311895423     0.707533799757    -0.286406080564    12.000000000000
      Gh(C)           1.225323856051    -0.707543383733    -0.298736890134    12.000000000000
      Gh(C)          -0.000006153932     1.414961424928    -0.299270513655    12.000000000000
      Gh(C)           2.456448753949     1.418323398016    -0.283519223164    12.000000000000
      Gh(C)           0.000010827279    -1.414980987797    -0.289070956331    12.000000000000
      Gh(C)          -1.225300948908     0.707540884822    -0.284154560241    12.000000000000
      Gh(C)           2.456437755320    -1.418327793043    -0.300982046991    12.000000000000
      Gh(C)          -0.000001332978     2.836796542119    -0.301674063789    12.000000000000
      Gh(C)           3.681826697470     0.709313466839    -0.300633257193    12.000000000000
      Gh(C)           2.455120048865     2.834219172327    -0.300735814154    12.000000000000
      Gh(C)           3.681821105219    -0.709338328591    -0.284560773175    12.000000000000
      Gh(C)          -1.225313598688    -0.707532004706    -0.297664128707    12.000000000000
      Gh(C)           1.226699581202     3.543464994832    -0.284376741244    12.000000000000
      Gh(C)           0.000004784858    -2.836786628398    -0.284222788709    12.000000000000
      Gh(C)          -2.456436032848     1.418312429123    -0.284119164396    12.000000000000
      Gh(C)           2.455123417779    -2.834234517751    -0.284712681542    12.000000000000
      Gh(C)          -1.226714364589     3.543464574588    -0.284273408025    12.000000000000
      Gh(C)           4.914517295202     1.427168383327    -0.294152574164    12.000000000000
      Gh(C)           3.693150191476     3.542790803383    -0.294102774527    12.000000000000
      Gh(C)          -2.456437600068    -1.418317770001    -0.301007085116    12.000000000000
      Gh(C)           1.226704841943    -3.543478731069    -0.300346871994    12.000000000000
      Gh(C)          -2.455125398508     2.834212173472    -0.300729437808    12.000000000000
      Gh(C)           4.914524380782    -1.427191399106    -0.291179831429    12.000000000000
      Gh(C)           1.221424613699     4.970129576098    -0.291041397170    12.000000000000
      Gh(C)           4.893008229321     2.825183510864    -0.292935905805    12.000000000000
      Gh(C)          -1.226697008489    -3.543475486239    -0.300079667584    12.000000000000
      Gh(C)          -3.681818976526     0.709320477570    -0.300620576713    12.000000000000
      Gh(C)           3.693147101150    -3.542805830553    -0.291061940868    12.000000000000
      Gh(C)          -1.221432251994     4.970123808701    -0.290857901797    12.000000000000
      Gh(C)           6.134770972926     0.680543457943    -0.293382799614    12.000000000000
      Gh(C)           3.656788880610     4.972948754405    -0.293194136745    12.000000000000
      Gh(C)          -2.455126907733    -2.834219582223    -0.284957039340    12.000000000000
      Gh(C)          -3.681819179061    -0.709330192631    -0.284443151596    12.000000000000
      Gh(C)           4.893012617914    -2.825204594794    -0.292324753910    12.000000000000
      Gh(C)          -0.000001073113     5.650442876870    -0.292089210504    12.000000000000
      Gh(C)           6.134775112332    -0.680559343237    -0.292117479098    12.000000000000
      Gh(C)           2.478131482856     5.653572262169    -0.291905357095    12.000000000000
      Gh(C)           1.221422404738    -4.970131544095    -0.293840894192    12.000000000000
      Gh(C)          -3.693162383965     3.542792465030    -0.293937267068    12.000000000000
      Gh(C)          -1.221428520945    -4.970122792758    -0.293953656025    12.000000000000
      Gh(C)          -4.914521807942     1.427170957833    -0.294075629156    12.000000000000
      Gh(C)           3.656787019679    -4.972959715401    -0.291743636211    12.000000000000
      Gh(C)          -2.478138530106     5.653569933366    -0.291620832086    12.000000000000
      Gh(C)          -3.693141738564    -3.542794708141    -0.291178067024    12.000000000000
      Gh(C)          -4.914512483053    -1.427185489190    -0.291145134256    12.000000000000
      Gh(C)          -0.000006008926    -5.650442776176    -0.292484714625    12.000000000000
      Gh(C)          -4.893020484101     2.825184109757    -0.292945987665    12.000000000000
      Gh(C)           2.478125993298    -5.653578033051    -0.292834237003    12.000000000000
      Gh(C)          -3.656798710258     4.972951692879    -0.293017456370    12.000000000000
      Gh(C)          -4.892999478856    -2.825196256222    -0.292478789607    12.000000000000
      Gh(C)          -2.478128498083    -5.653570659169    -0.293109424650    12.000000000000
      Gh(C)          -6.134770503331     0.680544277094    -0.293408351316    12.000000000000
      Gh(C)          -3.656788833189    -4.972948512133    -0.291957924028    12.000000000000
      Gh(C)          -6.134765042913    -0.680558404644    -0.292137954893    12.000000000000
      Gh(H)           5.835288495816     3.369271405792    -0.288576580142     1.007825032230
      Gh(H)           7.073859172747     1.228212759737    -0.292921156221     1.007825032230
      Gh(H)           4.600663264174     5.512376313291    -0.292688935993     1.007825032230
      Gh(H)           5.835283387305    -3.369310545891    -0.296779221224     1.007825032230
      Gh(H)          -0.000012151306     6.738526184974    -0.296438455512     1.007825032230
      Gh(H)           7.073861171831    -1.228231431906    -0.292626217192     1.007825032230
      Gh(H)           2.473313731799     6.740679802232    -0.292372078026     1.007825032230
      Gh(H)           4.600668491381    -5.512380618338    -0.292153633379     1.007825032230
      Gh(H)          -2.473318680537     6.740677230444    -0.292070731401     1.007825032230
      Gh(H)          -0.000010268228    -6.738532665614    -0.287955029640     1.007825032230
      Gh(H)          -5.835301914343     3.369266461134    -0.288440557994     1.007825032230
      Gh(H)           2.473307923831    -6.740689863591    -0.292263906578     1.007825032230
      Gh(H)          -4.600674841208     5.512373537441    -0.292523607669     1.007825032230
      Gh(H)          -5.835279506835    -3.369293452942    -0.297058527105     1.007825032230
      Gh(H)          -2.473300347440    -6.740683567302    -0.292713223123     1.007825032230
      Gh(H)          -7.073857766768     1.228215983678    -0.293005147701     1.007825032230
      Gh(H)          -4.600673786085    -5.512367158949    -0.292325941402     1.007825032230
      Gh(H)          -7.073856934409    -1.228225121139    -0.292721073659     1.007825032230

  Running in c1 symmetry.

  Rotational constants: A =      0.00207  B =      0.00203  C =      0.00109 [cm^-1]
  Rotational constants: A =     62.20488  B =     60.91778  C =     32.56832 [MHz]
  Nuclear repulsion =  306.774908447733026

  Charge       = 1
  Multiplicity = 1
  Electrons    = 52
  Nalpha       = 26
  Nbeta        = 26

  ==> Algorithm <==

  SCF Algorithm Type is DF.
  DIIS enabled.
  MOM disabled.
  Fractional occupation disabled.
  Guess Type is SAD.
  Energy threshold   = 1.00e-08
  Density threshold  = 1.00e-08
  Integral threshold = 1.00e-12

  ==> Primary Basis <==

  Basis Set: JUN-CC-PVDZ
    Blend: JUN-CC-PVDZ
    Number of shells: 569
    Number of basis functions: 1233
    Number of Cartesian functions: 1294
    Spherical Harmonics?: true
    Max angular momentum: 2

   => Loading Basis Set <=

    Name: (JUN-CC-PVDZ AUX)
    Role: JKFIT
    Keyword: DF_BASIS_SCF
    atoms 1-2, 4-5, 10, 17-70 entry C          line   146 file /opt/software/pc2/EB-SW/software/PSI4/1.9-foss-2022a/share/psi4/basis/jun-cc-pvdz-jkfit.gbs 
    atoms 3, 6                entry N          line   202 file /opt/software/pc2/EB-SW/software/PSI4/1.9-foss-2022a/share/psi4/basis/jun-cc-pvdz-jkfit.gbs 
    atoms 7-9, 11-16, 71-88   entry H          line    70 file /opt/software/pc2/EB-SW/software/PSI4/1.9-foss-2022a/share/psi4/basis/jun-cc-pvdz-jkfit.gbs 

  ==> Integral Setup <==

  ==> DiskDFJK: Density-Fitted J/K Matrices <==

    J tasked:                  Yes
    K tasked:                  Yes
    wK tasked:                  No
    OpenMP threads:             16
    Integrals threads:          16
    Memory [MiB]:            34332
    Algorithm:                Core
    Integral Cache:           LOAD
    Schwarz Cutoff:          1E-12
    Fitting Condition:       1E-10

   => Auxiliary Basis Set <=

  Basis Set: (JUN-CC-PVDZ AUX)
    Blend: JUN-CC-PVDZ-JKFIT
    Number of shells: 1890
    Number of basis functions: 5440
    Number of Cartesian functions: 6226
    Spherical Harmonics?: true
    Max angular momentum: 3

  Minimum eigenvalue in the overlap matrix is 2.0572577135E-10.
  Reciprocal condition number of the overlap matrix is 7.2062909404E-12.
    Using canonical orthogonalization.
  Overall, 15 of 1233 possible MOs eliminated.


  ==> Pre-Iterations <==

  SCF Guess: Superposition of Atomic Densities via on-the-fly atomic UHF (no occupation information).

   -------------------------
    Irrep   Nso     Nmo    
   -------------------------
     A       1233    1218 
   -------------------------
    Total    1233    1218
   -------------------------

  ==> Iterations <==

                           Total Energy        Delta E     RMS |[F,P]|

   @DF-RHF iter SAD:  -303.36541216899133   -3.03365e+02   0.00000e+00 
   @DF-RHF iter   1:  -303.17312945442961    1.92283e-01   3.46986e-04 DIIS/ADIIS
   @DF-RHF iter   2:  -303.28765364172358   -1.14524e-01   1.16639e-04 DIIS/ADIIS
   @DF-RHF iter   3:  -303.29924121835268   -1.15876e-02   4.57943e-05 DIIS
   @DF-RHF iter   4:  -303.30118596866805   -1.94475e-03   1.01211e-05 DIIS
   @DF-RHF iter   5:  -303.30129725175482   -1.11283e-04   2.47360e-06 DIIS
   @DF-RHF iter   6:  -303.30130715097312   -9.89922e-06   6.72758e-07 DIIS
   @DF-RHF iter   7:  -303.30130829520198   -1.14423e-06   3.48281e-07 DIIS
   @DF-RHF iter   8:  -303.30130857846831   -2.83266e-07   1.41234e-07 DIIS
   @DF-RHF iter   9:  -303.30130863408544   -5.56171e-08   3.50473e-08 DIIS
   @DF-RHF iter  10:  -303.30130863710866   -3.02322e-09   1.31687e-08 DIIS
   @DF-RHF iter  11:  -303.30130863736179   -2.53124e-10   3.24808e-09 DIIS
  Energy and wave function converged.


  ==> Post-Iterations <==

    Orbital Energies [Eh]
    ---------------------

    Doubly Occupied:                                                      

       1A    -15.834656     2A    -15.834107     3A    -11.528813  
       4A    -11.459544     5A    -11.457977     6A    -11.449143  
       7A    -11.448947     8A     -1.576945     9A     -1.432666  
      10A     -1.237632    11A     -1.188434    12A     -1.118178  
      13A     -1.021446    14A     -0.995989    15A     -0.916188  
      16A     -0.849910    17A     -0.815424    18A     -0.812114  
      19A     -0.789213    20A     -0.785834    21A     -0.780950  
      22A     -0.729116    23A     -0.725213    24A     -0.716815  
      25A     -0.595414    26A     -0.523340  

    Virtual:                                                              

      27A     -0.080921    28A     -0.071685    29A     -0.064285  
      30A     -0.064186    31A     -0.046220    32A     -0.044912  
      33A     -0.044271    34A     -0.040119    35A     -0.034781  
      36A     -0.029913    37A     -0.024020    38A     -0.023621  
      39A     -0.020443    40A     -0.017502    41A     -0.016559  
      42A     -0.014023    43A     -0.009740    44A     -0.005883  
      45A      0.000343    46A      0.000725    47A      0.003329  
      48A      0.004021    49A      0.005912    50A      0.007429  
      51A      0.011091    52A      0.012197    53A      0.012751  
      54A      0.018819    55A      0.024719    56A      0.024756  
      57A      0.028937    58A      0.029482    59A      0.030495  
      60A      0.031239    61A      0.033329    62A      0.035213  
      63A      0.036819    64A      0.039258    65A      0.039855  
      66A      0.043416    67A      0.045475    68A      0.049120  
      69A      0.052861    70A      0.055822    71A      0.056302  
      72A      0.057388    73A      0.058811    74A      0.059270  
      75A      0.060719    76A      0.061794    77A      0.062247  
      78A      0.063197    79A      0.064034    80A      0.067599  
      81A      0.070170    82A      0.072645    83A      0.075332  
      84A      0.076430    85A      0.079783    86A      0.080870  
      87A      0.081169    88A      0.082206    89A      0.082669  
      90A      0.085016    91A      0.087312    92A      0.088238  
      93A      0.092608    94A      0.093308    95A      0.094638  
      96A      0.095106    97A      0.095555    98A      0.100712  
      99A      0.101425   100A      0.105254   101A      0.105991  
     102A      0.107791   103A      0.107863   104A      0.108490  
     105A      0.109383   106A      0.109898   107A      0.110180  
     108A      0.113705   109A      0.117127   110A      0.120406  
     111A      0.121722   112A      0.122946   113A      0.125852  
     114A      0.126303   115A      0.127981   116A      0.128615  
     117A      0.130869   118A      0.131765   119A      0.133245  
     120A      0.135506   121A      0.137240   122A      0.137515  
     123A      0.138682   124A      0.141233   125A      0.141609  
     126A      0.144878   127A      0.148208   128A      0.149440  
     129A      0.149495   130A      0.151974   131A      0.153012  
     132A      0.153853   133A      0.154710   134A      0.157053  
     135A      0.159378   136A      0.160864   137A      0.162644  
     138A      0.163393   139A      0.164123   140A      0.166011  
     141A      0.166465   142A      0.167343   143A      0.168455  
     144A      0.169558   145A      0.170682   146A      0.172119  
     147A      0.175624   148A      0.176644   149A      0.178289  
     150A      0.178607   151A      0.179489   152A      0.184086  
     153A      0.186433   154A      0.188393   155A      0.189554  
     156A      0.192607   157A      0.193403   158A      0.195921  
     159A      0.196853   160A      0.198633   161A      0.200013  
     162A      0.200893   163A      0.202399   164A      0.203563  
     165A      0.205630   166A      0.207175   167A      0.211619  
     168A      0.213394   169A      0.214934   170A      0.216161  
     171A      0.217282   172A      0.218268   173A      0.219088  
     174A      0.219266   175A      0.219980   176A      0.220717  
     177A      0.224175   178A      0.224686   179A      0.228563  
     180A      0.229786   181A      0.232233   182A      0.234166  
     183A      0.236991   184A      0.237830   185A      0.239019  
     186A      0.242494   187A      0.244180   188A      0.248233  
     189A      0.249088   190A      0.252861   191A      0.253297  
     192A      0.255936   193A      0.257657   194A      0.258694  
     195A      0.259710   196A      0.261894   197A      0.263321  
     198A      0.264097   199A      0.265829   200A      0.267697  
     201A      0.270727   202A      0.271632   203A      0.273379  
     204A      0.274507   205A      0.276261   206A      0.277323  
     207A      0.279751   208A      0.280967   209A      0.284042  
     210A      0.285669   211A      0.287586   212A      0.288132  
     213A      0.290605   214A      0.293003   215A      0.295424  
     216A      0.297630   217A      0.299020   218A      0.299592  
     219A      0.303545   220A      0.306171   221A      0.306946  
     222A      0.307970   223A      0.309022   224A      0.310933  
     225A      0.314344   226A      0.316666   227A      0.318082  
     228A      0.319750   229A      0.323831   230A      0.324248  
     231A      0.325827   232A      0.329028   233A      0.331295  
     234A      0.334578   235A      0.336776   236A      0.340092  
     237A      0.343937   238A      0.345653   239A      0.346498  
     240A      0.347740   241A      0.354553   242A      0.355402  
     243A      0.356286   244A      0.358102   245A      0.360280  
     246A      0.362338   247A      0.362770   248A      0.363322  
     249A      0.367391   250A      0.368408   251A      0.369544  
     252A      0.372447   253A      0.373082   254A      0.374474  
     255A      0.377305   256A      0.378724   257A      0.379782  
     258A      0.383265   259A      0.384075   260A      0.384321  
     261A      0.386483   262A      0.387327   263A      0.388728  
     264A      0.390561   265A      0.396186   266A      0.396548  
     267A      0.399115   268A      0.400712   269A      0.403200  
     270A      0.404792   271A      0.405292   272A      0.406915  
     273A      0.408837   274A      0.411414   275A      0.414521  
     276A      0.415113   277A      0.417034   278A      0.418750  
     279A      0.423480   280A      0.424908   281A      0.426488  
     282A      0.428652   283A      0.433453   284A      0.434384  
     285A      0.437814   286A      0.438513   287A      0.440060  
     288A      0.441873   289A      0.444808   290A      0.445832  
     291A      0.447828   292A      0.449640   293A      0.451722  
     294A      0.452383   295A      0.453888   296A      0.454654  
     297A      0.460411   298A      0.460922   299A      0.461156  
     300A      0.464205   301A      0.465314   302A      0.467285  
     303A      0.474019   304A      0.477721   305A      0.479783  
     306A      0.483324   307A      0.483678   308A      0.485681  
     309A      0.489444   310A      0.491708   311A      0.492710  
     312A      0.494003   313A      0.495733   314A      0.497466  
     315A      0.499492   316A      0.500280   317A      0.507878  
     318A      0.509203   319A      0.509941   320A      0.513057  
     321A      0.515387   322A      0.515958   323A      0.517887  
     324A      0.518736   325A      0.523224   326A      0.526034  
     327A      0.529552   328A      0.531375   329A      0.535434  
     330A      0.536498   331A      0.538591   332A      0.542920  
     333A      0.543297   334A      0.544842   335A      0.548467  
     336A      0.550503   337A      0.552035   338A      0.555419  
     339A      0.557496   340A      0.559213   341A      0.561363  
     342A      0.563309   343A      0.566048   344A      0.567506  
     345A      0.569622   346A      0.571462   347A      0.572302  
     348A      0.574124   349A      0.576882   350A      0.582174  
     351A      0.582933   352A      0.585836   353A      0.587578  
     354A      0.589275   355A      0.589681   356A      0.590867  
     357A      0.593951   358A      0.594820   359A      0.597175  
     360A      0.599716   361A      0.601720   362A      0.607265  
     363A      0.609554   364A      0.611746   365A      0.613200  
     366A      0.617213   367A      0.620421   368A      0.625246  
     369A      0.625586   370A      0.629925   371A      0.632470  
     372A      0.637499   373A      0.644405   374A      0.646320  
     375A      0.647106   376A      0.649131   377A      0.651873  
     378A      0.657693   379A      0.661033   380A      0.663271  
     381A      0.664313   382A      0.665283   383A      0.666568  
     384A      0.668185   385A      0.670566   386A      0.671356  
     387A      0.672931   388A      0.673834   389A      0.675866  
     390A      0.677580   391A      0.680439   392A      0.685966  
     393A      0.692409   394A      0.694489   395A      0.697090  
     396A      0.700452   397A      0.701495   398A      0.703293  
     399A      0.707288   400A      0.708348   401A      0.710688  
     402A      0.715596   403A      0.719266   404A      0.720269  
     405A      0.725239   406A      0.730088   407A      0.743882  
     408A      0.753908   409A      0.754359   410A      0.761557  
     411A      0.762480   412A      0.762955   413A      0.767178  
     414A      0.771228   415A      0.773407   416A      0.774976  
     417A      0.778904   418A      0.787926   419A      0.789596  
     420A      0.790569   421A      0.800036   422A      0.802773  
     423A      0.805106   424A      0.806896   425A      0.811313  
     426A      0.815714   427A      0.823340   428A      0.827606  
     429A      0.834012   430A      0.841579   431A      0.846316  
     432A      0.853130   433A      0.862214   434A      0.864834  
     435A      0.870045   436A      0.871622   437A      0.879513  
     438A      0.883586   439A      0.886136   440A      0.889128  
     441A      0.895810   442A      0.906429   443A      0.907755  
     444A      0.910961   445A      0.912542   446A      0.914643  
     447A      0.918569   448A      0.927802   449A      0.933475  
     450A      0.936059   451A      0.947667   452A      0.951419  
     453A      0.961877   454A      0.965415   455A      0.969218  
     456A      0.972419   457A      0.973872   458A      0.978279  
     459A      0.982001   460A      0.992777   461A      0.997065  
     462A      1.001718   463A      1.005519   464A      1.011187  
     465A      1.011860   466A      1.023010   467A      1.028720  
     468A      1.040081   469A      1.046870   470A      1.050675  
     471A      1.052854   472A      1.057591   473A      1.060305  
     474A      1.068429   475A      1.075145   476A      1.083458  
     477A      1.087413   478A      1.089883   479A      1.092875  
     480A      1.096445   481A      1.098916   482A      1.100191  
     483A      1.108909   484A      1.120147   485A      1.120561  
     486A      1.129632   487A      1.139299   488A      1.140104  
     489A      1.161359   490A      1.177962   491A      1.180167  
     492A      1.192346   493A      1.196253   494A      1.198096  
     495A      1.200906   496A      1.206529   497A      1.211644  
     498A      1.219051   499A      1.221019   500A      1.225466  
     501A      1.227758   502A      1.233672   503A      1.244676  
     504A      1.252105   505A      1.260908   506A      1.276447  
     507A      1.281374   508A      1.282822   509A      1.286106  
     510A      1.300743   511A      1.305607   512A      1.317575  
     513A      1.341238   514A      1.349797   515A      1.350477  
     516A      1.358146   517A      1.359530   518A      1.363729  
     519A      1.365437   520A      1.398561   521A      1.400969  
     522A      1.405472   523A      1.425191   524A      1.432747  
     525A      1.449766   526A      1.452150   527A      1.454931  
     528A      1.457780   529A      1.461749   530A      1.467335  
     531A      1.493977   532A      1.499812   533A      1.501752  
     534A      1.511179   535A      1.529552   536A      1.538924  
     537A      1.544700   538A      1.551973   539A      1.561799  
     540A      1.568559   541A      1.578770   542A      1.581224  
     543A      1.584293   544A      1.585985   545A      1.594108  
     546A      1.594672   547A      1.607105   548A      1.622684  
     549A      1.629278   550A      1.629887   551A      1.632048  
     552A      1.637977   553A      1.642321   554A      1.651791  
     555A      1.654330   556A      1.662899   557A      1.665098  
     558A      1.670118   559A      1.674728   560A      1.677749  
     561A      1.685628   562A      1.688463   563A      1.692734  
     564A      1.695244   565A      1.695916   566A      1.698055  
     567A      1.708201   568A      1.709308   569A      1.712547  
     570A      1.714086   571A      1.719294   572A      1.722879  
     573A      1.726663   574A      1.727971   575A      1.730704  
     576A      1.735276   577A      1.737527   578A      1.743757  
     579A      1.748329   580A      1.753847   581A      1.756533  
     582A      1.757616   583A      1.759552   584A      1.763094  
     585A      1.768583   586A      1.770994   587A      1.773817  
     588A      1.777092   589A      1.779447   590A      1.781426  
     591A      1.783201   592A      1.788806   593A      1.789535  
     594A      1.792793   595A      1.794714   596A      1.795949  
     597A      1.799945   598A      1.801962   599A      1.804738  
[...]
     829A      1.845453   830A      1.848282   831A      1.851156  
     832A      1.856125   833A      1.860329   834A      1.863475  
     835A      1.865523   836A      1.868648   837A      1.871280  
     838A      1.871503   839A      1.875679   840A      1.876825  
     841A      1.879618   842A      1.887618   843A      1.889940  
     844A      1.892287   845A      1.896390   846A      1.900882  
     847A      1.905206   848A      1.906062   849A      1.909935  
     850A      1.912468   851A      1.914522   852A      1.915839  
     853A      1.919527   854A      1.923906   855A      1.925260  
     856A      1.928877   857A      1.934159   858A      1.935683  
     859A      1.940830   860A      1.945053   861A      1.947348  
     862A      1.948751   863A      1.951763   864A      1.953005  
     865A      1.954899   866A      1.955078   867A      1.957182  
     868A      1.960782   869A      1.967534   870A      1.979718  
     871A      1.980858   872A      1.983785   873A      1.992429  
     874A      1.994603   875A      1.995095   876A      1.998445  
     877A      2.001190   878A      2.005341   879A      2.008236  
     880A      2.013405   881A      2.013889   882A      2.019850  
     883A      2.022645   884A      2.023634   885A      2.027196  
     886A      2.027667   887A      2.032010   888A      2.037004  
     889A      2.038820   890A      2.046926   891A      2.051425  
     892A      2.052839   893A      2.056586   894A      2.057868  
     895A      2.060075   896A      2.061836   897A      2.063854  
     898A      2.064990   899A      2.071569   900A      2.074453  
     901A      2.076058   902A      2.078895   903A      2.083161  
     904A      2.086409   905A      2.089747   906A      2.092268  
     907A      2.095614   908A      2.096921   909A      2.097681  
     910A      2.099522   911A      2.102428   912A      2.103485  
     913A      2.106083   914A      2.108570   915A      2.110125  
     916A      2.112718   917A      2.114492   918A      2.114783  
     919A      2.116728   920A      2.119432   921A      2.119693  
     922A      2.121401   923A      2.123605   924A      2.127320  
     925A      2.129312   926A      2.131009   927A      2.133936  
     928A      2.134416   929A      2.138325   930A      2.139855  
     931A      2.142637   932A      2.143702   933A      2.148099  
     934A      2.153195   935A      2.157053   936A      2.159898  
     937A      2.160244   938A      2.168484   939A      2.171196  
     940A      2.175428   941A      2.178122   942A      2.180867  
     943A      2.183269   944A      2.188839   945A      2.189962  
     946A      2.195745   947A      2.196864   948A      2.201053  
     949A      2.206464   950A      2.208044   951A      2.212532  
     952A      2.215216   953A      2.219693   954A      2.225683  
     955A      2.227570   956A      2.233728   957A      2.239977  
     958A      2.241835   959A      2.244650   960A      2.245963  
     961A      2.247877   962A      2.250665   963A      2.252871  
     964A      2.254102   965A      2.258719   966A      2.261613  
     967A      2.263643   968A      2.266226   969A      2.270651  
     970A      2.273420   971A      2.275011   972A      2.276516  
     973A      2.280943   974A      2.282984   975A      2.291357  
     976A      2.299108   977A      2.300190   978A      2.312702  
     979A      2.317288   980A      2.317447   981A      2.325726  
     982A      2.331312   983A      2.339465   984A      2.346297  
     985A      2.347443   986A      2.352540   987A      2.355014  
     988A      2.355214   989A      2.359101   990A      2.367654  
     991A      2.369635   992A      2.377586   993A      2.385410  
     994A      2.391842   995A      2.396449   996A      2.398721  
     997A      2.405829   998A      2.414047   999A      2.419851  
    1000A      2.422232  1001A      2.425509  1002A      2.436068  
    1003A      2.440920  1004A      2.444545  1005A      2.452443  
    1006A      2.462718  1007A      2.468066  1008A      2.474407  
    1009A      2.478225  1010A      2.482979  1011A      2.487091  
    1012A      2.491119  1013A      2.494192  1014A      2.497199  
    1015A      2.502466  1016A      2.508872  1017A      2.516850  
    1018A      2.518934  1019A      2.522567  1020A      2.529192  
    1021A      2.531984  1022A      2.532608  1023A      2.535862  
    1024A      2.541331  1025A      2.547850  1026A      2.548626  
    1027A      2.554888  1028A      2.558481  1029A      2.559776  
    1030A      2.564423  1031A      2.566685  1032A      2.567027  
    1033A      2.569345  1034A      2.571238  1035A      2.577435  
    1036A      2.577997  1037A      2.586530  1038A      2.587574  
    1039A      2.592176  1040A      2.598026  1041A      2.604829  
    1042A      2.607750  1043A      2.608315  1044A      2.612592  
    1045A      2.618019  1046A      2.624634  1047A      2.631841  
    1048A      2.636677  1049A      2.642891  1050A      2.643212  
    1051A      2.649390  1052A      2.653926  1053A      2.657196  
    1054A      2.658000  1055A      2.664574  1056A      2.667020  
    1057A      2.673722  1058A      2.679181  1059A      2.686807  
    1060A      2.692615  1061A      2.702121  1062A      2.706314  
    1063A      2.709613  1064A      2.713004  1065A      2.713999  
    1066A      2.716026  1067A      2.721692  1068A      2.724281  
    1069A      2.729632  1070A      2.739156  1071A      2.748148  
    1072A      2.754921  1073A      2.763256  1074A      2.769629  
    1075A      2.779191  1076A      2.788721  1077A      2.793006  
    1078A      2.797183  1079A      2.804871  1080A      2.812928  
    1081A      2.821651  1082A      2.829604  1083A      2.833051  
    1084A      2.840221  1085A      2.844246  1086A      2.848379  
    1087A      2.853539  1088A      2.858838  1089A      2.859504  
    1090A      2.866285  1091A      2.883526  1092A      2.895399  
    1093A      2.897013  1094A      2.906932  1095A      2.915598  
    1096A      2.924118  1097A      2.929777  1098A      2.930387  
    1099A      2.940015  1100A      2.952439  1101A      2.964038  
    1102A      2.965073  1103A      2.971164  1104A      2.980792  
    1105A      2.988960  1106A      3.004303  1107A      3.016541  
    1108A      3.017729  1109A      3.030496  1110A      3.033927  
    1111A      3.054278  1112A      3.064085  1113A      3.066975  
    1114A      3.070415  1115A      3.076225  1116A      3.081941  
    1117A      3.086210  1118A      3.104713  1119A      3.115130  
    1120A      3.125316  1121A      3.127226  1122A      3.134019  
    1123A      3.135908  1124A      3.139057  1125A      3.147987  
    1126A      3.151554  1127A      3.153485  1128A      3.155456  
    1129A      3.159010  1130A      3.163925  1131A      3.164522  
    1132A      3.175961  1133A      3.176489  1134A      3.192938  
    1135A      3.197554  1136A      3.208491  1137A      3.219955  
    1138A      3.228117  1139A      3.237021  1140A      3.256571  
    1141A      3.262107  1142A      3.267624  1143A      3.279704  
    1144A      3.294560  1145A      3.296478  1146A      3.324987  
    1147A      3.331088  1148A      3.360852  1149A      3.376966  
    1150A      3.386304  1151A      3.421561  1152A      3.436049  
    1153A      3.446682  1154A      3.453201  1155A      3.467921  
    1156A      3.481019  1157A      3.491539  1158A      3.511237  
    1159A      3.538495  1160A      3.548491  1161A      3.570170  
    1162A      3.584744  1163A      3.633871  1164A      3.648038  
    1165A      3.649383  1166A      3.678634  1167A      3.686179  
    1168A      3.695695  1169A      3.708276  1170A      3.711566  
    1171A      3.724005  1172A      3.770226  1173A      3.788640  
    1174A      3.834349  1175A      3.873424  1176A      3.875646  
    1177A      3.891630  1178A      3.899145  1179A      3.912976  
    1180A      3.916656  1181A      3.927932  1182A      3.956726  
    1183A      4.003793  1184A      4.014202  1185A      4.022451  
    1186A      4.063827  1187A      4.103069  1188A      4.168688  
    1189A      4.257284  1190A      4.370439  1191A      4.419410  
    1192A      4.462082  1193A      4.486528  1194A      4.692205  
    1195A      4.841409  1196A      4.954981  1197A      5.005115  
    1198A      5.068631  1199A      5.085679  1200A      5.125718  
    1201A      5.148658  1202A      5.187842  1203A      5.217097  
    1204A      5.262077  1205A      5.297443  1206A      5.334564  
    1207A      5.479926  1208A      5.515245  1209A      5.847036  
    1210A      5.889494  1211A      6.115789  1212A     18.253775  
    1213A     18.536439  1214A     18.570325  1215A     18.697616  
    1216A     19.061264  1217A     25.389622  1218A     25.431343  

    Final Occupation by Irrep:
              A 
    DOCC [   171 ]
    NA   [   171 ]
    NB   [   171 ]

  @DF-RHF Final Energy: -2055.89813759504568

   => Energetics <=

    Nuclear Repulsion Energy =           6452.5568002797781446
    One-Electron Energy =              -15636.5768582063392387
    Two-Electron Energy =                7128.1219203315167761
    Total Energy =                      -2055.8981375950452275

Computation Completed


Properties will be evaluated at   0.000000,   0.000000,   0.000000 [a0]

Properties computed using the SCF density matrix


 Multipole Moments:

 ------------------------------------------------------------------------------------
     Multipole            Electronic (a.u.)      Nuclear  (a.u.)        Total (a.u.)
 ------------------------------------------------------------------------------------

 L = 1.  Multiply by 2.5417464519 to convert [e a0] to [Debye]
 Dipole X            :         -0.0009358           -0.0000085           -0.0009443
 Dipole Y            :         -0.0003464           -0.0028843           -0.0032307
 Dipole Z            :        189.0737196         -189.0684437            0.0052759
 Magnitude           :                                                    0.0062581

 ------------------------------------------------------------------------------------

*** tstop() called on n2cn0979 at Sat Feb 10 12:09:35 2024
Module time:
	user time   =    3656.51 seconds =      60.94 minutes
	system time =     162.86 seconds =       2.71 minutes
	total time  =        270 seconds =       4.50 minutes
Total time:
	user time   =   12875.23 seconds =     214.59 minutes
	system time =     448.18 seconds =       7.47 minutes
	total time  =        994 seconds =      16.57 minutes
  Constructing Basis Sets for SAPT...

   => Loading Basis Set <=

    Name: (JUN-CC-PVDZ AUX)
    Role: RIFIT
    Keyword: DF_BASIS_SAPT
    atoms 1-2, 4-5, 10, 17-70 entry C          line   100 file /opt/software/pc2/EB-SW/software/PSI4/1.9-foss-2022a/share/psi4/basis/jun-cc-pvdz-ri.gbs 
    atoms 3, 6                entry N          line   144 file /opt/software/pc2/EB-SW/software/PSI4/1.9-foss-2022a/share/psi4/basis/jun-cc-pvdz-ri.gbs 
    atoms 7-9, 11-16, 71-88   entry H          line    30 file /opt/software/pc2/EB-SW/software/PSI4/1.9-foss-2022a/share/psi4/basis/jun-cc-pvdz-ri.gbs 

   => Loading Basis Set <=

    Name: (JUN-CC-PVDZ AUX)
    Role: JKFIT
    Keyword: DF_BASIS_ELST
    atoms 1-2, 4-5, 10, 17-70 entry C          line   146 file /opt/software/pc2/EB-SW/software/PSI4/1.9-foss-2022a/share/psi4/basis/jun-cc-pvdz-jkfit.gbs 
    atoms 3, 6                entry N          line   202 file /opt/software/pc2/EB-SW/software/PSI4/1.9-foss-2022a/share/psi4/basis/jun-cc-pvdz-jkfit.gbs 
    atoms 7-9, 11-16, 71-88   entry H          line    70 file /opt/software/pc2/EB-SW/software/PSI4/1.9-foss-2022a/share/psi4/basis/jun-cc-pvdz-jkfit.gbs 


  //>>>>>>>>>>>>>>>>>>>>>>>>>>>>>>>>>>>//
  //               SSAPT0              //
  //<<<<<<<<<<<<<<<<<<<<<<<<<<<<<<<<<<<//


*** tstart() called on n2cn0979
*** at Sat Feb 10 12:09:36 2024

        SAPT0  
    Ed Hohenstein
     6 June 2009

      Orbital Information
  --------------------------
    NSO        =      1233
    NMO        =      1218
    NRI        =      4343
    NRI (Elst) =      5440
    NOCC A     =        26
    NOCC B     =       171
    FOCC A     =         7
    FOCC B     =        54
    NVIR A     =      1192
    NVIR B     =      1047

    Elst10,r            =    -0.256732986577 [Eh]
    Exch10              =     0.692256575938 [Eh]
    Exch10 (S^2)        =     0.648215345486 [Eh]

    Iter     Energy [mEh]          dE [mEh]         Residual      Time [s]
       1    -136.29564682     136.295646816      70.353294392            21
       2    -167.24462146      30.948974641      24.222490871            37
       3    -172.91521269       5.670591229       5.538390975            50
       4    -172.66979213      -0.245420558       2.123450080            61
       5    -172.35060689      -0.319185241       0.372458045            72
       6    -172.36258906       0.011982177       0.184838066            84
       7    -172.37805108       0.015462015       0.055568989            95
       8    -172.37516735      -0.002883728       0.021811459           107
       9    -172.37461723      -0.000550124       0.007845258           118
      10    -172.37495614       0.000338911       0.002348213           129
      11    -172.37498493       0.000028794       0.000672723           141
      12    -172.37496539      -0.000019544       0.000240232           152
      13    -172.37496137      -0.000004019       0.000061261           164
      14    -172.37496335       0.000001982       0.000025320           175
      15    -172.37496381       0.000000457       0.000009447           186
      16    -172.37496347      -0.000000345       0.000003370           198
      17    -172.37496347       0.000000006       0.000001180           216
      18    -172.37496351       0.000000036       0.000000417           228

    CHF Iterations converged


    Iter     Energy [mEh]          dE [mEh]         Residual      Time [s]
       1    -189.27842160     189.278421598     132.922807221            19
       2    -187.86742552      -1.410996082      38.614889873            34
       3    -208.36262326      20.495197740      15.819897416            49
       4    -211.88335902       3.520735762       3.685859086            64
       5    -211.35509776      -0.528261256       1.638352967            79
       6    -211.16483874      -0.190259019       0.698409969            94
       7    -211.21082433       0.045985587       0.429797785           110
       8    -211.25897709       0.048152760       0.160870599           129
       9    -211.25247051      -0.006506575       0.093593484           147
      10    -211.24512778      -0.007342734       0.048371143           160
      11    -211.24575039       0.000622607       0.028025197           173
      12    -211.24750873       0.001758345       0.013765651           185
      13    -211.24752033       0.000011593       0.006866646           198
      14    -211.24713270      -0.000387621       0.004022937           211
      15    -211.24702002      -0.000112681       0.002112057           224
      16    -211.24716301       0.000142987       0.001178071           236
      17    -211.24718380       0.000020787       0.000693361           249
      18    -211.24715067      -0.000033125       0.000397749           262
      19    -211.24714091      -0.000009766       0.000180207           275
      20    -211.24714830       0.000007392       0.000082170           287
      21    -211.24715089       0.000002597       0.000035290           301
      22    -211.24714964      -0.000001252       0.000018948           314
      23    -211.24714901      -0.000000632       0.000009098           326
      24    -211.24714923       0.000000222       0.000004426           339
      25    -211.24714939       0.000000156       0.000001924           352
      26    -211.24714937      -0.000000015       0.000000777           365

    CHF Iterations converged

    Ind20,r (A<-B)      =    -0.172374963507 [Eh]
    Ind20,r (B<-A)      =    -0.211247149373 [Eh]
    Ind20,r             =    -0.383622112881 [Eh]
    Exch-Ind20,r (A<-B) =     0.142216831781 [Eh]
    Exch-Ind20,r (B<-A) =     0.154704822804 [Eh]
    Exch-Ind20,r        =     0.296921654585 [Eh]
    Disp20              =    -0.217876227299 [Eh]
    Disp20 (SS)         =    -0.108938113649 [Eh]
    Disp20 (OS)         =    -0.108938113649 [Eh]
    Exch-Disp20         =     0.044674181305 [Eh]
    Exch-Disp20 (SS)    =     0.026255239331 [Eh]
    Exch-Disp20 (OS)    =     0.018418941973 [Eh]

    SAPT Results 
  --------------------------------------------------------------------------------------------------------
    Electrostatics               -256.73298658 [mEh]    -161.10238131 [kcal/mol]    -674.05236339 [kJ/mol]
      Elst10,r                   -256.73298658 [mEh]    -161.10238131 [kcal/mol]    -674.05236339 [kJ/mol]

    Exchange                      692.25657594 [mEh]     434.39755969 [kcal/mol]    1817.51938973 [kJ/mol]
      Exch10                      692.25657594 [mEh]     434.39755969 [kcal/mol]    1817.51938973 [kJ/mol]
      Exch10(S^2)                 648.21534549 [mEh]     406.76127034 [kcal/mol]    1701.88915511 [kJ/mol]

    Induction                     -76.15615664 [mEh]     -47.78870978 [kcal/mol]    -199.94796171 [kJ/mol]
      Ind20,r                    -383.62211288 [mEh]    -240.72651018 [kcal/mol]   -1007.19971861 [kJ/mol]
      Exch-Ind20,r                296.92165459 [mEh]     186.32115122 [kcal/mol]     779.56769671 [kJ/mol]
      delta HF,r (2)               10.54430166 [mEh]       6.61664918 [kcal/mol]      27.68406018 [kJ/mol]

    Dispersion                   -173.20204599 [mEh]    -108.68592474 [kcal/mol]    -454.74190911 [kJ/mol]
      Disp20                     -217.87622730 [mEh]    -136.71939674 [kcal/mol]    -572.03395596 [kJ/mol]
      Exch-Disp20                  44.67418130 [mEh]      28.03347200 [kcal/mol]     117.29204686 [kJ/mol]
      Disp20 (SS)                -108.93811365 [mEh]     -68.35969837 [kcal/mol]    -286.01697798 [kJ/mol]
      Disp20 (OS)                -108.93811365 [mEh]     -68.35969837 [kcal/mol]    -286.01697798 [kJ/mol]
      Exch-Disp20 (SS)             26.25523933 [mEh]      16.47541142 [kcal/mol]      68.93312137 [kJ/mol]
      Exch-Disp20 (OS)             18.41894197 [mEh]      11.55806059 [kcal/mol]      48.35892549 [kJ/mol]

  Total HF                        359.36743272 [mEh]     225.50646860 [kcal/mol]     943.51906462 [kJ/mol]
  Total SAPT0                     186.16538673 [mEh]     116.82054386 [kcal/mol]     488.77715551 [kJ/mol]

  Special recipe for scaled SAPT0 (see Manual):
    Electrostatics sSAPT0        -256.73298658 [mEh]    -161.10238131 [kcal/mol]    -674.05236339 [kJ/mol]
    Exchange sSAPT0               692.25657594 [mEh]     434.39755969 [kcal/mol]    1817.51938973 [kJ/mol]
    Induction sSAPT0              -11.43051915 [mEh]      -7.17275906 [kcal/mol]     -30.01082389 [kJ/mol]
    Dispersion sSAPT0            -163.46356845 [mEh]    -102.57493782 [kcal/mol]    -429.17353985 [kJ/mol]
  Total sSAPT0                    260.62950176 [mEh]     163.54748150 [kcal/mol]     684.28266259 [kJ/mol]
  --------------------------------------------------------------------------------------------------------

*** tstop() called on n2cn0979 at Sat Feb 10 12:37:30 2024
Module time:
	user time   =   13069.07 seconds =     217.82 minutes
	system time =     603.08 seconds =      10.05 minutes
	total time  =       1674 seconds =      27.90 minutes
Total time:
	user time   =   25945.20 seconds =     432.42 minutes
	system time =    1051.27 seconds =      17.52 minutes
	total time  =       2669 seconds =      44.48 minutes

    Psi4 stopped on: Saturday, 10 February 2024 12:37PM
    Psi4 wall time for execution: 0:44:30.45

*** Psi4 exiting successfully. Buy a developer a beer!
