
    -----------------------------------------------------------------------
          Psi4: An Open-Source Ab Initio Electronic Structure Package
                               Psi4 1.9 release

                         Git: Rev {} zzzzzzz 


    D. G. A. Smith, L. A. Burns, A. C. Simmonett, R. M. Parrish,
    M. C. Schieber, R. Galvelis, P. Kraus, H. Kruse, R. Di Remigio,
    A. Alenaizan, A. M. James, S. Lehtola, J. P. Misiewicz, M. Scheurer,
    R. A. Shaw, J. B. Schriber, Y. Xie, Z. L. Glick, D. A. Sirianni,
    J. S. O'Brien, J. M. Waldrop, A. Kumar, E. G. Hohenstein,
    B. P. Pritchard, B. R. Brooks, H. F. Schaefer III, A. Yu. Sokolov,
    K. Patkowski, A. E. DePrince III, U. Bozkaya, R. A. King,
    F. A. Evangelista, J. M. Turney, T. D. Crawford, C. D. Sherrill,
    J. Chem. Phys. 152(18) 184108 (2020). https://doi.org/10.1063/5.0006002

                            Additional Code Authors
    E. T. Seidl, C. L. Janssen, E. F. Valeev, M. L. Leininger,
    J. F. Gonthier, R. M. Richard, H. R. McAlexander, M. Saitow, X. Wang,
    P. Verma, M. H. Lechner, A. Jiang, S. Behnle, A. G. Heide,
    M. F. Herbst, and D. L. Poole

             Previous Authors, Complete List of Code Contributors,
                       and Citations for Specific Modules
    https://github.com/psi4/psi4/blob/master/codemeta.json
    https://github.com/psi4/psi4/graphs/contributors
    http://psicode.org/psi4manual/master/introduction.html#citing-psifour

    -----------------------------------------------------------------------


    Psi4 started on: Saturday, 10 February 2024 01:44PM

    Process ID: 3594032
    Host:       n2cn0837
    PSIDATADIR: /opt/software/pc2/EB-SW/software/PSI4/1.9-foss-2022a/share/psi4
    Memory:     500.0 MiB
    Threads:    16
    
  ==> Input File <==

--------------------------------------------------------------------------
memory 80 GB # how much memory is available ! Depends on the nodes/cores !

molecule dimer {
# monomer A
+1 1    # Charge and multiplicity
C  0.680067 1.417258 -5.515929
C -0.680504 1.419286 -5.515545
N -1.085635 1.420284 -4.197221
C  0.000108 1.423560 -3.415820
C -2.477365 1.469690 -3.729242
N  1.085222 1.420284 -4.197221
H  1.385146 1.409430 -6.333368
H -1.385302 1.419096 -6.333214
H -0.000009 1.425307 -2.334731
C  2.478117 1.403392 -3.732123
H  2.490592 1.430737 -2.641870
H  2.967028 0.489946 -4.079299
H  3.001428 2.278875 -4.123595
H -2.857359 2.491761 -3.809201
H -3.082679 0.799606 -4.342306
H -2.518128 1.142706 -2.689294
--
# monomer B
0 1     # Charge and multiplicity
C   -3.66844126402057      7.80375217008252      0.00190004133558
C   -4.84759871934653      7.13124183134024     -0.00046653359696
C   -4.89495929917518      5.69633040353158     -0.00103944469517
C   -3.65374067877320      4.98073034095895      0.00662099703436
C   -2.40942512149445      7.11398103667468      0.00209438359570
C   -2.42547734410473      5.68112195090346     -0.00491050527438
C   -1.19474401643570      7.78614419430947      0.00356656413763
C   0.03795902893699      7.09942164575698      0.00139585983271
C   0.03033258741920      5.66948955970466     -0.00408752508301
C   -1.20098450790502      4.96927034791531      0.00488220885047
C   1.27795782581485      7.77285944319479      0.00277170839332
C   2.48535808472416      7.08769688523756      0.00049722048857
C   2.48612868491717      5.65477081024076     -0.00644052849921
C   1.25408291964399      4.95607811366431      0.00518741308898
C   3.75171459140595      7.76391215098033      0.00062407186893
C   4.92356605618520      7.07878077698995     -0.00143240883900
C   4.95560727132542      5.64344746336949     -0.00159282164606
C   3.70680153420475      4.94121020833308      0.00349873852374
H   -3.65852113775815      8.89082741913536      0.00358502958574
H   -1.18921332975660      8.87412108735996      0.00753844057883
H   1.28429423888630      8.86083343548850      0.00693053253426
H   3.75354208679975      8.85103527897216      0.00214659618464
H   5.86995870320703      7.61379483465560     -0.00235777588134
H   -5.78823170750226      7.67630221293400     -0.00202638095293
C   -6.09197395869619      4.99326001364347     -0.00291168518608
C   -6.12866148031747      3.58258016879823     -0.00171050815740
C   -3.66457974004527      3.56418217974434     -0.00463560277484
C   -4.89429820469869      2.86108077590057      0.00453338221034
C   -2.43733499489796      2.84761165708481      0.00719617576166
C   -1.20922785759670      3.54788693497833     -0.00648285103018
C   1.24714157216223      3.53468075142962     -0.00729145743546
C   0.01517603956900      2.83311183930540      0.00439272578912
C   2.46764517244071      2.82128997725533      0.00449278391269
C   3.70254947457969      3.52466015442405     -0.00899517692985
C   6.14498038638375      4.92757236613191     -0.00282626685777
C   6.16658835886151      3.51658447594213     -0.00065971342101
C   4.92460995845939      2.80840792535402      0.00587903281610
H   7.08990550964105      5.46688776622306     -0.00658814770723
H   -7.03104175110130      5.54268795285765     -0.00714490013730
C   -7.33969804112295      2.85841153457957     -0.00333767559888
C   -7.36488195805880      1.47032337158330     -0.00157213747140
C   -4.90350460894690      1.44442681216000     -0.00628840166334
C   -6.13225715261081      0.73993935705394      0.00600164231964
C   -3.67687480051673      0.72669714267312      0.00433931473643
C   -2.44565658606518      1.42964113326212     -0.00597039546461
C   -1.22360068130162      0.71532450163492      0.00545886906656
C   0.00763786931376      1.41738314923765      0.00392452278437
C   1.23121980774686      0.70211669058719     -0.01490206287210
C   2.46082110053113      1.40329203612573      0.00460244601878
C   3.68443025419614      0.68719842821222      0.00377365974158
C   4.91870890153864      1.39173456118907     -0.00862816189375
C   7.36980207796101      2.77948220318441     -0.00242013321349
C   7.38016266612146      1.39121750785509     -0.00087345036788
C   6.13979953912259      0.67411862320065      0.00545489144369
H   -8.27919079934664      3.40711804112415     -0.00763522772059
H   8.31511347147953      3.31811809662368     -0.00663070901292
C   -8.59175593758115      0.72483255304480     -0.00123170985383
C   -8.59902460370342     -0.63263980622873      0.00089141472904
C   -6.13981313911873     -0.67413663715361     -0.00609792660607
C   -7.38018411213749     -1.39126618958160      0.00131813493501
C   -4.91868448025621     -1.39175501803000      0.00624257154343
C   -3.68443829568458     -0.68723731573599     -0.00478966852105
C   -2.46081704024768     -1.40334517882457      0.00575341766833
C   -1.23116201232071     -0.70217386488055     -0.00636696112346
C   -0.00756962538737     -1.41741884941102      0.00108956317991
C   1.22364771588843     -0.71527537726392      0.01109518512883
C   2.44567064933149     -1.42964328900682     -0.00065482763106
C   3.67686670284649     -0.72670743155550     -0.00479541202602
C   6.13224884641929     -0.73997883984993     -0.00632338623858
C   4.90351914550401     -1.44445752054090      0.00751768830159
C   8.59901484869081      0.63260386666793     -0.00101133422380
C   8.59174548810050     -0.72485086719319      0.00072504603735
C   7.36486276438985     -1.47033266560598      0.00049486934466
H   -9.52830597181814      1.27684744919284     -0.00270163681798
H   9.54141097460619      1.17457248844457     -0.00206336648518
C   -7.36983790976868     -2.77954514593389      0.00312634335708
C   -4.92459910905015     -2.80843725734101     -0.00460528907921
C   -6.16662249566744     -3.51665219282533      0.00169655107992
C   -3.70251035970491     -3.52468154912026      0.00571878010666
C   -2.46764698511392     -2.82132596280400     -0.00632585824990
C   -0.01513347410770     -2.83314164539971     -0.00604426974092
C   -1.24712184122656     -3.53473217556300      0.00551968366725
C   1.20924506964357     -3.54791467864352      0.00805871345849
C   2.43733602215464     -2.84764173817541     -0.00608104485234
C   4.89430234377080     -2.86112296828604     -0.00526030478103
C   3.66461525504104     -3.56421984553201      0.00761911515957
C   6.12863901474565     -3.58258405771778      0.00096495711699
C   7.33967266469532     -2.85841330737039      0.00248018319869
H   -9.54144911125902     -1.17456346666430      0.00226083090216
H   9.52826186807155     -1.27691907390448      0.00197485379837
H   -8.31516504384864     -3.31814985321231      0.00729857188773
H   8.27915514249207     -3.40714078989363      0.00681973918158
C   -6.14499418870218     -4.92764727278338      0.00302254913999
C   -3.70678334799751     -4.94126171411716     -0.00679841894792
C   -4.95559005800169     -5.64349397349412      0.00116871569699
C   -2.48612132622665     -5.65478557440947      0.00614125209662
C   -1.25405833548005     -4.95612205000132     -0.00503435388927
C   1.20101257386816     -4.96928038819302     -0.00385322963129
C   -0.03033667441341     -5.66952030313900      0.00398997003238
C   3.65375010132847     -4.98074377541453     -0.00309522988330
C   2.42549269587528     -5.68117463552727      0.00628170066869
C   6.09196561781097     -4.99325796338655      0.00325918379042
C   4.89497644461045     -5.69634842095790      0.00202298796027
H   -7.08989238804069     -5.46699984223871      0.00742531082125
H   7.03105520920009     -5.54265853633254      0.00683896355417
C   -4.92354532219813     -7.07882109967734      0.00061394679214
C   -2.48534208823777     -7.08772807792913     -0.00189594564379
C   -3.75168589177895     -7.76394715763627     -0.00170126671874
C   -0.03794895698805     -7.09946487446944     -0.00168022049625
C   -1.27795610040136     -7.77290438466689     -0.00366491325785
C   2.40944432072629     -7.11402201200282     -0.00081701968533
C   1.19474993715296     -7.78618536556242     -0.00296931056689
C   4.84762105249800     -7.13126211057943      0.00168979497423
C   3.66847160587561     -7.80378799294376     -0.00065863938960
H   -5.86994035041618     -7.61383059804164      0.00215798365757
H   5.78824962538815     -7.67633218931421      0.00281691445618
H   -3.75352693944918     -8.85107156923607     -0.00353718114765
H   -1.28430440589466     -8.86087539249706     -0.00809229711623
H   1.18922157469537     -8.87416062058945     -0.00706194725726
H   3.65854661482387     -8.89086063405326     -0.00231318081200

    units angstrom      # Angstroms are the default
    no_reorient         # Geometry fixed, default
    symmetry c1         # C1 symmetry, default
}

set {
    scf_type DF         # Density fitting, faster than exact integrals
    freeze_core True    # Freeze core electrons
    basis jun-cc-pVDZ   # Jun-cc-pVDZ basis set, recommended for sSAPT0 in https://doi.org/10.1063/1.4867135
}

energy('ssapt0')        # Compute sSAPT0 energy, includes also SAPT0
--------------------------------------------------------------------------

  Memory set to  74.506 GiB by Python driver.

Scratch directory: /tmp/
   => Loading Basis Set <=

    Name: JUN-CC-PVDZ
    Role: ORBITAL
    Keyword: BASIS
    atoms 1-2, 4-5, 10, 17-34, 41-53, 56-70, 73-89, 92-104, 109-119, 122-130 entry C          line   164 file /opt/software/pc2/EB-SW/software/PSI4/1.9-foss-2022a/share/psi4/basis/jun-cc-pvdz.gbs 
    atoms 3, 6                                                               entry N          line   198 file /opt/software/pc2/EB-SW/software/PSI4/1.9-foss-2022a/share/psi4/basis/jun-cc-pvdz.gbs 
    atoms 7-9, 11-16, 35-40, 54-55, 71-72, 90-91, 105-108, 120-121, 131-136  entry H          line    36 file /opt/software/pc2/EB-SW/software/PSI4/1.9-foss-2022a/share/psi4/basis/jun-cc-pvdz.gbs 

   => Loading Basis Set <=

    Name: JUN-CC-PVDZ
    Role: ORBITAL
    Keyword: BASIS
    atoms 1-2, 4-5, 10, 17-34, 41-53, 56-70, 73-89, 92-104, 109-119, 122-130 entry C          line   164 file /opt/software/pc2/EB-SW/software/PSI4/1.9-foss-2022a/share/psi4/basis/jun-cc-pvdz.gbs 
    atoms 3, 6                                                               entry N          line   198 file /opt/software/pc2/EB-SW/software/PSI4/1.9-foss-2022a/share/psi4/basis/jun-cc-pvdz.gbs 
    atoms 7-9, 11-16, 35-40, 54-55, 71-72, 90-91, 105-108, 120-121, 131-136  entry H          line    36 file /opt/software/pc2/EB-SW/software/PSI4/1.9-foss-2022a/share/psi4/basis/jun-cc-pvdz.gbs 


  //>>>>>>>>>>>>>>>>>>>>>>>>>>>>>>>>>>>//
  //              Dimer HF             //
  //<<<<<<<<<<<<<<<<<<<<<<<<<<<<<<<<<<<//

   => Libint2 <=

    Primary   basis highest AM E, G, H:  5, 4, 3
    Auxiliary basis highest AM E, G, H:  6, 5, 4
    Onebody   basis highest AM E, G, H:  6, 5, 4
    Solid Harmonics ordering:            gaussian

*** tstart() called on n2cn0837
*** at Sat Feb 10 13:44:49 2024

   => Loading Basis Set <=

    Name: JUN-CC-PVDZ
    Role: ORBITAL
    Keyword: BASIS
    atoms 1-2, 4-5, 10, 17-34, 41-53, 56-70, 73-89, 92-104, 109-119, 122-130 entry C          line   164 file /opt/software/pc2/EB-SW/software/PSI4/1.9-foss-2022a/share/psi4/basis/jun-cc-pvdz.gbs 
    atoms 3, 6                                                               entry N          line   198 file /opt/software/pc2/EB-SW/software/PSI4/1.9-foss-2022a/share/psi4/basis/jun-cc-pvdz.gbs 
    atoms 7-9, 11-16, 35-40, 54-55, 71-72, 90-91, 105-108, 120-121, 131-136  entry H          line    36 file /opt/software/pc2/EB-SW/software/PSI4/1.9-foss-2022a/share/psi4/basis/jun-cc-pvdz.gbs 


         ---------------------------------------------------------
                                   SCF
               by Justin Turney, Rob Parrish, Andy Simmonett
                          and Daniel G. A. Smith
                              RHF Reference
                       16 Threads,  76293 MiB Core
         ---------------------------------------------------------

  ==> Geometry <==

    Molecular point group: c1
    Full point group: C1

    Geometry (in Angstrom), charge = 1, multiplicity = 1:

       Center              X                  Y                   Z               Mass       
    ------------   -----------------  -----------------  -----------------  -----------------
         C            0.680062820275     1.308604348936    -5.188092992773    12.000000000000
         C           -0.680508179725     1.310632348936    -5.187708992773    12.000000000000
         N           -1.085639179725     1.311630348936    -3.869384992773    14.003074004430
         C            0.000103820275     1.314906348936    -3.087983992773    12.000000000000
         C           -2.477369179725     1.361036348936    -3.401405992773    12.000000000000
         N            1.085217820275     1.311630348936    -3.869384992773    14.003074004430
         H            1.385141820275     1.300776348936    -6.005531992773     1.007825032230
         H           -1.385306179725     1.310442348936    -6.005377992773     1.007825032230
         H           -0.000013179725     1.316653348936    -2.006894992773     1.007825032230
         C            2.478112820275     1.294738348936    -3.404286992773    12.000000000000
         H            2.490587820275     1.322083348936    -2.314033992773     1.007825032230
         H            2.967023820275     0.381292348936    -3.751462992773     1.007825032230
         H            3.001423820275     2.170221348936    -3.795758992773     1.007825032230
         H           -2.857363179725     2.383107348936    -3.481364992773     1.007825032230
         H           -3.082683179725     0.690952348936    -4.014469992773     1.007825032230
         H           -2.518132179725     1.034052348936    -2.361457992773     1.007825032230
         C           -3.668445443746     7.695098519018     0.329736048563    12.000000000000
         C           -4.847602899072     7.022588180276     0.327369473630    12.000000000000
         C           -4.894963478901     5.587676752467     0.326796562532    12.000000000000
         C           -3.653744858499     4.872076689895     0.334457004262    12.000000000000
         C           -2.409429301220     7.005327385610     0.329930390823    12.000000000000
         C           -2.425481523830     5.572468299839     0.322925501953    12.000000000000
         C           -1.194748196161     7.677490543245     0.331402571365    12.000000000000
         C            0.037954849212     6.990767994693     0.329231867060    12.000000000000
         C            0.030328407694     5.560835908640     0.323748482144    12.000000000000
         C           -1.200988687630     4.860616696851     0.332718216078    12.000000000000
         C            1.277953646089     7.664205792130     0.330607715621    12.000000000000
         C            2.485353904999     6.979043234173     0.328333227716    12.000000000000
         C            2.486124505192     5.546117159176     0.321395478728    12.000000000000
         C            1.254078739919     4.847424462600     0.333023420316    12.000000000000
         C            3.751710411681     7.655258499916     0.328460079096    12.000000000000
         C            4.923561876460     6.970127125926     0.326403598388    12.000000000000
         C            4.955603091600     5.534793812305     0.326243185581    12.000000000000
         C            3.706797354479     4.832556557269     0.331334745751    12.000000000000
         H           -3.658525317484     8.782173768071     0.331421036813     1.007825032230
         H           -1.189217509482     8.765467436296     0.335374447806     1.007825032230
         H            1.284290059161     8.752179784424     0.334766539762     1.007825032230
         H            3.753537907074     8.742381627908     0.329982603412     1.007825032230
         H            5.869954523482     7.505141183591     0.325478231346     1.007825032230
         H           -5.788235887228     7.567648561870     0.325809626274     1.007825032230
         C           -6.091978138422     4.884606362579     0.324924322041    12.000000000000
         C           -6.128665660043     3.473926517734     0.326125499070    12.000000000000
         C           -3.664583919771     3.455528528680     0.323200404453    12.000000000000
         C           -4.894302384424     2.752427124836     0.332369389438    12.000000000000
         C           -2.437339174623     2.738958006020     0.335032182989    12.000000000000
         C           -1.209232037322     3.439233283914     0.321353156197    12.000000000000
         C            1.247137392437     3.426027100365     0.320544549792    12.000000000000
         C            0.015171859844     2.724458188241     0.332228733016    12.000000000000
         C            2.467640992715     2.712636326191     0.332328791140    12.000000000000
         C            3.702545294854     3.416006503360     0.318840830298    12.000000000000
         C            6.144976206658     4.818918715067     0.325009740370    12.000000000000
         C            6.166584179136     3.407930824878     0.327176293806    12.000000000000
         C            4.924605778734     2.699754274290     0.333715040043    12.000000000000
         H            7.089901329916     5.358234115159     0.321247859520     1.007825032230
         H           -7.031045930827     5.434034301793     0.320691107090     1.007825032230
         C           -7.339702220848     2.749757883515     0.324498331628    12.000000000000
         C           -7.364886137784     1.361669720519     0.326263869756    12.000000000000
         C           -4.903508788672     1.335773161096     0.321547605564    12.000000000000
         C           -6.132261332336     0.631285705989     0.333837649547    12.000000000000
         C           -3.676878980242     0.618043491609     0.332175321964    12.000000000000
         C           -2.445660765791     1.320987482198     0.321865611763    12.000000000000
         C           -1.223604861027     0.606670850570     0.333294876294    12.000000000000
         C            0.007633689588     1.308729498173     0.331760530012    12.000000000000
         C            1.231215628021     0.593463039523     0.312933944355    12.000000000000
         C            2.460816920806     1.294638385061     0.332438453246    12.000000000000
         C            3.684426074471     0.578544777148     0.331609666969    12.000000000000
         C            4.918704721813     1.283080910125     0.319207845334    12.000000000000
         C            7.369797898236     2.670828552120     0.325415874014    12.000000000000
         C            7.380158486396     1.282563856791     0.326962556859    12.000000000000
         C            6.139795359397     0.565464972136     0.333290898671    12.000000000000
         H           -8.279194979072     3.298464390060     0.320200779507     1.007825032230
         H            8.315109291754     3.209464445559     0.321205298214     1.007825032230
         C           -8.591760117307     0.616178901980     0.326604297374    12.000000000000
         C           -8.599028783429    -0.741293457293     0.328727421956    12.000000000000
         C           -6.139817318844    -0.782790288218     0.321738080621    12.000000000000
         C           -7.380188291863    -1.499919840646     0.329154142162    12.000000000000
         C           -4.918688659982    -1.500408669094     0.334078578771    12.000000000000
         C           -3.684442475410    -0.795890966800     0.323046338706    12.000000000000
         C           -2.460821219973    -1.511998829889     0.333589424896    12.000000000000
         C           -1.231166192046    -0.810827515945     0.321469046104    12.000000000000
         C           -0.007573805113    -1.526072500475     0.328925570407    12.000000000000
         C            1.223643536163    -0.823929028328     0.338931192356    12.000000000000
         C            2.445666469606    -1.538296940071     0.327181179596    12.000000000000
         C            3.676862523121    -0.835361082620     0.323040595201    12.000000000000
         C            6.132244666694    -0.848632490914     0.321512620989    12.000000000000
         C            4.903514965779    -1.553111171605     0.335353695529    12.000000000000
         C            8.599010668965     0.523950215603     0.326824673004    12.000000000000
         C            8.591741308375    -0.833504518258     0.328561053265    12.000000000000
         C            7.364858584664    -1.578986316670     0.328330876572    12.000000000000
         H           -9.528310151544     1.168193798128     0.325134370409     1.007825032230
         H            9.541406794881     1.065918837380     0.325772640742     1.007825032230
         C           -7.369842089494    -2.888198796998     0.330962350584    12.000000000000
         C           -4.924603288776    -2.917090908405     0.323230718148    12.000000000000
         C           -6.166626675393    -3.625305843890     0.329532558307    12.000000000000
         C           -3.702514539430    -3.633335200185     0.333554787334    12.000000000000
         C           -2.467651164839    -2.929979613868     0.321510148977    12.000000000000
         C           -0.015137653833    -2.941795296464     0.321791737486    12.000000000000
         C           -1.247126020952    -3.643385826627     0.333355690895    12.000000000000
         C            1.209240889918    -3.656568329708     0.335894720686    12.000000000000
         C            2.437331842429    -2.956295389240     0.321754962375    12.000000000000
         C            4.894298164045    -2.969776619350     0.322575702446    12.000000000000
         C            3.664611075316    -3.672873496596     0.335455122387    12.000000000000
         C            6.128634835020    -3.691237708782     0.328800964344    12.000000000000
         C            7.339668484970    -2.967066958435     0.330316190426    12.000000000000
         H           -9.541453290984    -1.283217117729     0.330096838130     1.007825032230
         H            9.528257688346    -1.385572724969     0.329810861026     1.007825032230
         H           -8.315169223574    -3.426803504277     0.335134579115     1.007825032230
         H            8.279150962767    -3.515794440958     0.334655746409     1.007825032230
         C           -6.144998368428    -5.036300923848     0.330858556367    12.000000000000
         C           -3.706787527723    -5.049915365182     0.321037588279    12.000000000000
         C           -4.955594237727    -5.752147624559     0.329004722924    12.000000000000
         C           -2.486125505952    -5.763439225474     0.333977259324    12.000000000000
         C           -1.254062515205    -5.064775701066     0.322801653338    12.000000000000
         C            1.201008394143    -5.077934039257     0.323982777596    12.000000000000
         C           -0.030340854139    -5.778173954203     0.331825977260    12.000000000000
         C            3.653745921603    -5.089397426479     0.324740777344    12.000000000000
         C            2.425488516150    -5.789828286592     0.334117707896    12.000000000000
         C            6.091961438086    -5.101911614451     0.331095191018    12.000000000000
         C            4.894972264885    -5.805002072022     0.329858995188    12.000000000000
         H           -7.089896567766    -5.575653493303     0.335261318049     1.007825032230
         H            7.031051029475    -5.651312187397     0.334674970782     1.007825032230
         C           -4.923549501924    -7.187474750742     0.328449954020    12.000000000000
         C           -2.485346267963    -7.196381728994     0.325940061584    12.000000000000
         C           -3.751690071504    -7.872600808701     0.326134740509    12.000000000000
         C           -0.037953136713    -7.208118525534     0.326155786731    12.000000000000
         C           -1.277960280127    -7.881558035731     0.324171093970    12.000000000000
         C            2.409440141001    -7.222675663067     0.327018987542    12.000000000000
         C            1.194745757428    -7.894839016627     0.324866696660    12.000000000000
         C            4.847616872773    -7.239915761644     0.329525802202    12.000000000000
         C            3.668467426150    -7.912441644008     0.327177367838    12.000000000000
         H           -5.869944530142    -7.722484249106     0.329993990885     1.007825032230
         H            5.788245445663    -7.784985840379     0.330652921684     1.007825032230
         H           -3.753531119175    -8.959725220301     0.324298826080     1.007825032230
         H           -1.284308585620    -8.969529043562     0.319743710111     1.007825032230
         H            1.189217394970    -8.982814271654     0.320774059970     1.007825032230
         H            3.658542435098    -8.999514285118     0.325522826415     1.007825032230

  Running in c1 symmetry.

  Rotational constants: A =      0.00065  B =      0.00065  C =      0.00035 [cm^-1]
  Rotational constants: A =     19.57720  B =     19.54616  C =     10.47647 [MHz]
  Nuclear repulsion = 18235.716392169229948

  Charge       = 1
  Multiplicity = 1
  Electrons    = 652
  Nalpha       = 326
  Nbeta        = 326

  ==> Algorithm <==

  SCF Algorithm Type is DF.
  DIIS enabled.
  MOM disabled.
  Fractional occupation disabled.
  Guess Type is SAD.
  Energy threshold   = 1.00e-08
  Density threshold  = 1.00e-08
  Integral threshold = 1.00e-12

  ==> Primary Basis <==

  Basis Set: JUN-CC-PVDZ
    Blend: JUN-CC-PVDZ
    Number of shells: 923
    Number of basis functions: 2019
    Number of Cartesian functions: 2122
    Spherical Harmonics?: true
    Max angular momentum: 2

   => Loading Basis Set <=

    Name: (JUN-CC-PVDZ AUX)
    Role: JKFIT
    Keyword: DF_BASIS_SCF
    atoms 1-2, 4-5, 10, 17-34, 41-53, 56-70, 73-89, 92-104, 109-119, 122-130 entry C          line   146 file /opt/software/pc2/EB-SW/software/PSI4/1.9-foss-2022a/share/psi4/basis/jun-cc-pvdz-jkfit.gbs 
    atoms 3, 6                                                               entry N          line   202 file /opt/software/pc2/EB-SW/software/PSI4/1.9-foss-2022a/share/psi4/basis/jun-cc-pvdz-jkfit.gbs 
    atoms 7-9, 11-16, 35-40, 54-55, 71-72, 90-91, 105-108, 120-121, 131-136  entry H          line    70 file /opt/software/pc2/EB-SW/software/PSI4/1.9-foss-2022a/share/psi4/basis/jun-cc-pvdz-jkfit.gbs 

  ==> Integral Setup <==

  ==> DiskDFJK: Density-Fitted J/K Matrices <==

    J tasked:                  Yes
    K tasked:                  Yes
    wK tasked:                  No
    OpenMP threads:             16
    Integrals threads:          16
    Memory [MiB]:            57220
    Algorithm:                Disk
    Integral Cache:           SAVE
    Schwarz Cutoff:          1E-12
    Fitting Condition:       1E-10

   => Auxiliary Basis Set <=

  Basis Set: (JUN-CC-PVDZ AUX)
    Blend: JUN-CC-PVDZ-JKFIT
    Number of shells: 3078
    Number of basis functions: 8896
    Number of Cartesian functions: 10198
    Spherical Harmonics?: true
    Max angular momentum: 3

  Minimum eigenvalue in the overlap matrix is 7.1976921071E-11.
  Reciprocal condition number of the overlap matrix is 2.9288520016E-12.
    Using canonical orthogonalization.
  Overall, 39 of 2019 possible MOs eliminated.


  ==> Pre-Iterations <==

  SCF Guess: Superposition of Atomic Densities via on-the-fly atomic UHF (no occupation information).

   -------------------------
    Irrep   Nso     Nmo    
   -------------------------
     A       2019    1980 
   -------------------------
    Total    2019    1980
   -------------------------

  ==> Iterations <==

                           Total Energy        Delta E     RMS |[F,P]|

   @DF-RHF iter SAD: -3967.46286393269384   -3.96746e+03   0.00000e+00 
   @DF-RHF iter   1: -3952.12078436009915    1.53421e+01   7.15640e-04 DIIS/ADIIS
   @DF-RHF iter   2: -3953.50237350888165   -1.38159e+00   2.39868e-04 DIIS/ADIIS
   @DF-RHF iter   3: -3953.62371561184227   -1.21342e-01   1.16065e-04 DIIS/ADIIS
   @DF-RHF iter   4: -3953.65172889394171   -2.80133e-02   5.06319e-05 DIIS
   @DF-RHF iter   5: -3953.65831660121330   -6.58771e-03   1.22054e-05 DIIS
   @DF-RHF iter   6: -3953.65886978727849   -5.53186e-04   4.73252e-06 DIIS
   @DF-RHF iter   7: -3953.65907009255397   -2.00305e-04   2.26998e-06 DIIS
   @DF-RHF iter   8: -3953.65913608936398   -6.59968e-05   1.12488e-06 DIIS
   @DF-RHF iter   9: -3953.65915467241894   -1.85831e-05   3.76072e-07 DIIS
   @DF-RHF iter  10: -3953.65915595871866   -1.28630e-06   1.54872e-07 DIIS
   @DF-RHF iter  11: -3953.65915612553363   -1.66815e-07   6.48043e-08 DIIS
   @DF-RHF iter  12: -3953.65915616022994   -3.46963e-08   3.45992e-08 DIIS
   @DF-RHF iter  13: -3953.65915616865550   -8.42556e-09   1.14376e-08 DIIS
   @DF-RHF iter  14: -3953.65915616984239   -1.18689e-09   4.88613e-09 DIIS
  Energy and wave function converged.


  ==> Post-Iterations <==

    Orbital Energies [Eh]
    ---------------------

    Doubly Occupied:                                                      

       1A    -15.791745     2A    -15.791340     3A    -11.482633  
       4A    -11.422036     5A    -11.420480     6A    -11.406674  
       7A    -11.406377     8A    -11.343306     9A    -11.342086  
      10A    -11.341924    11A    -11.341393    12A    -11.339929  
      13A    -11.339814    14A    -11.338965    15A    -11.338814  
      16A    -11.338395    17A    -11.338165    18A    -11.337988  
      19A    -11.337830    20A    -11.336041    21A    -11.335667  
      22A    -11.335536    23A    -11.335132    24A    -11.334992  
      25A    -11.334119    26A    -11.333976    27A    -11.333123  
      28A    -11.332972    29A    -11.332779    30A    -11.332742  
      31A    -11.332683    32A    -11.331324    33A    -11.331308  
      34A    -11.330861    35A    -11.330749    36A    -11.329878  
      37A    -11.329804    38A    -11.329791    39A    -11.329721  
      40A    -11.329661    41A    -11.329097    42A    -11.329075  
      43A    -11.328803    44A    -11.328788    45A    -11.328672  
      46A    -11.328601    47A    -11.328601    48A    -11.327849  
      49A    -11.327793    50A    -11.327394    51A    -11.327312  
      52A    -11.327063    53A    -11.327041    54A    -11.326757  
      55A    -11.326684    56A    -11.326512    57A    -11.326479  
      58A    -11.326064    59A    -11.326010    60A    -11.325482  
      61A    -11.325413    62A    -11.325390    63A    -11.325216  
      64A    -11.324870    65A    -11.324830    66A    -11.323921  
      67A    -11.323882    68A    -11.323567    69A    -11.323556  
      70A    -11.323541    71A    -11.323503    72A    -11.322916  
      73A    -11.322553    74A    -11.322531    75A    -11.321887  
      76A    -11.321777    77A    -11.321752    78A    -11.320851  
      79A    -11.320846    80A    -11.319829    81A    -11.319762  
      82A    -11.319693    83A    -11.319617    84A    -11.317967  
      85A    -11.317877    86A    -11.316994    87A    -11.316952  
      88A    -11.316848    89A    -11.316787    90A    -11.315365  
      91A    -11.315303    92A    -11.314686    93A    -11.314667  
      94A    -11.314649    95A    -11.314588    96A    -11.314224  
      97A    -11.314140    98A    -11.312989    99A    -11.312930  
     100A    -11.311410   101A    -11.311396   102A    -11.309889  
     103A    -11.309879   104A     -1.536151   105A     -1.391619  
     106A     -1.327940   107A     -1.309055   108A     -1.308146  
     109A     -1.287920   110A     -1.287913   111A     -1.285871  
     112A     -1.266774   113A     -1.262201   114A     -1.257991  
     115A     -1.257547   116A     -1.239077   117A     -1.239031  
     118A     -1.224369   119A     -1.224335   120A     -1.222218  
     121A     -1.209505   122A     -1.209465   123A     -1.198073  
     124A     -1.195571   125A     -1.183218   126A     -1.181644  
     127A     -1.181345   128A     -1.177813   129A     -1.175891  
     130A     -1.155266   131A     -1.155190   132A     -1.147122  
     133A     -1.141393   134A     -1.141377   135A     -1.135473  
     136A     -1.135320   137A     -1.133558   138A     -1.112829  
     139A     -1.112768   140A     -1.106744   141A     -1.103099  
     142A     -1.103086   143A     -1.094251   144A     -1.091863  
     145A     -1.091716   146A     -1.077289   147A     -1.073751  
     148A     -1.072361   149A     -1.069337   150A     -1.068072  
     151A     -1.067989   152A     -1.054883   153A     -1.037801  
     154A     -1.037737   155A     -1.020873   156A     -1.020766  
     157A     -0.981740   158A     -0.975726   159A     -0.975631  
     160A     -0.974917   161A     -0.969256   162A     -0.969210  
     163A     -0.961720   164A     -0.961614   165A     -0.958975  
     166A     -0.958423   167A     -0.956041   168A     -0.955025  
     169A     -0.936658   170A     -0.931526   171A     -0.917666  
     172A     -0.916244   173A     -0.915669   174A     -0.912928  
     175A     -0.909806   176A     -0.900276   177A     -0.900154  
     178A     -0.891831   179A     -0.891795   180A     -0.875770  
     181A     -0.853161   182A     -0.852958   183A     -0.850791  
     184A     -0.848789   185A     -0.848023   186A     -0.847177  
     187A     -0.846868   188A     -0.833571   189A     -0.829760  
     190A     -0.817794   191A     -0.808909   192A     -0.798031  
     193A     -0.793458   194A     -0.793063   195A     -0.791645  
     196A     -0.790779   197A     -0.790530   198A     -0.786384  
     199A     -0.781307   200A     -0.781141   201A     -0.777075  
     202A     -0.771486   203A     -0.764568   204A     -0.764533  
     205A     -0.754052   206A     -0.750901   207A     -0.750834  
     208A     -0.749592   209A     -0.747627   210A     -0.747618  
     211A     -0.745233   212A     -0.745124   213A     -0.743307  
     214A     -0.718503   215A     -0.717845   216A     -0.717717  
     217A     -0.716250   218A     -0.715935   219A     -0.713860  
     220A     -0.708560   221A     -0.708365   222A     -0.705267  
     223A     -0.703998   224A     -0.702526   225A     -0.702471  
     226A     -0.701166   227A     -0.694912   228A     -0.687796  
     229A     -0.680174   230A     -0.679367   231A     -0.679253  
     232A     -0.676346   233A     -0.674164   234A     -0.674118  
     235A     -0.667961   236A     -0.667165   237A     -0.666766  
     238A     -0.666442   239A     -0.665832   240A     -0.664752  
     241A     -0.660774   242A     -0.660365   243A     -0.660252  
     244A     -0.659799   245A     -0.656258   246A     -0.656232  
     247A     -0.655887   248A     -0.642991   249A     -0.642828  
     250A     -0.640543   251A     -0.640531   252A     -0.639422  
     253A     -0.638924   254A     -0.636145   255A     -0.635819  
     256A     -0.631679   257A     -0.631382   258A     -0.624871  
     259A     -0.624861   260A     -0.623425   261A     -0.621582  
     262A     -0.619814   263A     -0.615936   264A     -0.610521  
     265A     -0.609766   266A     -0.604769   267A     -0.604442  
     268A     -0.599069   269A     -0.598728   270A     -0.595643  
     271A     -0.592547   272A     -0.592510   273A     -0.583329  
     274A     -0.583210   275A     -0.580123   276A     -0.580067  
     277A     -0.573829   278A     -0.573603   279A     -0.563283  
     280A     -0.562775   281A     -0.562583   282A     -0.562058  
     283A     -0.561985   284A     -0.559707   285A     -0.555661  
     286A     -0.545585   287A     -0.541552   288A     -0.541502  
     289A     -0.538935   290A     -0.536448   291A     -0.532597  
     292A     -0.532340   293A     -0.525726   294A     -0.515210  
     295A     -0.514975   296A     -0.510704   297A     -0.510299  
     298A     -0.509431   299A     -0.498163   300A     -0.497936  
     301A     -0.484792   302A     -0.474187   303A     -0.474132  
     304A     -0.454653   305A     -0.454573   306A     -0.452880  
     307A     -0.449299   308A     -0.449232   309A     -0.420352  
     310A     -0.420268   311A     -0.417073   312A     -0.410041  
     313A     -0.408641   314A     -0.408369   315A     -0.396114  
     316A     -0.396018   317A     -0.375180   318A     -0.370934  
     319A     -0.370774   320A     -0.366054   321A     -0.351134  
     322A     -0.321782   323A     -0.321728   324A     -0.318504  
     325A     -0.270084   326A     -0.269775  

    Virtual:                                                              

     327A     -0.077722   328A     -0.077371   329A     -0.035249  
     330A     -0.033838   331A     -0.033675   332A     -0.027071  
     333A     -0.026477   334A     -0.022070   335A     -0.013524  
     336A     -0.006140   337A     -0.005459   338A     -0.004771  
     339A     -0.004485   340A     -0.002000   341A     -0.000967  
     342A      0.000595   343A      0.001376   344A      0.001533  
     345A      0.003535   346A      0.004390   347A      0.005992  
     348A      0.007738   349A      0.009152   350A      0.009726  
     351A      0.011494   352A      0.013402   353A      0.014186  
     354A      0.014439   355A      0.015330   356A      0.018210  
     357A      0.019414   358A      0.023777   359A      0.024806  
     360A      0.025335   361A      0.025407   362A      0.027439  
     363A      0.031343   364A      0.033621   365A      0.033927  
     366A      0.034863   367A      0.035569   368A      0.037792  
     369A      0.039436   370A      0.040199   371A      0.042724  
     372A      0.043199   373A      0.043553   374A      0.044804  
     375A      0.048433   376A      0.049434   377A      0.051554  
     378A      0.051788   379A      0.052083   380A      0.052502  
     381A      0.052825   382A      0.054459   383A      0.054620  
     384A      0.055357   385A      0.055982   386A      0.058511  
     387A      0.059027   388A      0.062559   389A      0.063054  
     390A      0.067566   391A      0.067653   392A      0.069388  
     393A      0.070333   394A      0.072421   395A      0.073500  
     396A      0.075276   397A      0.075856   398A      0.076318  
     399A      0.076738   400A      0.079311   401A      0.080025  
     402A      0.080668   403A      0.082230   404A      0.083985  
     405A      0.085922   406A      0.086108   407A      0.087925  
     408A      0.088622   409A      0.091008   410A      0.091085  
     411A      0.095301   412A      0.096505   413A      0.098785  
     414A      0.102046   415A      0.102511   416A      0.104536  
     417A      0.106030   418A      0.106103   419A      0.106881  
     420A      0.107553   421A      0.107836   422A      0.108585  
     423A      0.111649   424A      0.112361   425A      0.112533  
     426A      0.114915   427A      0.115087   428A      0.115398  
     429A      0.116426   430A      0.118376   431A      0.120920  
     432A      0.121801   433A      0.126219   434A      0.126740  
     435A      0.126928   436A      0.127565   437A      0.130185  
     438A      0.132859   439A      0.133885   440A      0.134897  
     441A      0.135191   442A      0.135389   443A      0.135612  
     444A      0.136089   445A      0.136881   446A      0.138648  
     447A      0.140792   448A      0.143680   449A      0.143978  
     450A      0.144885   451A      0.146210   452A      0.146370  
     453A      0.147897   454A      0.148345   455A      0.149191  
     456A      0.150395   457A      0.151354   458A      0.151976  
     459A      0.152714   460A      0.152901   461A      0.153623  
     462A      0.154681   463A      0.155416   464A      0.158388  
     465A      0.158465   466A      0.158855   467A      0.159834  
     468A      0.160740   469A      0.163281   470A      0.164155  
     471A      0.165200   472A      0.165724   473A      0.166094  
     474A      0.166283   475A      0.166766   476A      0.168781  
     477A      0.169871   478A      0.170145   479A      0.171726  
     480A      0.173775   481A      0.174209   482A      0.174506  
     483A      0.175741   484A      0.176818   485A      0.178832  
     486A      0.179223   487A      0.179738   488A      0.181754  
     489A      0.183150   490A      0.184156   491A      0.185185  
     492A      0.186898   493A      0.189275   494A      0.191230  
     495A      0.191579   496A      0.192054   497A      0.193020  
     498A      0.193974   499A      0.195218   500A      0.195869  
     501A      0.196018   502A      0.198342   503A      0.199691  
     504A      0.200609   505A      0.201665   506A      0.202527  
     507A      0.203117   508A      0.205956   509A      0.206051  
     510A      0.206606   511A      0.208351   512A      0.208422  
     513A      0.208447   514A      0.210443   515A      0.211868  
     516A      0.212394   517A      0.213496   518A      0.214171  
     519A      0.215607   520A      0.217929   521A      0.218723  
     522A      0.220175   523A      0.221006   524A      0.221349  
     525A      0.222861   526A      0.223552   527A      0.224507  
     528A      0.224981   529A      0.225680   530A      0.226767  
     531A      0.227794   532A      0.228318   533A      0.228566  
     534A      0.229737   535A      0.231582   536A      0.235329  
     537A      0.235628   538A      0.236352   539A      0.237050  
     540A      0.237713   541A      0.238117   542A      0.238802  
     543A      0.241745   544A      0.243530   545A      0.244261  
     546A      0.245132   547A      0.245750   548A      0.246474  
     549A      0.247182   550A      0.249558   551A      0.250123  
     552A      0.251157   553A      0.252124   554A      0.252634  
     555A      0.254078   556A      0.255062   557A      0.255202  
     558A      0.257931   559A      0.258391   560A      0.259624  
     561A      0.260323   562A      0.261067   563A      0.262056  
     564A      0.262136   565A      0.262600   566A      0.263514  
     567A      0.265325   568A      0.266024   569A      0.268115  
     570A      0.268630   571A      0.269622   572A      0.271092  
     573A      0.271732   574A      0.271878   575A      0.272112  
     576A      0.273685   577A      0.273948   578A      0.274352  
     579A      0.275081   580A      0.275357   581A      0.277489  
     582A      0.278314   583A      0.278880   584A      0.279687  
     585A      0.280869   586A      0.281540   587A      0.282703  
     588A      0.283556   589A      0.285972   590A      0.287035  
     591A      0.287455   592A      0.288545   593A      0.288647  
     594A      0.289073   595A      0.289720   596A      0.292077  
     597A      0.292482   598A      0.295613   599A      0.295848  
     600A      0.297047   601A      0.298220   602A      0.299973  
     603A      0.300482   604A      0.301024   605A      0.301363  
     606A      0.302220   607A      0.303324   608A      0.305005  
     609A      0.307098   610A      0.307224   611A      0.308145  
     612A      0.308366   613A      0.309851   614A      0.310658  
     615A      0.310870   616A      0.312995   617A      0.313941  
     618A      0.315509   619A      0.315884   620A      0.317596  
     621A      0.317919   622A      0.318635   623A      0.318852  
     624A      0.320414   625A      0.321772   626A      0.321879  
     627A      0.322847   628A      0.323478   629A      0.324202  
     630A      0.324696   631A      0.326321   632A      0.327882  
     633A      0.328912   634A      0.329357   635A      0.330510  
     636A      0.331898   637A      0.332237   638A      0.333570  
     639A      0.333788   640A      0.334593   641A      0.335709  
     642A      0.336831   643A      0.337097   644A      0.338494  
     645A      0.339140   646A      0.340819   647A      0.341336  
     648A      0.341902   649A      0.342190   650A      0.342677  
     651A      0.343647   652A      0.343902   653A      0.344100  
     654A      0.344426   655A      0.346401   656A      0.347483  
     657A      0.348879   658A      0.349715   659A      0.350057  
     660A      0.351441   661A      0.352021   662A      0.352309  
     663A      0.353551   664A      0.354569   665A      0.355533  
     666A      0.356364   667A      0.357061   668A      0.358285  
     669A      0.359108   670A      0.359944   671A      0.360127  
     672A      0.363232   673A      0.363836   674A      0.365118  
     675A      0.365668   676A      0.366239   677A      0.366995  
     678A      0.367985   679A      0.368739   680A      0.369387  
     681A      0.369860   682A      0.371477   683A      0.372273  
     684A      0.373482   685A      0.374413   686A      0.375385  
     687A      0.375607   688A      0.378590   689A      0.379459  
     690A      0.380203   691A      0.381587   692A      0.381886  
     693A      0.385083   694A      0.385871   695A      0.388627  
     696A      0.389648   697A      0.390106   698A      0.390380  
     699A      0.391150   700A      0.392807   701A      0.392937  
     702A      0.393866   703A      0.394114   704A      0.394943  
     705A      0.395169   706A      0.396616   707A      0.397017  
     708A      0.399239   709A      0.402057   710A      0.402902  
     711A      0.403132   712A      0.403840   713A      0.404227  
     714A      0.404363   715A      0.405023   716A      0.406686  
     717A      0.407666   718A      0.409146   719A      0.410027  
     720A      0.411038   721A      0.411976   722A      0.412932  
     723A      0.413631   724A      0.414144   725A      0.414833  
     726A      0.415962   727A      0.416848   728A      0.418871  
     729A      0.419786   730A      0.420945   731A      0.423444  
     732A      0.425074   733A      0.426480   734A      0.426907  
     735A      0.428255   736A      0.428898   737A      0.430489  
     738A      0.431312   739A      0.432838   740A      0.434543  
     741A      0.435453   742A      0.436412   743A      0.437592  
     744A      0.437930   745A      0.438953   746A      0.440877  
     747A      0.442971   748A      0.443514   749A      0.444270  
     750A      0.445553   751A      0.446658   752A      0.446921  
     753A      0.449810   754A      0.450647   755A      0.451417  
     756A      0.452263   757A      0.453895   758A      0.456038  
     759A      0.456278   760A      0.456979   761A      0.458085  
     762A      0.458496   763A      0.459763   764A      0.460693  
     765A      0.463303   766A      0.463922   767A      0.466769  
     768A      0.467245   769A      0.467808   770A      0.468230  
     771A      0.471068   772A      0.472973   773A      0.473985  
     774A      0.475520   775A      0.476707   776A      0.478347  
     777A      0.479382   778A      0.481328   779A      0.483029  
     780A      0.485214   781A      0.487852   782A      0.493816  
     783A      0.497408   784A      0.498479   785A      0.500038  
     786A      0.500119   787A      0.500997   788A      0.501553  
     789A      0.502772   790A      0.503480   791A      0.504371  
     792A      0.506228   793A      0.506783   794A      0.507670  
     795A      0.508933   796A      0.511034   797A      0.511803  
     798A      0.512757   799A      0.514031   800A      0.515524  
     801A      0.516678   802A      0.517988   803A      0.520043  
     804A      0.520848   805A      0.522403   806A      0.524741  
     807A      0.526326   808A      0.526776   809A      0.528450  
     810A      0.529602   811A      0.530706   812A      0.531372  
     813A      0.533004   814A      0.535430   815A      0.536178  
     816A      0.540234   817A      0.540768   818A      0.541626  
     819A      0.542275   820A      0.542782   821A      0.549020  
     822A      0.551397   823A      0.555673   824A      0.556175  
     825A      0.557622   826A      0.558318   827A      0.558632  
     828A      0.561719   829A      0.564779   830A      0.566738  
     831A      0.567753   832A      0.569254   833A      0.574446  
     834A      0.575158   835A      0.579648   836A      0.582426  
     837A      0.585727   838A      0.586915   839A      0.589090  
     840A      0.590971   841A      0.591699   842A      0.593284  
     843A      0.594948   844A      0.595816   845A      0.598279  
     846A      0.601999   847A      0.604277   848A      0.605735  
     849A      0.612514   850A      0.615247   851A      0.617218  
     852A      0.621400   853A      0.622590   854A      0.623745  
     855A      0.625052   856A      0.626316   857A      0.627390  
     858A      0.629957   859A      0.633502   860A      0.634496  
     861A      0.634994   862A      0.637407   863A      0.640525  
     864A      0.641842   865A      0.644301   866A      0.649922  
     867A      0.657741   868A      0.660076   869A      0.663809  
     870A      0.670449   871A      0.673423   872A      0.675983  
     873A      0.676695   874A      0.676754   875A      0.677215  
     876A      0.679022   877A      0.680189   878A      0.684714  
     879A      0.685897   880A      0.689072   881A      0.705076  
     882A      0.715247   883A      0.718292   884A      0.719187  
     885A      0.721632   886A      0.723822   887A      0.724529  
     888A      0.726052   889A      0.729138   890A      0.730975  
     891A      0.738118   892A      0.739443   893A      0.741524  
     894A      0.743253   895A      0.745890   896A      0.748247  
     897A      0.749817   898A      0.751647   899A      0.753319  
     900A      0.754913   901A      0.757034   902A      0.757774  
     903A      0.760181   904A      0.760487   905A      0.761007  
     906A      0.762429   907A      0.765061   908A      0.767487  
     909A      0.768443   910A      0.771203   911A      0.772580  
     912A      0.774660   913A      0.778194   914A      0.779650  
     915A      0.780893   916A      0.783170   917A      0.784738  
     918A      0.786360   919A      0.787193   920A      0.789549  
     921A      0.790308   922A      0.792878   923A      0.794606  
     924A      0.797511   925A      0.798445   926A      0.799403  
     927A      0.801103   928A      0.801560   929A      0.804230  
     930A      0.805539   931A      0.808086   932A      0.808986  
     933A      0.811831   934A      0.812696   935A      0.814451  
     936A      0.815176   937A      0.816999   938A      0.819402  
     939A      0.823330   940A      0.823802   941A      0.824274  
     942A      0.824831   943A      0.826390   944A      0.827721  
     945A      0.830276   946A      0.831282   947A      0.832960  
     948A      0.833772   949A      0.836275   950A      0.837979  
     951A      0.839560   952A      0.841956   953A      0.842239  
     954A      0.844844   955A      0.847905   956A      0.848230  
     957A      0.848767   958A      0.853456   959A      0.854464  
     960A      0.856541   961A      0.857062   962A      0.858329  
     963A      0.859103   964A      0.860400   965A      0.861138  
     966A      0.863924   967A      0.865262   968A      0.865655  
     969A      0.867003   970A      0.868020   971A      0.869241  
     972A      0.871740   973A      0.872790   974A      0.874421  
     975A      0.874731   976A      0.876760   977A      0.878201  
     978A      0.880030   979A      0.881829   980A      0.883109  
     981A      0.885711   982A      0.885897   983A      0.886608  
     984A      0.887397   985A      0.890216   986A      0.891325  
     987A      0.892263   988A      0.893137   989A      0.893552  
     990A      0.896140   991A      0.896335   992A      0.899980  
     993A      0.900269   994A      0.901873   995A      0.902801  
     996A      0.905213   997A      0.905919   998A      0.907534  
     999A      0.911461  1000A      0.914801  1001A      0.916429  
    1002A      0.920796  1003A      0.922486  1004A      0.925419  
    1005A      0.927279  1006A      0.928085  1007A      0.928805  
    1008A      0.929111  1009A      0.931153  1010A      0.934589  
    1011A      0.936146  1012A      0.937144  1013A      0.937867  
    1014A      0.939916  1015A      0.940552  1016A      0.941104  
    1017A      0.942646  1018A      0.946600  1019A      0.948417  
    1020A      0.948821  1021A      0.952511  1022A      0.953172  
    1023A      0.953576  1024A      0.956517  1025A      0.957558  
    1026A      0.959063  1027A      0.960617  1028A      0.961312  
    1029A      0.962546  1030A      0.967135  1031A      0.967818  
    1032A      0.968456  1033A      0.970819  1034A      0.973981  
    1035A      0.975037  1036A      0.975770  1037A      0.977443  
    1038A      0.978723  1039A      0.980589  1040A      0.981785  
    1041A      0.982135  1042A      0.983552  1043A      0.984953  
    1044A      0.985761  1045A      0.987422  1046A      0.987584  
    1047A      0.989660  1048A      0.990105  1049A      0.991003  
    1050A      0.992714  1051A      0.994845  1052A      0.996821  
    1053A      0.998295  1054A      0.998456  1055A      0.999786  
    1056A      1.000595  1057A      1.002354  1058A      1.002634  
    1059A      1.003432  1060A      1.005580  1061A      1.005847  
    1062A      1.006181  1063A      1.007907  1064A      1.008334  
    1065A      1.008448  1066A      1.008717  1067A      1.010885  
    1068A      1.011587  1069A      1.013148  1070A      1.013333  
    1071A      1.014320  1072A      1.015100  1073A      1.015590  
    1074A      1.016132  1075A      1.017740  1076A      1.018240  
    1077A      1.018332  1078A      1.019585  1079A      1.021769  
    1080A      1.021852  1081A      1.022581  1082A      1.023185  
    1083A      1.024184  1084A      1.024931  1085A      1.025961  
    1086A      1.027321  1087A      1.027563  1088A      1.027828  
    1089A      1.029038  1090A      1.030462  1091A      1.031710  
    1092A      1.032579  1093A      1.034386  1094A      1.036583  
    1095A      1.037147  1096A      1.039382  1097A      1.040889  
    1098A      1.041970  1099A      1.043424  1100A      1.045428  
    1101A      1.047638  1102A      1.048036  1103A      1.048213  
    1104A      1.051168  1105A      1.052326  1106A      1.053147  
    1107A      1.054869  1108A      1.055604  1109A      1.057874  
    1110A      1.059631  1111A      1.060182  1112A      1.064109  
    1113A      1.065690  1114A      1.066845  1115A      1.068676  
    1116A      1.070174  1117A      1.070360  1118A      1.073231  
    1119A      1.073693  1120A      1.075276  1121A      1.077655  
    1122A      1.078006  1123A      1.079853  1124A      1.081310  
    1125A      1.082324  1126A      1.084243  1127A      1.085786  
    1128A      1.087261  1129A      1.088122  1130A      1.090198  
    1131A      1.092306  1132A      1.093336  1133A      1.095419  
    1134A      1.095957  1135A      1.099889  1136A      1.101017  
    1137A      1.101413  1138A      1.103362  1139A      1.105416  
    1140A      1.105948  1141A      1.109951  1142A      1.111326  
    1143A      1.113137  1144A      1.115075  1145A      1.118171  
    1146A      1.118960  1147A      1.121637  1148A      1.122523  
    1149A      1.123741  1150A      1.125768  1151A      1.129591  
    1152A      1.131045  1153A      1.133104  1154A      1.133739  
    1155A      1.138334  1156A      1.138746  1157A      1.142901  
    1158A      1.143864  1159A      1.146179  1160A      1.149405  
    1161A      1.149812  1162A      1.150889  1163A      1.152499  
    1164A      1.155289  1165A      1.156663  1166A      1.159403  
    1167A      1.160669  1168A      1.161118  1169A      1.164025  
    1170A      1.164409  1171A      1.167696  1172A      1.168191  
    1173A      1.172948  1174A      1.176631  1175A      1.179672  
    1176A      1.181661  1177A      1.186121  1178A      1.187812  
    1179A      1.188689  1180A      1.194939  1181A      1.195803  
    1182A      1.197440  1183A      1.198111  1184A      1.198955  
    1185A      1.201417  1186A      1.204712  1187A      1.207972  
    1188A      1.208661  1189A      1.210523  1190A      1.214032  
    1191A      1.216501  1192A      1.219481  1193A      1.224384  
    1194A      1.224497  1195A      1.224746  1196A      1.226026  
    1197A      1.227968  1198A      1.230255  1199A      1.231436  
    1200A      1.231893  1201A      1.233017  1202A      1.234400  
    1203A      1.238135  1204A      1.240060  1205A      1.242038  
    1206A      1.244832  1207A      1.247529  1208A      1.248553  
    1209A      1.249825  1210A      1.250901  1211A      1.253980  
    1212A      1.255430  1213A      1.255706  1214A      1.256710  
    1215A      1.257994  1216A      1.260177  1217A      1.260708  
    1218A      1.264689  1219A      1.266997  1220A      1.269410  
    1221A      1.269973  1222A      1.270316  1223A      1.274408  
    1224A      1.275071  1225A      1.275254  1226A      1.275752  
    1227A      1.280959  1228A      1.285713  1229A      1.285969  
    1230A      1.289087  1231A      1.289494  1232A      1.292552  
    1233A      1.296263  1234A      1.297005  1235A      1.298685  
    1236A      1.300327  1237A      1.301937  1238A      1.302841  
    1239A      1.305155  1240A      1.306543  1241A      1.309107  
    1242A      1.310435  1243A      1.313007  1244A      1.314190  
    1245A      1.320153  1246A      1.324737  1247A      1.327482  
    1248A      1.329983  1249A      1.332586  1250A      1.333306  
    1251A      1.334694  1252A      1.338152  1253A      1.340778  
    1254A      1.344261  1255A      1.344544  1256A      1.345787  
    1257A      1.346512  1258A      1.352203  1259A      1.352515  
    1260A      1.353641  1261A      1.354859  1262A      1.357056  
    1263A      1.359639  1264A      1.361153  1265A      1.364173  
    1266A      1.366175  1267A      1.367228  1268A      1.368085  
    1269A      1.369720  1270A      1.370942  1271A      1.372368  
    1272A      1.372596  1273A      1.373922  1274A      1.376068  
    1275A      1.378461  1276A      1.379774  1277A      1.381220  
    1278A      1.383815  1279A      1.385594  1280A      1.388301  
    1281A      1.392160  1282A      1.393386  1283A      1.394189  
    1284A      1.395343  1285A      1.397521  1286A      1.400390  
    1287A      1.405395  1288A      1.406673  1289A      1.408251  
    1290A      1.408582  1291A      1.408923  1292A      1.411518  
    1293A      1.418680  1294A      1.423323  1295A      1.423557  
    1296A      1.425703  1297A      1.426327  1298A      1.428413  
    1299A      1.432841  1300A      1.436719  1301A      1.437942  
    1302A      1.442831  1303A      1.442922  1304A      1.448199  
    1305A      1.453680  1306A      1.455529  1307A      1.468403  
    1308A      1.475646  1309A      1.477413  1310A      1.478522  
    1311A      1.480909  1312A      1.484250  1313A      1.486959  
    1314A      1.487443  1315A      1.500320  1316A      1.512601  
    1317A      1.515192  1318A      1.521077  1319A      1.525713  
    1320A      1.527689  1321A      1.531841  1322A      1.532751  
    1323A      1.535124  1324A      1.536979  1325A      1.538435  
    1326A      1.542720  1327A      1.543330  1328A      1.544265  
    1329A      1.546613  1330A      1.547879  1331A      1.549912  
    1332A      1.550976  1333A      1.551663  1334A      1.553138  
    1335A      1.554444  1336A      1.556976  1337A      1.557396  
    1338A      1.558338  1339A      1.560326  1340A      1.562832  
    1341A      1.564054  1342A      1.564674  1343A      1.566559  
    1344A      1.567958  1345A      1.568655  1346A      1.570227  
    1347A      1.570883  1348A      1.573040  1349A      1.573368  
    1350A      1.574221  1351A      1.575938  1352A      1.577610  
    1353A      1.579539  1354A      1.579845  1355A      1.583264  
    1356A      1.584699  1357A      1.587370  1358A      1.589171  
    1359A      1.589923  1360A      1.593554  1361A      1.594025  
    1362A      1.595554  1363A      1.596489  1364A      1.599388  
    1365A      1.599475  1366A      1.600736  1367A      1.601582  
    1368A      1.602984  1369A      1.604537  1370A      1.605679  
    1371A      1.608275  1372A      1.611379  1373A      1.612139  
    1374A      1.614786  1375A      1.619994  1376A      1.622012  
    1377A      1.624271  1378A      1.625790  1379A      1.629607  
    1380A      1.630048  1381A      1.631218  1382A      1.633440  
    1383A      1.634316  1384A      1.635601  1385A      1.636101  
    1386A      1.642413  1387A      1.644298  1388A      1.646332  
    1389A      1.647728  1390A      1.649115  1391A      1.651050  
    1392A      1.651423  1393A      1.653745  1394A      1.655390  
    1395A      1.655901  1396A      1.660400  1397A      1.661426  
    1398A      1.664531  1399A      1.674066  1400A      1.674788  
    1401A      1.681127  1402A      1.681735  1403A      1.683617  
    1404A      1.684941  1405A      1.688290  1406A      1.691673  
    1407A      1.696590  1408A      1.698618  1409A      1.700854  
    1410A      1.702546  1411A      1.707472  1412A      1.717878  
    1413A      1.722613  1414A      1.726883  1415A      1.727703  
    1416A      1.729258  1417A      1.732865  1418A      1.733542  
    1419A      1.740380  1420A      1.746037  1421A      1.751979  
    1422A      1.756776  1423A      1.758576  1424A      1.760197  
    1425A      1.762385  1426A      1.763868  1427A      1.763901  
    1428A      1.767532  1429A      1.768643  1430A      1.770125  
    1431A      1.772259  1432A      1.773650  1433A      1.775194  
    1434A      1.777534  1435A      1.780107  1436A      1.782052  
    1437A      1.782567  1438A      1.787294  1439A      1.792332  
    1440A      1.793276  1441A      1.794658  1442A      1.796175  
    1443A      1.796477  1444A      1.797878  1445A      1.800264  
    1446A      1.804351  1447A      1.806609  1448A      1.808001  
    1449A      1.809861  1450A      1.811644  1451A      1.812658  
    1452A      1.813903  1453A      1.816966  1454A      1.817251  
    1455A      1.819296  1456A      1.819742  1457A      1.820694  
    1458A      1.822728  1459A      1.822994  1460A      1.823500  
    1461A      1.825924  1462A      1.826988  1463A      1.831044  
    1464A      1.841635  1465A      1.842141  1466A      1.843795  
    1467A      1.844253  1468A      1.847717  1469A      1.849569  
    1470A      1.850983  1471A      1.851585  1472A      1.854364  
    1473A      1.855437  1474A      1.855965  1475A      1.856382  
    1476A      1.857758  1477A      1.859323  1478A      1.860942  
    1479A      1.864320  1480A      1.865253  1481A      1.870118  
    1482A      1.870991  1483A      1.871975  1484A      1.873821  
    1485A      1.876370  1486A      1.877308  1487A      1.878186  
    1488A      1.879913  1489A      1.880479  1490A      1.883857  
    1491A      1.886102  1492A      1.889081  1493A      1.889938  
    1494A      1.892032  1495A      1.892494  1496A      1.893223  
    1497A      1.895168  1498A      1.896851  1499A      1.898017  
    1500A      1.901334  1501A      1.903863  1502A      1.906779  
    1503A      1.908756  1504A      1.909448  1505A      1.911238  
    1506A      1.912951  1507A      1.914938  1508A      1.916711  
    1509A      1.918269  1510A      1.922729  1511A      1.925311  
    1512A      1.926329  1513A      1.930011  1514A      1.931634  
    1515A      1.931939  1516A      1.933100  1517A      1.933571  
    1518A      1.936004  1519A      1.942835  1520A      1.944249  
    1521A      1.948031  1522A      1.948338  1523A      1.949013  
    1524A      1.950582  1525A      1.952374  1526A      1.953287  
    1527A      1.953917  1528A      1.954844  1529A      1.955556  
    1530A      1.956657  1531A      1.959052  1532A      1.961618  
    1533A      1.964623  1534A      1.965559  1535A      1.966660  
    1536A      1.968791  1537A      1.971475  1538A      1.972886  
    1539A      1.976511  1540A      1.978157  1541A      1.978356  
    1542A      1.978905  1543A      1.984287  1544A      1.987673  
    1545A      1.989110  1546A      1.991470  1547A      1.992040  
    1548A      1.994402  1549A      1.994997  1550A      1.996100  
    1551A      1.999861  1552A      2.001580  1553A      2.003537  
    1554A      2.006015  1555A      2.006447  1556A      2.007832  
    1557A      2.009186  1558A      2.011358  1559A      2.014539  
    1560A      2.015829  1561A      2.016866  1562A      2.017199  
    1563A      2.018222  1564A      2.019568  1565A      2.020664  
    1566A      2.021310  1567A      2.022719  1568A      2.024040  
    1569A      2.025029  1570A      2.025885  1571A      2.026882  
    1572A      2.028132  1573A      2.028592  1574A      2.029404  
    1575A      2.030389  1576A      2.032633  1577A      2.034630  
    1578A      2.036534  1579A      2.037044  1580A      2.039152  
    1581A      2.039830  1582A      2.041279  1583A      2.042510  
    1584A      2.047631  1585A      2.048305  1586A      2.049342  
    1587A      2.051022  1588A      2.051871  1589A      2.052506  
    1590A      2.054075  1591A      2.054853  1592A      2.055636  
    1593A      2.056585  1594A      2.062142  1595A      2.062629  
    1596A      2.063612  1597A      2.064589  1598A      2.064664  
    1599A      2.065600  1600A      2.066961  1601A      2.067339  
    1602A      2.068209  1603A      2.069794  1604A      2.074020  
    1605A      2.075771  1606A      2.078359  1607A      2.079913  
    1608A      2.081330  1609A      2.081757  1610A      2.081856  
    1611A      2.083759  1612A      2.090327  1613A      2.094292  
    1614A      2.094564  1615A      2.095204  1616A      2.095996  
    1617A      2.097028  1618A      2.097955  1619A      2.100448  
    1620A      2.102169  1621A      2.102604  1622A      2.104932  
    1623A      2.109978  1624A      2.111025  1625A      2.112383  
    1626A      2.116052  1627A      2.117115  1628A      2.118809  
    1629A      2.120029  1630A      2.123851  1631A      2.124867  
    1632A      2.125261  1633A      2.126142  1634A      2.127574  
    1635A      2.130692  1636A      2.132352  1637A      2.133006  
    1638A      2.136573  1639A      2.139300  1640A      2.140411  
    1641A      2.142707  1642A      2.143916  1643A      2.145020  
    1644A      2.148347  1645A      2.150161  1646A      2.151286  
    1647A      2.153520  1648A      2.153798  1649A      2.154791  
    1650A      2.158963  1651A      2.159544  1652A      2.162071  
    1653A      2.163229  1654A      2.165755  1655A      2.167179  
    1656A      2.169032  1657A      2.169824  1658A      2.170281  
    1659A      2.172659  1660A      2.173098  1661A      2.174132  
    1662A      2.178082  1663A      2.180206  1664A      2.185040  
    1665A      2.187955  1666A      2.190365  1667A      2.194238  
    1668A      2.201630  1669A      2.203319  1670A      2.204104  
    1671A      2.207099  1672A      2.208891  1673A      2.211987  
    1674A      2.215896  1675A      2.218038  1676A      2.220306  
    1677A      2.222295  1678A      2.226306  1679A      2.227702  
    1680A      2.229627  1681A      2.231170  1682A      2.233369  
    1683A      2.236855  1684A      2.241743  1685A      2.242657  
    1686A      2.252521  1687A      2.254325  1688A      2.257660  
    1689A      2.260209  1690A      2.262765  1691A      2.263375  
    1692A      2.265012  1693A      2.265302  1694A      2.266858  
    1695A      2.267862  1696A      2.268381  1697A      2.269966  
    1698A      2.273291  1699A      2.275284  1700A      2.276304  
    1701A      2.276940  1702A      2.277086  1703A      2.278186  
    1704A      2.279305  1705A      2.281837  1706A      2.282006  
    1707A      2.283282  1708A      2.289341  1709A      2.296375  
    1710A      2.304063  1711A      2.306989  1712A      2.312908  
    1713A      2.314160  1714A      2.321352  1715A      2.323350  
    1716A      2.332574  1717A      2.333513  1718A      2.333845  
    1719A      2.346591  1720A      2.353574  1721A      2.355371  
    1722A      2.357087  1723A      2.362750  1724A      2.363864  
    1725A      2.367340  1726A      2.376430  1727A      2.379967  
    1728A      2.385443  1729A      2.387139  1730A      2.390649  
    1731A      2.400627  1732A      2.401211  1733A      2.403432  
    1734A      2.405008  1735A      2.407310  1736A      2.407797  
    1737A      2.423031  1738A      2.427927  1739A      2.428579  
    1740A      2.429696  1741A      2.438802  1742A      2.444822  
    1743A      2.445566  1744A      2.445929  1745A      2.452614  
    1746A      2.455384  1747A      2.473254  1748A      2.473522  
    1749A      2.474971  1750A      2.478129  1751A      2.479957  
    1752A      2.481537  1753A      2.484967  1754A      2.485785  
    1755A      2.486349  1756A      2.487003  1757A      2.487913  
    1758A      2.488562  1759A      2.498705  1760A      2.506793  
    1761A      2.509561  1762A      2.518654  1763A      2.521102  
    1764A      2.521716  1765A      2.522502  1766A      2.524021  
    1767A      2.525582  1768A      2.528294  1769A      2.528423  
    1770A      2.532913  1771A      2.534702  1772A      2.538236  
    1773A      2.539693  1774A      2.549018  1775A      2.549390  
    1776A      2.550808  1777A      2.551235  1778A      2.555970  
    1779A      2.558597  1780A      2.564614  1781A      2.566611  
    1782A      2.571294  1783A      2.578915  1784A      2.579588  
    1785A      2.580264  1786A      2.582710  1787A      2.585098  
    1788A      2.587700  1789A      2.591940  1790A      2.592704  
    1791A      2.594874  1792A      2.596247  1793A      2.597053  
    1794A      2.603228  1795A      2.605877  1796A      2.606718  
    1797A      2.608640  1798A      2.609997  1799A      2.616518  
    1800A      2.618535  1801A      2.623301  1802A      2.623800  
    1803A      2.625655  1804A      2.626085  1805A      2.628516  
    1806A      2.629545  1807A      2.631149  1808A      2.632057  
    1809A      2.633939  1810A      2.643502  1811A      2.651429  
    1812A      2.659042  1813A      2.662851  1814A      2.666265  
    1815A      2.666942  1816A      2.669681  1817A      2.670957  
    1818A      2.683745  1819A      2.689245  1820A      2.695272  
    1821A      2.699365  1822A      2.706067  1823A      2.708757  
    1824A      2.714348  1825A      2.715111  1826A      2.731535  
    1827A      2.732085  1828A      2.734071  1829A      2.734586  
    1830A      2.735218  1831A      2.737083  1832A      2.744095  
    1833A      2.746351  1834A      2.748582  1835A      2.749900  
    1836A      2.751280  1837A      2.753718  1838A      2.757832  
    1839A      2.761559  1840A      2.767699  1841A      2.773823  
    1842A      2.775308  1843A      2.775908  1844A      2.777865  
    1845A      2.780468  1846A      2.783779  1847A      2.795737  
    1848A      2.797548  1849A      2.799513  1850A      2.802790  
    1851A      2.805407  1852A      2.806979  1853A      2.810452  
    1854A      2.813259  1855A      2.823877  1856A      2.825361  
    1857A      2.826080  1858A      2.853228  1859A      2.856063  
    1860A      2.856568  1861A      2.860100  1862A      2.865712  
    1863A      2.867660  1864A      2.873137  1865A      2.874810  
    1866A      2.888007  1867A      2.900193  1868A      2.904809  
    1869A      2.906675  1870A      2.913517  1871A      2.922121  
    1872A      2.931573  1873A      2.948543  1874A      2.963739  
    1875A      2.964793  1876A      2.973310  1877A      2.980576  
    1878A      2.984510  1879A      2.984958  1880A      2.987760  
    1881A      2.990334  1882A      2.992714  1883A      2.994140  
    1884A      3.005508  1885A      3.007971  1886A      3.047810  
    1887A      3.050370  1888A      3.052874  1889A      3.058616  
    1890A      3.062628  1891A      3.066627  1892A      3.067227  
    1893A      3.072643  1894A      3.074552  1895A      3.081324  
    1896A      3.083114  1897A      3.089212  1898A      3.090671  
    1899A      3.092181  1900A      3.092604  1901A      3.094193  
    1902A      3.099546  1903A      3.100285  1904A      3.111484  
    1905A      3.114201  1906A      3.114929  1907A      3.117726  
    1908A      3.132850  1909A      3.133148  1910A      3.139152  
    1911A      3.159267  1912A      3.191804  1913A      3.197048  
    1914A      3.198218  1915A      3.199263  1916A      3.200205  
    1917A      3.201622  1918A      3.207389  1919A      3.208567  
    1920A      3.213035  1921A      3.213509  1922A      3.235326  
    1923A      3.236220  1924A      3.242277  1925A      3.247983  
    1926A      3.295716  1927A      3.296561  1928A      3.307210  
    1929A      3.349948  1930A      3.366386  1931A      3.375051  
    1932A      3.384970  1933A      3.391582  1934A      3.397136  
    1935A      3.400275  1936A      3.404217  1937A      3.407686  
    1938A      3.415521  1939A      3.425820  1940A      3.433761  
    1941A      3.437716  1942A      3.443813  1943A      3.461342  
    1944A      3.491348  1945A      3.502242  1946A      3.515147  
    1947A      3.524947  1948A      3.526408  1949A      3.548043  
    1950A      3.599103  1951A      3.601161  1952A      3.610218  
    1953A      3.622735  1954A      3.630906  1955A      3.645820  
    1956A      3.691911  1957A      3.692469  1958A      3.700231  
    1959A      3.709770  1960A      3.714671  1961A      3.757989  
    1962A      3.779905  1963A      3.785374  1964A      3.812175  
    1965A      3.814821  1966A      3.854580  1967A      3.867578  
    1968A      3.882594  1969A      3.883695  1970A      3.884598  
    1971A      3.904910  1972A      3.912500  1973A      3.926260  
    1974A      3.950890  1975A      3.955828  1976A      3.957597  
    1977A      4.033265  1978A      4.192224  1979A      4.261410  
    1980A      4.364235  

    Final Occupation by Irrep:
              A 
    DOCC [   326 ]
    NA   [   326 ]
    NB   [   326 ]

  @DF-RHF Final Energy: -3953.65915616984239

   => Energetics <=

    Nuclear Repulsion Energy =          18235.7163921692299482
    One-Electron Energy =              -41676.2164254659292055
    Two-Electron Energy =               19486.8408771268586861
    Total Energy =                      -3953.6591561698405712

Computation Completed


Properties will be evaluated at   0.000000,   0.000000,   0.000000 [a0]

Properties computed using the SCF density matrix


 Multipole Moments:

 ------------------------------------------------------------------------------------
     Multipole            Electronic (a.u.)      Nuclear  (a.u.)        Total (a.u.)
 ------------------------------------------------------------------------------------

 L = 1.  Multiply by 2.5417464519 to convert [e a0] to [Debye]
 Dipole X            :         -0.0056754            0.0004804           -0.0051950
 Dipole Y            :         -7.3140465            8.7122315            1.3981850
 Dipole Z            :         19.0049508          -24.2285913           -5.2236405
 Magnitude           :                                                    5.4075289

 ------------------------------------------------------------------------------------

*** tstop() called on n2cn0837 at Sat Feb 10 14:40:49 2024
Module time:
	user time   =   28429.62 seconds =     473.83 minutes
	system time =    1713.18 seconds =      28.55 minutes
	total time  =       3360 seconds =      56.00 minutes
Total time:
	user time   =   28429.62 seconds =     473.83 minutes
	system time =    1713.18 seconds =      28.55 minutes
	total time  =       3360 seconds =      56.00 minutes

  //>>>>>>>>>>>>>>>>>>>>>>>>>>>>>>>>>>>//
  //            Monomer A HF           //
  //<<<<<<<<<<<<<<<<<<<<<<<<<<<<<<<<<<<//

   => Libint2 <=

    Primary   basis highest AM E, G, H:  5, 4, 3
    Auxiliary basis highest AM E, G, H:  6, 5, 4
    Onebody   basis highest AM E, G, H:  6, 5, 4
    Solid Harmonics ordering:            gaussian

*** tstart() called on n2cn0837
*** at Sat Feb 10 14:40:49 2024

   => Loading Basis Set <=

    Name: JUN-CC-PVDZ
    Role: ORBITAL
    Keyword: BASIS
    atoms 1-2, 4-5, 10, 17-34, 41-53, 56-70, 73-89, 92-104, 109-119, 122-130 entry C          line   164 file /opt/software/pc2/EB-SW/software/PSI4/1.9-foss-2022a/share/psi4/basis/jun-cc-pvdz.gbs 
    atoms 3, 6                                                               entry N          line   198 file /opt/software/pc2/EB-SW/software/PSI4/1.9-foss-2022a/share/psi4/basis/jun-cc-pvdz.gbs 
    atoms 7-9, 11-16, 35-40, 54-55, 71-72, 90-91, 105-108, 120-121, 131-136  entry H          line    36 file /opt/software/pc2/EB-SW/software/PSI4/1.9-foss-2022a/share/psi4/basis/jun-cc-pvdz.gbs 


         ---------------------------------------------------------
                                   SCF
               by Justin Turney, Rob Parrish, Andy Simmonett
                          and Daniel G. A. Smith
                              RHF Reference
                       16 Threads,  76293 MiB Core
         ---------------------------------------------------------

  ==> Geometry <==

    Molecular point group: c1
    Full point group: C1

    Geometry (in Angstrom), charge = 1, multiplicity = 1:

       Center              X                  Y                   Z               Mass       
    ------------   -----------------  -----------------  -----------------  -----------------
         C            0.680062820275     1.308604348936    -5.188092992773    12.000000000000
         C           -0.680508179725     1.310632348936    -5.187708992773    12.000000000000
         N           -1.085639179725     1.311630348936    -3.869384992773    14.003074004430
[...]
    1594A      2.212202  1595A      2.213632  1596A      2.215694  
    1597A      2.218603  1598A      2.220045  1599A      2.221883  
    1600A      2.222992  1601A      2.224220  1602A      2.226917  
    1603A      2.228428  1604A      2.229749  1605A      2.231384  
    1606A      2.231996  1607A      2.233528  1608A      2.234125  
    1609A      2.237622  1610A      2.239409  1611A      2.240056  
    1612A      2.241335  1613A      2.243338  1614A      2.246781  
    1615A      2.247894  1616A      2.251278  1617A      2.254167  
    1618A      2.255715  1619A      2.261295  1620A      2.263069  
    1621A      2.263962  1622A      2.265616  1623A      2.268470  
    1624A      2.270204  1625A      2.273437  1626A      2.277624  
    1627A      2.280289  1628A      2.281725  1629A      2.286135  
    1630A      2.288772  1631A      2.294206  1632A      2.295339  
    1633A      2.296885  1634A      2.297908  1635A      2.298701  
    1636A      2.304669  1637A      2.305751  1638A      2.311573  
    1639A      2.318613  1640A      2.322638  1641A      2.324826  
    1642A      2.325779  1643A      2.328747  1644A      2.329991  
    1645A      2.330631  1646A      2.331121  1647A      2.333693  
    1648A      2.334772  1649A      2.336584  1650A      2.339870  
    1651A      2.340240  1652A      2.342233  1653A      2.342437  
    1654A      2.344535  1655A      2.345524  1656A      2.346326  
    1657A      2.346377  1658A      2.348617  1659A      2.350428  
    1660A      2.351059  1661A      2.362362  1662A      2.370927  
    1663A      2.373859  1664A      2.378438  1665A      2.382455  
    1666A      2.385981  1667A      2.388582  1668A      2.396232  
    1669A      2.396759  1670A      2.400582  1671A      2.401760  
    1672A      2.409170  1673A      2.416595  1674A      2.418835  
    1675A      2.422754  1676A      2.423809  1677A      2.427830  
    1678A      2.430699  1679A      2.434789  1680A      2.438122  
    1681A      2.444597  1682A      2.447065  1683A      2.453372  
    1684A      2.455742  1685A      2.463888  1686A      2.465971  
    1687A      2.467288  1688A      2.469031  1689A      2.471908  
    1690A      2.472315  1691A      2.474667  1692A      2.481369  
    1693A      2.489212  1694A      2.492139  1695A      2.495023  
    1696A      2.503276  1697A      2.507058  1698A      2.509040  
    1699A      2.512134  1700A      2.512652  1701A      2.515104  
    1702A      2.517423  1703A      2.537728  1704A      2.540494  
    1705A      2.540790  1706A      2.542035  1707A      2.544672  
    1708A      2.545743  1709A      2.546170  1710A      2.548193  
    1711A      2.550879  1712A      2.553255  1713A      2.553829  
    1714A      2.557017  1715A      2.557238  1716A      2.564759  
    1717A      2.568101  1718A      2.572113  1719A      2.572592  
    1720A      2.577133  1721A      2.581036  1722A      2.585519  
    1723A      2.585930  1724A      2.586350  1725A      2.588839  
    1726A      2.590483  1727A      2.591642  1728A      2.593439  
    1729A      2.594571  1730A      2.602606  1731A      2.603521  
    1732A      2.607949  1733A      2.612385  1734A      2.614945  
    1735A      2.615418  1736A      2.615946  1737A      2.619168  
    1738A      2.620244  1739A      2.634534  1740A      2.635739  
    1741A      2.643424  1742A      2.643962  1743A      2.645627  
    1744A      2.647203  1745A      2.647783  1746A      2.649931  
    1747A      2.653426  1748A      2.656430  1749A      2.657951  
    1750A      2.659571  1751A      2.661445  1752A      2.666735  
    1753A      2.669000  1754A      2.671230  1755A      2.672645  
    1756A      2.675291  1757A      2.678411  1758A      2.679816  
    1759A      2.681901  1760A      2.683268  1761A      2.686471  
    1762A      2.690634  1763A      2.691712  1764A      2.692278  
    1765A      2.693743  1766A      2.694527  1767A      2.696112  
    1768A      2.698031  1769A      2.704002  1770A      2.708645  
    1771A      2.719571  1772A      2.721772  1773A      2.725409  
    1774A      2.731166  1775A      2.731553  1776A      2.732646  
    1777A      2.734535  1778A      2.742334  1779A      2.745045  
    1780A      2.755640  1781A      2.760445  1782A      2.764353  
    1783A      2.768576  1784A      2.779759  1785A      2.781178  
    1786A      2.783073  1787A      2.791277  1788A      2.798230  
    1789A      2.799806  1790A      2.800549  1791A      2.801956  
    1792A      2.802720  1793A      2.803990  1794A      2.809398  
    1795A      2.815155  1796A      2.816227  1797A      2.818812  
    1798A      2.820070  1799A      2.822649  1800A      2.824150  
    1801A      2.830872  1802A      2.834218  1803A      2.841757  
    1804A      2.843616  1805A      2.846847  1806A      2.847785  
    1807A      2.848837  1808A      2.854950  1809A      2.866742  
    1810A      2.867014  1811A      2.871787  1812A      2.873711  
    1813A      2.876683  1814A      2.878353  1815A      2.896264  
    1816A      2.897195  1817A      2.917334  1818A      2.918378  
    1819A      2.921027  1820A      2.927953  1821A      2.930455  
    1822A      2.935074  1823A      2.936676  1824A      2.938765  
    1825A      2.946902  1826A      2.952539  1827A      2.965553  
    1828A      2.966337  1829A      2.969686  1830A      2.977326  
    1831A      2.979270  1832A      2.990855  1833A      2.997531  
    1834A      3.004194  1835A      3.010657  1836A      3.026230  
    1837A      3.032357  1838A      3.035891  1839A      3.045796  
    1840A      3.047680  1841A      3.048380  1842A      3.050341  
    1843A      3.057908  1844A      3.059977  1845A      3.061365  
    1846A      3.067202  1847A      3.073157  1848A      3.087012  
    1849A      3.107314  1850A      3.110504  1851A      3.114668  
    1852A      3.117596  1853A      3.123426  1854A      3.130179  
    1855A      3.133060  1856A      3.133147  1857A      3.133591  
    1858A      3.140453  1859A      3.145139  1860A      3.146908  
    1861A      3.149806  1862A      3.154075  1863A      3.155384  
    1864A      3.160025  1865A      3.162662  1866A      3.164349  
    1867A      3.168966  1868A      3.170600  1869A      3.175623  
    1870A      3.177877  1871A      3.182202  1872A      3.194856  
    1873A      3.197838  1874A      3.202683  1875A      3.221822  
    1876A      3.256305  1877A      3.262376  1878A      3.262834  
    1879A      3.264285  1880A      3.265657  1881A      3.267888  
    1882A      3.272798  1883A      3.273102  1884A      3.277460  
    1885A      3.277716  1886A      3.301131  1887A      3.302189  
    1888A      3.306075  1889A      3.310356  1890A      3.314201  
    1891A      3.354754  1892A      3.363887  1893A      3.365919  
    1894A      3.377169  1895A      3.402941  1896A      3.419896  
    1897A      3.434301  1898A      3.443536  1899A      3.457176  
    1900A      3.462862  1901A      3.467931  1902A      3.469804  
    1903A      3.475174  1904A      3.477595  1905A      3.488917  
    1906A      3.492165  1907A      3.496742  1908A      3.502250  
    1909A      3.511805  1910A      3.527700  1911A      3.532096  
    1912A      3.557771  1913A      3.564991  1914A      3.583224  
    1915A      3.590513  1916A      3.592510  1917A      3.604135  
    1918A      3.649645  1919A      3.657535  1920A      3.666377  
    1921A      3.676634  1922A      3.691953  1923A      3.699069  
    1924A      3.713851  1925A      3.757262  1926A      3.760937  
    1927A      3.765524  1928A      3.767595  1929A      3.777936  
    1930A      3.779314  1931A      3.812413  1932A      3.837987  
    1933A      3.846251  1934A      3.851969  1935A      3.877349  
    1936A      3.879554  1937A      3.882317  1938A      3.921044  
    1939A      3.933763  1940A      3.948145  1941A      3.950037  
    1942A      3.950170  1943A      3.964988  1944A      3.981067  
    1945A      3.987733  1946A      4.002487  1947A      4.025151  
    1948A      4.027788  1949A      4.070863  1950A      4.100897  
    1951A      4.232495  1952A      4.251789  1953A      4.289741  
    1954A      4.343297  1955A      4.421973  1956A      4.441232  
    1957A      4.451813  1958A      4.523786  1959A      4.809934  
    1960A      4.854918  1961A      4.899830  1962A      4.920092  
    1963A      4.978048  1964A      5.086347  1965A      5.095409  
    1966A      5.107056  1967A      5.143022  1968A      5.228281  
    1969A      5.424258  1970A      5.443834  1971A      5.772121  
    1972A      5.802633  1973A      6.080993  1974A     18.206859  
    1975A     18.490362  1976A     18.516551  1977A     18.601936  
    1978A     18.859837  1979A     25.358974  1980A     25.393786  

    Final Occupation by Irrep:
              A 
    DOCC [   300 ]
    NA   [   300 ]
    NB   [   300 ]

  @DF-RHF Final Energy: -3650.34143439448326

   => Energetics <=

    Nuclear Repulsion Energy =          15611.4211649754306563
    One-Electron Energy =              -36072.1889611671867897
    Two-Electron Energy =               16810.4263617972756037
    Total Energy =                      -3650.3414343944823486

Computation Completed


Properties will be evaluated at   0.000000,   0.000000,   0.000000 [a0]

Properties computed using the SCF density matrix


 Multipole Moments:

 ------------------------------------------------------------------------------------
     Multipole            Electronic (a.u.)      Nuclear  (a.u.)        Total (a.u.)
 ------------------------------------------------------------------------------------

 L = 1.  Multiply by 2.5417464519 to convert [e a0] to [Debye]
 Dipole X            :         -0.0008725            0.0002112           -0.0006613
 Dipole Y            :        123.2196597         -123.2131634            0.0064963
 Dipole Z            :       -371.7091373          371.7155525            0.0064152
 Magnitude           :                                                    0.0091539

 ------------------------------------------------------------------------------------

*** tstop() called on n2cn0837 at Sat Feb 10 15:29:09 2024
Module time:
	user time   =   19662.98 seconds =     327.72 minutes
	system time =    1188.17 seconds =      19.80 minutes
	total time  =       1921 seconds =      32.02 minutes
Total time:
	user time   =   54666.51 seconds =     911.11 minutes
	system time =    3375.71 seconds =      56.26 minutes
	total time  =       6260 seconds =     104.33 minutes
  Constructing Basis Sets for SAPT...

   => Loading Basis Set <=

    Name: (JUN-CC-PVDZ AUX)
    Role: RIFIT
    Keyword: DF_BASIS_SAPT
    atoms 1-2, 4-5, 10, 17-34, 41-53, 56-70, 73-89, 92-104, 109-119, 122-130 entry C          line   100 file /opt/software/pc2/EB-SW/software/PSI4/1.9-foss-2022a/share/psi4/basis/jun-cc-pvdz-ri.gbs 
    atoms 3, 6                                                               entry N          line   144 file /opt/software/pc2/EB-SW/software/PSI4/1.9-foss-2022a/share/psi4/basis/jun-cc-pvdz-ri.gbs 
    atoms 7-9, 11-16, 35-40, 54-55, 71-72, 90-91, 105-108, 120-121, 131-136  entry H          line    30 file /opt/software/pc2/EB-SW/software/PSI4/1.9-foss-2022a/share/psi4/basis/jun-cc-pvdz-ri.gbs 

   => Loading Basis Set <=

    Name: (JUN-CC-PVDZ AUX)
    Role: JKFIT
    Keyword: DF_BASIS_ELST
    atoms 1-2, 4-5, 10, 17-34, 41-53, 56-70, 73-89, 92-104, 109-119, 122-130 entry C          line   146 file /opt/software/pc2/EB-SW/software/PSI4/1.9-foss-2022a/share/psi4/basis/jun-cc-pvdz-jkfit.gbs 
    atoms 3, 6                                                               entry N          line   202 file /opt/software/pc2/EB-SW/software/PSI4/1.9-foss-2022a/share/psi4/basis/jun-cc-pvdz-jkfit.gbs 
    atoms 7-9, 11-16, 35-40, 54-55, 71-72, 90-91, 105-108, 120-121, 131-136  entry H          line    70 file /opt/software/pc2/EB-SW/software/PSI4/1.9-foss-2022a/share/psi4/basis/jun-cc-pvdz-jkfit.gbs 


  //>>>>>>>>>>>>>>>>>>>>>>>>>>>>>>>>>>>//
  //               SSAPT0              //
  //<<<<<<<<<<<<<<<<<<<<<<<<<<<<<<<<<<<//


*** tstart() called on n2cn0837
*** at Sat Feb 10 15:29:11 2024

        SAPT0  
    Ed Hohenstein
     6 June 2009

      Orbital Information
  --------------------------
    NSO        =      2019
    NMO        =      1980
    NRI        =      7157
    NRI (Elst) =      8896
    NOCC A     =        26
    NOCC B     =       300
    FOCC A     =         7
    FOCC B     =        96
    NVIR A     =      1954
    NVIR B     =      1680

    Elst10,r            =    -0.016680719550 [Eh]
    Exch10              =     0.016774858029 [Eh]
    Exch10 (S^2)        =     0.016691659894 [Eh]

    Iter     Energy [mEh]          dE [mEh]         Residual      Time [s]
       1      -1.03093022       1.030930220       4.597651869           102
       2      -1.22782067       0.196890453       1.575400947           193
       3      -1.25568534       0.027864672       0.221281712           296
       4      -1.25365203      -0.002033318       0.063710551           401
       5      -1.25332115      -0.000330880       0.013729644           501
       6      -1.25343209       0.000110945       0.002791209           603
       7      -1.25343152      -0.000000567       0.001168769           707
       8      -1.25342745      -0.000004076       0.000402809           808
       9      -1.25342701      -0.000000439       0.000149700           913
      10      -1.25342742       0.000000406       0.000068320          1010
      11      -1.25342756       0.000000145       0.000023992          1110
      12      -1.25342747      -0.000000087       0.000005992          1211
      13      -1.25342747      -0.000000005       0.000001802          1308
      14      -1.25342747       0.000000005       0.000000561          1400

    CHF Iterations converged


    Iter     Energy [mEh]          dE [mEh]         Residual      Time [s]
       1     -26.23421850      26.234218497      83.831630262           125
       2     -18.13901320      -8.095205294      11.752732426           240
       3     -18.40172688       0.262713677       5.033333808           367
       4     -18.96455152       0.562824642       1.417635710           487
       5     -19.00949240       0.044940877       0.579149226           605
       6     -18.98613613      -0.023356272       0.364250240           737
       7     -18.97554281      -0.010593318       0.176895360           856
       8     -18.98023603       0.004693217       0.109650033           975
       9     -18.98357712       0.003341096       0.064396074          1099
      10     -18.98202433      -0.001552792       0.049004436          1219
      11     -18.98135390      -0.000670433       0.023618978          1359
      12     -18.98156665       0.000212752       0.012362145          1506
      13     -18.98180103       0.000234381       0.005620643          1628
      14     -18.98179282      -0.000008214       0.003137199          1750
      15     -18.98175012      -0.000042695       0.001609617          1880
      16     -18.98173651      -0.000013614       0.000655457          2001
      17     -18.98174895       0.000012444       0.000353430          2123
      18     -18.98175273       0.000003782       0.000217382          2248
      19     -18.98175000      -0.000002730       0.000127853          2376
      20     -18.98174819      -0.000001809       0.000054941          2516
      21     -18.98174869       0.000000499       0.000027596          2671
      22     -18.98174912       0.000000424       0.000012489          2794
      23     -18.98174906      -0.000000053       0.000007304          2918
      24     -18.98174896      -0.000000108       0.000004409          3045
      25     -18.98174895      -0.000000005       0.000002449          3164
      26     -18.98174899       0.000000036       0.000001165          3274
      27     -18.98174899       0.000000004       0.000000511          3390

    CHF Iterations converged

    Ind20,r (A<-B)      =    -0.001253427474 [Eh]
    Ind20,r (B<-A)      =    -0.018981748991 [Eh]
    Ind20,r             =    -0.020235176465 [Eh]
    Exch-Ind20,r (A<-B) =     0.001183240343 [Eh]
    Exch-Ind20,r (B<-A) =     0.003234406042 [Eh]
    Exch-Ind20,r        =     0.004417646385 [Eh]
    Disp20              =    -0.023973218241 [Eh]
    Disp20 (SS)         =    -0.011986609120 [Eh]
    Disp20 (OS)         =    -0.011986609120 [Eh]
    Exch-Disp20         =     0.001344697345 [Eh]
    Exch-Disp20 (SS)    =     0.000830056068 [Eh]
    Exch-Disp20 (OS)    =     0.000514641277 [Eh]

    SAPT Results 
  --------------------------------------------------------------------------------------------------------
    Electrostatics                -16.68071955 [mEh]     -10.46730955 [kcal/mol]     -43.79522314 [kJ/mol]
      Elst10,r                    -16.68071955 [mEh]     -10.46730955 [kcal/mol]     -43.79522314 [kJ/mol]

    Exchange                       16.77485803 [mEh]      10.52638233 [kcal/mol]      44.04238369 [kJ/mol]
      Exch10                       16.77485803 [mEh]      10.52638233 [kcal/mol]      44.04238369 [kJ/mol]
      Exch10(S^2)                  16.69165989 [mEh]      10.47417472 [kcal/mol]      43.82394702 [kJ/mol]

    Induction                     -19.44936973 [mEh]     -12.20466377 [kcal/mol]     -51.06431320 [kJ/mol]
      Ind20,r                     -20.23517646 [mEh]     -12.69776494 [kcal/mol]     -53.12744849 [kJ/mol]
      Exch-Ind20,r                  4.41764639 [mEh]       2.77211496 [kcal/mol]      11.59852899 [kJ/mol]
      delta HF,r (2)               -3.63183965 [mEh]      -2.27901379 [kcal/mol]      -9.53539370 [kJ/mol]

    Dispersion                    -22.62852090 [mEh]     -14.19961124 [kcal/mol]     -59.41117343 [kJ/mol]
      Disp20                      -23.97321824 [mEh]     -15.04342156 [kcal/mol]     -62.94167582 [kJ/mol]
      Exch-Disp20                   1.34469735 [mEh]       0.84381032 [kcal/mol]       3.53050239 [kJ/mol]
      Disp20 (SS)                 -11.98660912 [mEh]      -7.52171078 [kcal/mol]     -31.47083791 [kJ/mol]
      Disp20 (OS)                 -11.98660912 [mEh]      -7.52171078 [kcal/mol]     -31.47083791 [kJ/mol]
      Exch-Disp20 (SS)              0.83005607 [mEh]       0.52086805 [kcal/mol]       2.17931191 [kJ/mol]
      Exch-Disp20 (OS)              0.51464128 [mEh]       0.32294228 [kcal/mol]       1.35119049 [kJ/mol]

  Total HF                        -19.35523126 [mEh]     -12.14559098 [kcal/mol]     -50.81715266 [kJ/mol]
  Total SAPT0                     -41.98375215 [mEh]     -26.34520222 [kcal/mol]    -110.22832609 [kJ/mol]

  Special recipe for scaled SAPT0 (see Manual):
    Electrostatics sSAPT0         -16.68071955 [mEh]     -10.46730955 [kcal/mol]     -43.79522314 [kJ/mol]
    Exchange sSAPT0                16.77485803 [mEh]      10.52638233 [kcal/mol]      44.04238369 [kJ/mol]
    Induction sSAPT0              -19.38298180 [mEh]     -12.16300471 [kcal/mol]     -50.89001170 [kJ/mol]
    Dispersion sSAPT0             -22.60831292 [mEh]     -14.18693054 [kcal/mol]     -59.35811740 [kJ/mol]
  Total sSAPT0                    -41.89715624 [mEh]     -26.29086247 [kcal/mol]    -110.00096856 [kJ/mol]
  --------------------------------------------------------------------------------------------------------

*** tstop() called on n2cn0837 at Sat Feb 10 19:00:27 2024
Module time:
	user time   =   77963.19 seconds =    1299.39 minutes
	system time =    3903.65 seconds =      65.06 minutes
	total time  =      12676 seconds =     211.27 minutes
Total time:
	user time   =  132631.26 seconds =    2210.52 minutes
	system time =    7279.37 seconds =     121.32 minutes
	total time  =      18938 seconds =     315.63 minutes

    Psi4 stopped on: Saturday, 10 February 2024 07:00PM
    Psi4 wall time for execution: 5:15:39.46

*** Psi4 exiting successfully. Buy a developer a beer!
