
    -----------------------------------------------------------------------
          Psi4: An Open-Source Ab Initio Electronic Structure Package
                               Psi4 1.9 release

                         Git: Rev {} zzzzzzz 


    D. G. A. Smith, L. A. Burns, A. C. Simmonett, R. M. Parrish,
    M. C. Schieber, R. Galvelis, P. Kraus, H. Kruse, R. Di Remigio,
    A. Alenaizan, A. M. James, S. Lehtola, J. P. Misiewicz, M. Scheurer,
    R. A. Shaw, J. B. Schriber, Y. Xie, Z. L. Glick, D. A. Sirianni,
    J. S. O'Brien, J. M. Waldrop, A. Kumar, E. G. Hohenstein,
    B. P. Pritchard, B. R. Brooks, H. F. Schaefer III, A. Yu. Sokolov,
    K. Patkowski, A. E. DePrince III, U. Bozkaya, R. A. King,
    F. A. Evangelista, J. M. Turney, T. D. Crawford, C. D. Sherrill,
    J. Chem. Phys. 152(18) 184108 (2020). https://doi.org/10.1063/5.0006002

                            Additional Code Authors
    E. T. Seidl, C. L. Janssen, E. F. Valeev, M. L. Leininger,
    J. F. Gonthier, R. M. Richard, H. R. McAlexander, M. Saitow, X. Wang,
    P. Verma, M. H. Lechner, A. Jiang, S. Behnle, A. G. Heide,
    M. F. Herbst, and D. L. Poole

             Previous Authors, Complete List of Code Contributors,
                       and Citations for Specific Modules
    https://github.com/psi4/psi4/blob/master/codemeta.json
    https://github.com/psi4/psi4/graphs/contributors
    http://psicode.org/psi4manual/master/introduction.html#citing-psifour

    -----------------------------------------------------------------------


    Psi4 started on: Monday, 22 January 2024 08:02PM

    Process ID: 1882115
    Host:       d-16-7-4
    PSIDATADIR: /home/gridsan/tfroembgen/.conda/envs/psi4test/share/psi4
    Memory:     500.0 MiB
    Threads:    12
    
  ==> Input File <==

--------------------------------------------------------------------------
memory 32 GB # how much memory is available ! Depends on the nodes/cores !

molecule dimer {
# monomer A
+1 1    # Charge and multiplicity
C  0.680067 -0.008042 -10.615929
C -0.680504 -0.006014 -10.615545
N -1.085635 -0.005016  -9.297221
C  0.000108 -0.001740  -8.515820
C -2.477365  0.044390  -8.829242
N  1.085222 -0.005016  -9.297221
H  1.385146 -0.015870 -11.433368
H -1.385302 -0.006204 -11.433214
H -0.000009  0.000007  -7.434731
C  2.478117 -0.021908  -8.832123
H  2.490592  0.005437  -7.741870
H  2.967028 -0.935354  -9.179299
H  3.001428  0.853575  -9.223595
H -2.857359  1.066461  -8.909201
H -3.082679 -0.625694  -9.442306
H -2.518128 -0.282594  -7.789294
--
# monomer B
0 1     # Charge and multiplicity
C   1.22531237526482      0.70753866091955      0.00613762728373
C   1.22532433589282     -0.70753852257020     -0.00619318228664
C   -0.00000567409046      1.41496628609039     -0.00672680580738
C   2.45644923379077      1.41832825917820      0.00902448468363
C   0.00001130712078     -1.41497612663474      0.00347275151708
C   -1.22530046906674      0.70754574598412      0.00838914760619
C   2.45643823516184     -1.41832293188077     -0.00843833914343
C   -0.00000085313587      2.83680140328112     -0.00913035594137
C   3.68182717731192      0.70931832800114     -0.00808954934571
C   2.45512052870677      2.83422403348893     -0.00819210630633
C   3.68182158506039     -0.70933346742900      0.00798293467272
C   -1.22531311884624     -0.70752714354401     -0.00512042085974
C   1.22670006104402      3.54346985599427      0.00816696660346
C   0.00000526469929     -2.83678176723568      0.00832091913869
C   -2.45643555300670      1.41831729028492      0.00842454345199
C   2.45512389762097     -2.83422965658853      0.00783102630520
C   -1.22671388474763      3.54346943575023      0.00827029982280
C   4.91451777504333      1.42717324448953     -0.00160886631602
C   3.69315067131765      3.54279566454522     -0.00155906667985
C   -2.45643712022637     -1.41831290883911     -0.00846337726810
C   1.22670532178455     -3.54347386990643     -0.00780316414624
C   -2.45512491866593      2.83421703463423     -0.00818572995999
C   4.91452486062398     -1.42718653794377      0.00136387641845
C   1.22142509354026      4.97013443726031      0.00150231067809
C   4.89300870916237      2.82518837202648     -0.00039219795739
C   -1.22669652864725     -3.54347062507680     -0.00753595973677
C   -3.68181849668397      0.70932533873199     -0.00807686886569
C   3.69314758099218     -3.54280096939050      0.00148176697923
C   -1.22143177215231      4.97012866986289      0.00168580605083
C   6.13477145276790      0.68054831910577     -0.00083909176631
C   3.65678936045204      4.97295361556775     -0.00065042889723
C   -2.45512642789169     -2.83421472106065      0.00758666850712
C   -3.68181869921921     -0.70932533146830      0.00810055625144
C   4.89301309775526     -2.82519973363176      0.00021895393805
C   -0.00000059327114      5.65044773803267      0.00045449734393
C   6.13477559217374     -0.68055448207492      0.00042622874941
C   2.47813196269732      5.65357712333155      0.00063835075260
C   1.22142288457925     -4.97012668293268     -0.00129718634452
C   -3.69316190412301      3.54279732619245     -0.00139355922051
C   -1.22142804110313     -4.97011793159564     -0.00140994817719
C   -4.91452132810043      1.42717581899491     -0.00153192130862
C   3.65678749952045     -4.97295485423912      0.00080007163680
C   -2.47813805026426      5.65357479452875      0.00092287576113
C   -3.69314125872231     -3.54278984697859      0.00136564082345
C   -4.91451200321153     -1.42718062802730      0.00139857359209
C   -0.00000552908399     -5.65043791501335      0.00005899322272
C   -4.89302000425900      2.82518897091939     -0.00040227981744
C   2.47812647313991     -5.65357317188818     -0.00029052915548
C   -3.65679823041642      4.97295655404175     -0.00047374852278
C   -4.89299899901461     -2.82519139505969      0.00006491824035
C   -2.47812801824129     -5.65356579800621     -0.00056571680280
C   -6.13477002348955      0.68054913825639     -0.00086464346868
C   -3.65678835334731     -4.97294365097028      0.00058578382008
C   -6.13476456307132     -0.68055354348201      0.00040575295444
H   5.83528897565761      3.36927626695423      0.00396712770529
H   7.07385965258860      1.22821762089947     -0.00037744837300
H   4.60066374401555      5.51238117445323     -0.00014522814529
H   5.83528386714679     -3.36930568472863     -0.00423551337640
H   -0.00001167146422      6.73853104613662     -0.00389474766392
H   7.07386165167227     -1.22822657074368     -0.00008250934481
H   2.47331421164041      6.74068466339473      0.00017162982210
H   4.60066897122302     -5.51237575717576      0.00039007446835
H   -2.47331820069565      6.74068209160650      0.00047297644710
H   -0.00000978838621     -6.73852780445195      0.00458867820736
H   -5.83530143450167      3.36927132229595      0.00410314985360
H   2.47330840367253     -6.74068500242887      0.00027980126949
H   -4.60067436136587      5.51237839860371      0.00002010017831
H   -5.83527902699321     -3.36928859177951     -0.00451481925734
H   -2.47329986759855     -6.74067870613986     -0.00016951527498
H   -7.07385728692578      1.22822084484047     -0.00046143985387
H   -4.60067330624313     -5.51236229778631      0.00021776644566
H   -7.07385645456741     -1.22822025997701     -0.00017736581114

    units angstrom      # Angstroms are the default
    no_reorient         # Geometry fixed, default
    symmetry c1         # C1 symmetry, default
}

set {
    scf_type DF         # Density fitting, faster than exact integrals
    freeze_core True    # Freeze core electrons
    basis jun-cc-pVDZ   # Jun-cc-pVDZ basis set, recommended for sSAPT0 in https://doi.org/10.1063/1.4867135
}

energy('ssapt0')        # Compute sSAPT0 energy, includes also SAPT0
--------------------------------------------------------------------------

  Memory set to  29.802 GiB by Python driver.

Scratch directory: /state/partition1/slurm_tmp/24798289.4294967291.0/
   => Loading Basis Set <=

    Name: JUN-CC-PVDZ
    Role: ORBITAL
    Keyword: BASIS
    atoms 1-2, 4-5, 10, 17-70 entry C          line   164 file /home/gridsan/tfroembgen/.conda/envs/psi4test/share/psi4/basis/jun-cc-pvdz.gbs 
    atoms 3, 6                entry N          line   198 file /home/gridsan/tfroembgen/.conda/envs/psi4test/share/psi4/basis/jun-cc-pvdz.gbs 
    atoms 7-9, 11-16, 71-88   entry H          line    36 file /home/gridsan/tfroembgen/.conda/envs/psi4test/share/psi4/basis/jun-cc-pvdz.gbs 

   => Loading Basis Set <=

    Name: JUN-CC-PVDZ
    Role: ORBITAL
    Keyword: BASIS
    atoms 1-2, 4-5, 10, 17-70 entry C          line   164 file /home/gridsan/tfroembgen/.conda/envs/psi4test/share/psi4/basis/jun-cc-pvdz.gbs 
    atoms 3, 6                entry N          line   198 file /home/gridsan/tfroembgen/.conda/envs/psi4test/share/psi4/basis/jun-cc-pvdz.gbs 
    atoms 7-9, 11-16, 71-88   entry H          line    36 file /home/gridsan/tfroembgen/.conda/envs/psi4test/share/psi4/basis/jun-cc-pvdz.gbs 


  //>>>>>>>>>>>>>>>>>>>>>>>>>>>>>>>>>>>//
  //              Dimer HF             //
  //<<<<<<<<<<<<<<<<<<<<<<<<<<<<<<<<<<<//

   => Libint2 <=

    Primary   basis highest AM E, G, H:  7, 7, 4
    Auxiliary basis highest AM E, G, H:  7, 7, 5
    Onebody   basis highest AM E, G, H:  7, 7, 5
    Solid Harmonics ordering:            gaussian

*** tstart() called on d-16-7-4
*** at Mon Jan 22 20:02:32 2024

   => Loading Basis Set <=

    Name: JUN-CC-PVDZ
    Role: ORBITAL
    Keyword: BASIS
    atoms 1-2, 4-5, 10, 17-70 entry C          line   164 file /home/gridsan/tfroembgen/.conda/envs/psi4test/share/psi4/basis/jun-cc-pvdz.gbs 
    atoms 3, 6                entry N          line   198 file /home/gridsan/tfroembgen/.conda/envs/psi4test/share/psi4/basis/jun-cc-pvdz.gbs 
    atoms 7-9, 11-16, 71-88   entry H          line    36 file /home/gridsan/tfroembgen/.conda/envs/psi4test/share/psi4/basis/jun-cc-pvdz.gbs 


         ---------------------------------------------------------
                                   SCF
               by Justin Turney, Rob Parrish, Andy Simmonett
                          and Daniel G. A. Smith
                              RHF Reference
                       12 Threads,  30517 MiB Core
         ---------------------------------------------------------

  ==> Geometry <==

    Molecular point group: c1
    Full point group: C1

    Geometry (in Angstrom), charge = 1, multiplicity = 1:

       Center              X                  Y                   Z               Mass       
    ------------   -----------------  -----------------  -----------------  -----------------
         C            0.680066520158    -0.008042372515    -9.420308946626    12.000000000000
         C           -0.680504479842    -0.006014372515    -9.419924946626    12.000000000000
         N           -1.085635479842    -0.005016372515    -8.101600946626    14.003074004430
         C            0.000107520158    -0.001740372515    -7.320199946626    12.000000000000
         C           -2.477365479842     0.044389627485    -7.633621946626    12.000000000000
         N            1.085221520158    -0.005016372515    -8.101600946626    14.003074004430
         H            1.385145520158    -0.015870372515   -10.237747946626     1.007825032230
         H           -1.385302479842    -0.006204372515   -10.237593946626     1.007825032230
         H           -0.000009479842     0.000006627485    -6.239110946626     1.007825032230
         C            2.478116520158    -0.021908372515    -7.636502946626    12.000000000000
         H            2.490591520158     0.005436627485    -6.546249946626     1.007825032230
         H            2.967027520158    -0.935354372515    -7.983678946626     1.007825032230
         H            3.001427520158     0.853574627485    -8.027974946626     1.007825032230
         H           -2.857359479842     1.066460627485    -7.713580946626     1.007825032230
         H           -3.082679479842    -0.625694372515    -8.246685946626     1.007825032230
         H           -2.518128479842    -0.282594372515    -6.593673946626     1.007825032230
         C            1.225311895423     0.707538288405     1.201757680658    12.000000000000
         C            1.225323856051    -0.707538895085     1.189426871088    12.000000000000
         C           -0.000006153932     1.414965913575     1.188893247567    12.000000000000
         C            2.456448753949     1.418327886663     1.204644538058    12.000000000000
         C            0.000010827279    -1.414976499150     1.199092804891    12.000000000000
         C           -1.225300948908     0.707545373469     1.204009200980    12.000000000000
         C            2.456437755320    -1.418323304396     1.187181714231    12.000000000000
         C           -0.000001332978     2.836801030766     1.186489697433    12.000000000000
         C            3.681826697470     0.709317955486     1.187530504029    12.000000000000
         C            2.455120048865     2.834223660974     1.187427947068    12.000000000000
         C            3.681821105219    -0.709333839944     1.203602988047    12.000000000000
         C           -1.225313598688    -0.707527516059     1.190499632515    12.000000000000
         C            1.226699581202     3.543469483479     1.203787019978    12.000000000000
         C            0.000004784858    -2.836782139751     1.203940972513    12.000000000000
         C           -2.456436032848     1.418316917770     1.204044596826    12.000000000000
         C            2.455123417779    -2.834230029103     1.203451079679    12.000000000000
         C           -1.226714364589     3.543469063235     1.203890353197    12.000000000000
         C            4.914517295202     1.427172871975     1.194011187058    12.000000000000
         C            3.693150191476     3.542795292030     1.194060986694    12.000000000000
         C           -2.456437600068    -1.418313281354     1.187156676106    12.000000000000
         C            1.226704841943    -3.543474242421     1.187816889228    12.000000000000
         C           -2.455125398508     2.834216662119     1.187434323414    12.000000000000
         C            4.914524380782    -1.427186910459     1.196983929793    12.000000000000
         C            1.221424613699     4.970134064745     1.197122364052    12.000000000000
         C            4.893008229321     2.825187999512     1.195227855417    12.000000000000
         C           -1.226697008489    -3.543470997592     1.188084093637    12.000000000000
         C           -3.681818976526     0.709324966217     1.187543184509    12.000000000000
         C            3.693147101150    -3.542801341905     1.197101820353    12.000000000000
         C           -1.221432251994     4.970128297348     1.197305859425    12.000000000000
         C            6.134770972926     0.680547946591     1.194780961608    12.000000000000
         C            3.656788880610     4.972953243053     1.194969624477    12.000000000000
         C           -2.455126907733    -2.834215093576     1.203206721881    12.000000000000
         C           -3.681819179061    -0.709325703983     1.203720609626    12.000000000000
         C            4.893012617914    -2.825200106147     1.195839007312    12.000000000000
         C           -0.000001073113     5.650447365518     1.196074550718    12.000000000000
         C            6.134775112332    -0.680554854590     1.196046282124    12.000000000000
         C            2.478131482856     5.653576750817     1.196258404127    12.000000000000
         C            1.221422404738    -4.970127055448     1.194322867030    12.000000000000
         C           -3.693162383965     3.542796953677     1.194226494154    12.000000000000
         C           -1.221428520945    -4.970118304111     1.194210105197    12.000000000000
         C           -4.914521807942     1.427175446480     1.194088132066    12.000000000000
         C            3.656787019679    -4.972955226754     1.196420125011    12.000000000000
         C           -2.478138530106     5.653574422014     1.196542929135    12.000000000000
         C           -3.693141738564    -3.542790219494     1.196985694198    12.000000000000
         C           -4.914512483053    -1.427181000542     1.197018626966    12.000000000000
         C           -0.000006008926    -5.650438287528     1.195679046597    12.000000000000
         C           -4.893020484101     2.825188598404     1.195217773557    12.000000000000
         C            2.478125993298    -5.653573544403     1.195329524219    12.000000000000
         C           -3.656798710258     4.972956181527     1.195146304851    12.000000000000
         C           -4.892999478856    -2.825191767575     1.195684971615    12.000000000000
         C           -2.478128498083    -5.653566170521     1.195054336571    12.000000000000
         C           -6.134770503331     0.680548765741     1.194755409906    12.000000000000
         C           -3.656788833189    -4.972944023485     1.196205837194    12.000000000000
         C           -6.134765042913    -0.680553915997     1.196025806329    12.000000000000
         H            5.835288495816     3.369275894439     1.199587181080     1.007825032230
         H            7.073859172747     1.228217248385     1.195242605001     1.007825032230
         H            4.600663264174     5.512380801938     1.195474825229     1.007825032230
         H            5.835283387305    -3.369306057244     1.191384539998     1.007825032230
         H           -0.000012151306     6.738530673622     1.191725305710     1.007825032230
         H            7.073861171831    -1.228226943259     1.195537544029     1.007825032230
         H            2.473313731799     6.740684290880     1.195791683196     1.007825032230
         H            4.600668491381    -5.512376129691     1.196010127843     1.007825032230
         H           -2.473318680537     6.740681719092     1.196093029821     1.007825032230
         H           -0.000010268228    -6.738528176967     1.200208731582     1.007825032230
         H           -5.835301914343     3.369270949781     1.199723203228     1.007825032230
         H            2.473307923831    -6.740685374944     1.195899854644     1.007825032230
         H           -4.600674841208     5.512378026089     1.195640153553     1.007825032230
         H           -5.835279506835    -3.369288964294     1.191105234117     1.007825032230
         H           -2.473300347440    -6.740679078655     1.195450538099     1.007825032230
         H           -7.073857766768     1.228220472326     1.195158613520     1.007825032230
         H           -4.600673786085    -5.512362670301     1.195837819820     1.007825032230
         H           -7.073856934409    -1.228220632492     1.195442687563     1.007825032230

  Running in c1 symmetry.

  Rotational constants: A =      0.00111  B =      0.00109  C =      0.00109 [cm^-1]
  Rotational constants: A =     33.33024  B =     32.81238  C =     32.71080 [MHz]
  Nuclear repulsion = 7668.415703741724428

  Charge       = 1
  Multiplicity = 1
  Electrons    = 394
  Nalpha       = 197
  Nbeta        = 197

  ==> Algorithm <==

  SCF Algorithm Type is DF.
  DIIS enabled.
  MOM disabled.
  Fractional occupation disabled.
  Guess Type is SAD.
  Energy threshold   = 1.00e-08
  Density threshold  = 1.00e-08
  Integral threshold = 1.00e-12

  ==> Primary Basis <==

  Basis Set: JUN-CC-PVDZ
    Blend: JUN-CC-PVDZ
    Number of shells: 569
    Number of basis functions: 1233
    Number of Cartesian functions: 1294
    Spherical Harmonics?: true
    Max angular momentum: 2

   => Loading Basis Set <=

    Name: (JUN-CC-PVDZ AUX)
    Role: JKFIT
    Keyword: DF_BASIS_SCF
    atoms 1-2, 4-5, 10, 17-70 entry C          line   146 file /home/gridsan/tfroembgen/.conda/envs/psi4test/share/psi4/basis/jun-cc-pvdz-jkfit.gbs 
    atoms 3, 6                entry N          line   202 file /home/gridsan/tfroembgen/.conda/envs/psi4test/share/psi4/basis/jun-cc-pvdz-jkfit.gbs 
    atoms 7-9, 11-16, 71-88   entry H          line    70 file /home/gridsan/tfroembgen/.conda/envs/psi4test/share/psi4/basis/jun-cc-pvdz-jkfit.gbs 

  ==> Integral Setup <==

  ==> DiskDFJK: Density-Fitted J/K Matrices <==

    J tasked:                  Yes
    K tasked:                  Yes
    wK tasked:                  No
    OpenMP threads:             12
    Integrals threads:          12
    Memory [MiB]:            22888
    Algorithm:                Core
    Integral Cache:           SAVE
    Schwarz Cutoff:          1E-12
    Fitting Condition:       1E-10

   => Auxiliary Basis Set <=

  Basis Set: (JUN-CC-PVDZ AUX)
    Blend: JUN-CC-PVDZ-JKFIT
    Number of shells: 1890
    Number of basis functions: 5440
    Number of Cartesian functions: 6226
    Spherical Harmonics?: true
    Max angular momentum: 3

  Minimum eigenvalue in the overlap matrix is 8.3997562418E-10.
  Reciprocal condition number of the overlap matrix is 3.7579220229E-11.
    Using canonical orthogonalization.
  Overall, 14 of 1233 possible MOs eliminated.


  ==> Pre-Iterations <==

  SCF Guess: Superposition of Atomic Densities via on-the-fly atomic UHF (no occupation information).

   -------------------------
    Irrep   Nso     Nmo    
   -------------------------
     A       1233    1219 
   -------------------------
    Total    1233    1219
   -------------------------

  ==> Iterations <==

                           Total Energy        Delta E     RMS |[F,P]|

   @DF-RHF iter SAD: -2365.39382330415947   -2.36539e+03   0.00000e+00 
   @DF-RHF iter   1: -2358.18301809832019    7.21081e+00   9.49414e-04 DIIS/ADIIS
   @DF-RHF iter   2: -2359.08534980189552   -9.02332e-01   3.25747e-04 DIIS/ADIIS
   @DF-RHF iter   3: -2359.17867951461631   -9.33297e-02   1.20029e-04 DIIS/ADIIS
   @DF-RHF iter   4: -2359.19216473850156   -1.34852e-02   4.59596e-05 DIIS
   @DF-RHF iter   5: -2359.19422176539547   -2.05703e-03   1.06913e-05 DIIS
   @DF-RHF iter   6: -2359.19440722725130   -1.85462e-04   5.29431e-06 DIIS
   @DF-RHF iter   7: -2359.19447985036732   -7.26231e-05   2.26882e-06 DIIS
   @DF-RHF iter   8: -2359.19450079865146   -2.09483e-05   1.12632e-06 DIIS
   @DF-RHF iter   9: -2359.19450600354730   -5.20490e-06   2.58462e-07 DIIS
   @DF-RHF iter  10: -2359.19450624536421   -2.41817e-07   8.50756e-08 DIIS
   @DF-RHF iter  11: -2359.19450626274647   -1.73823e-08   3.13810e-08 DIIS
   @DF-RHF iter  12: -2359.19450626637945   -3.63298e-09   1.07698e-08 DIIS
   @DF-RHF iter  13: -2359.19450626667413   -2.94676e-10   4.27712e-09 DIIS
  Energy and wave function converged.


  ==> Post-Iterations <==

    Orbital Energies [Eh]
    ---------------------

    Doubly Occupied:                                                      

       1A    -15.828269     2A    -15.827743     3A    -11.523035  
       4A    -11.454086     5A    -11.452532     6A    -11.443153  
       7A    -11.443044     8A    -11.311284     9A    -11.310818  
      10A    -11.310804    11A    -11.309897    12A    -11.309873  
      13A    -11.309554    14A    -11.309046    15A    -11.309022  
      16A    -11.308965    17A    -11.308807    18A    -11.308759  
      19A    -11.308552    20A    -11.307885    21A    -11.307866  
      22A    -11.307780    23A    -11.307745    24A    -11.307715  
      25A    -11.307696    26A    -11.307651    27A    -11.307649  
      28A    -11.307533    29A    -11.307528    30A    -11.307517  
      31A    -11.307510    32A    -11.306876    33A    -11.306873  
      34A    -11.306779    35A    -11.306759    36A    -11.306737  
      37A    -11.306714    38A    -11.306126    39A    -11.306103  
      40A    -11.306029    41A    -11.305994    42A    -11.305939  
      43A    -11.305923    44A    -11.300483    45A    -11.300481  
      46A    -11.300341    47A    -11.300338    48A    -11.300312  
      49A    -11.300310    50A    -11.300241    51A    -11.300234  
      52A    -11.300211    53A    -11.300210    54A    -11.300148  
      55A    -11.300129    56A    -11.299034    57A    -11.299032  
      58A    -11.298788    59A    -11.298785    60A    -11.298784  
      61A    -11.298782    62A     -1.571969    63A     -1.427508  
      64A     -1.294442    65A     -1.269697    66A     -1.269602  
      67A     -1.239030    68A     -1.239023    69A     -1.232532  
      70A     -1.230870    71A     -1.206664    72A     -1.198385  
      73A     -1.185270    74A     -1.185182    75A     -1.182922  
      76A     -1.162249    77A     -1.162228    78A     -1.132003  
      79A     -1.131998    80A     -1.128176    81A     -1.114924  
      82A     -1.114912    83A     -1.112469    84A     -1.088571  
      85A     -1.074135    86A     -1.071598    87A     -1.071578  
      88A     -1.066736    89A     -1.061602    90A     -1.036459  
      91A     -1.036446    92A     -1.016415    93A     -1.010912  
      94A     -1.010896    95A     -0.990599    96A     -0.943381  
      97A     -0.943329    98A     -0.937733    99A     -0.935992  
     100A     -0.935885   101A     -0.930902   102A     -0.930828  
     103A     -0.910896   104A     -0.910700   105A     -0.885913  
     106A     -0.867316   107A     -0.866207   108A     -0.861553  
     109A     -0.861492   110A     -0.844219   111A     -0.843468  
     112A     -0.843462   113A     -0.810184   114A     -0.806617  
     115A     -0.796231   116A     -0.794320   117A     -0.783975  
     118A     -0.782868   119A     -0.782786   120A     -0.781014  
     121A     -0.780951   122A     -0.779878   123A     -0.775853  
     124A     -0.765698   125A     -0.748004   126A     -0.747934  
     127A     -0.742789   128A     -0.742718   129A     -0.723136  
     130A     -0.719261   131A     -0.710780   132A     -0.709960  
     133A     -0.702316   134A     -0.700629   135A     -0.698946  
     136A     -0.698914   137A     -0.688285   138A     -0.688254  
     139A     -0.678951   140A     -0.676742   141A     -0.676729  
     142A     -0.656984   143A     -0.653739   144A     -0.651070  
     145A     -0.648590   146A     -0.648506   147A     -0.642976  
     148A     -0.640851   149A     -0.640790   150A     -0.633581  
     151A     -0.626339   152A     -0.626216   153A     -0.615921  
     154A     -0.615894   155A     -0.615319   156A     -0.615236  
     157A     -0.608011   158A     -0.603510   159A     -0.603412  
     160A     -0.590103   161A     -0.587735   162A     -0.587719  
     163A     -0.587288   164A     -0.587267   165A     -0.578726  
     166A     -0.578147   167A     -0.571903   168A     -0.571820  
     169A     -0.549106   170A     -0.544671   171A     -0.541990  
     172A     -0.537237   173A     -0.534391   174A     -0.530827  
     175A     -0.530795   176A     -0.520198   177A     -0.520090  
     178A     -0.517936   179A     -0.500666   180A     -0.500539  
     181A     -0.488044   182A     -0.488019   183A     -0.454424  
     184A     -0.454418   185A     -0.453064   186A     -0.424239  
     187A     -0.424234   188A     -0.398380   189A     -0.387888  
     190A     -0.386787   191A     -0.386770   192A     -0.360235  
     193A     -0.346606   194A     -0.334102   195A     -0.334099  
     196A     -0.274126   197A     -0.274118  

    Virtual:                                                              

     198A     -0.062282   199A     -0.055532   200A     -0.048651  
     201A     -0.043041   202A     -0.035276   203A     -0.035142  
     204A     -0.026038   205A     -0.023355   206A     -0.021540  
     207A     -0.019651   208A      0.000447   209A      0.004483  
     210A      0.004857   211A      0.005499   212A      0.006581  
     213A      0.006885   214A      0.008873   215A      0.010376  
     216A      0.010633   217A      0.014317   218A      0.015042  
     219A      0.015157   220A      0.017013   221A      0.021421  
     222A      0.023771   223A      0.024899   224A      0.032712  
     225A      0.032738   226A      0.034575   227A      0.036367  
     228A      0.036919   229A      0.037185   230A      0.039537  
     231A      0.041242   232A      0.041370   233A      0.043617  
     234A      0.048094   235A      0.048153   236A      0.048983  
     237A      0.049342   238A      0.050347   239A      0.056276  
     240A      0.057049   241A      0.058508   242A      0.062655  
     243A      0.067835   244A      0.068762   245A      0.068843  
     246A      0.069368   247A      0.072411   248A      0.075412  
     249A      0.076361   250A      0.076616   251A      0.080939  
     252A      0.082729   253A      0.083727   254A      0.087002  
     255A      0.088423   256A      0.088736   257A      0.089014  
     258A      0.091124   259A      0.091179   260A      0.091460  
     261A      0.092920   262A      0.094809   263A      0.097279  
     264A      0.105249   265A      0.107838   266A      0.108699  
     267A      0.109910   268A      0.110163   269A      0.112704  
     270A      0.114533   271A      0.114843   272A      0.118561  
     273A      0.119476   274A      0.125249   275A      0.125579  
     276A      0.127191   277A      0.129867   278A      0.134445  
     279A      0.134513   280A      0.134950   281A      0.135960  
     282A      0.136229   283A      0.139448   284A      0.139532  
     285A      0.139587   286A      0.141891   287A      0.143574  
     288A      0.144923   289A      0.145098   290A      0.145655  
     291A      0.145836   292A      0.148368   293A      0.152814  
     294A      0.157598   295A      0.159712   296A      0.160085  
     297A      0.160971   298A      0.165320   299A      0.166103  
     300A      0.166203   301A      0.166515   302A      0.167282  
     303A      0.167487   304A      0.167587   305A      0.168950  
     306A      0.171173   307A      0.171568   308A      0.172333  
     309A      0.177820   310A      0.179541   311A      0.182390  
     312A      0.182734   313A      0.182846   314A      0.184301  
     315A      0.185222   316A      0.185761   317A      0.185951  
     318A      0.187175   319A      0.187740   320A      0.188158  
     321A      0.188947   322A      0.193464   323A      0.194882  
     324A      0.195550   325A      0.199668   326A      0.200997  
     327A      0.201134   328A      0.204246   329A      0.205250  
     330A      0.205389   331A      0.207968   332A      0.209524  
     333A      0.209587   334A      0.211574   335A      0.211925  
     336A      0.216955   337A      0.218320   338A      0.220767  
     339A      0.220784   340A      0.221482   341A      0.221679  
     342A      0.221927   343A      0.222081   344A      0.222231  
     345A      0.224714   346A      0.227593   347A      0.227754  
     348A      0.231311   349A      0.236397   350A      0.238683  
     351A      0.240662   352A      0.241823   353A      0.241949  
     354A      0.244015   355A      0.250901   356A      0.251063  
     357A      0.253166   358A      0.254737   359A      0.256287  
     360A      0.256319   361A      0.259149   362A      0.261814  
     363A      0.262440   364A      0.262612   365A      0.262914  
     366A      0.264708   367A      0.264821   368A      0.267427  
     369A      0.267819   370A      0.269348   371A      0.270164  
     372A      0.271689   373A      0.273647   374A      0.274887  
     375A      0.274941   376A      0.275238   377A      0.275791  
     378A      0.276536   379A      0.277164   380A      0.279072  
     381A      0.281025   382A      0.282423   383A      0.283138  
     384A      0.288897   385A      0.292392   386A      0.293146  
     387A      0.296966   388A      0.298439   389A      0.298519  
     390A      0.299296   391A      0.299632   392A      0.300246  
     393A      0.303436   394A      0.303525   395A      0.305585  
     396A      0.309348   397A      0.309432   398A      0.313487  
     399A      0.314234   400A      0.319620   401A      0.321860  
     402A      0.323942   403A      0.325301   404A      0.325713  
     405A      0.325906   406A      0.328871   407A      0.329405  
     408A      0.330196   409A      0.337008   410A      0.337536  
     411A      0.337987   412A      0.343400   413A      0.343817  
     414A      0.343942   415A      0.343970   416A      0.344525  
     417A      0.346584   418A      0.347613   419A      0.348523  
     420A      0.349418   421A      0.351094   422A      0.351402  
     423A      0.354351   424A      0.354606   425A      0.357155  
     426A      0.357425   427A      0.357454   428A      0.358355  
     429A      0.360262   430A      0.360305   431A      0.362618  
     432A      0.362823   433A      0.363657   434A      0.372658  
     435A      0.372815   436A      0.373149   437A      0.375398  
     438A      0.375523   439A      0.379718   440A      0.384821  
     441A      0.388371   442A      0.388493   443A      0.391253  
     444A      0.394144   445A      0.395664   446A      0.395887  
     447A      0.397301   448A      0.397303   449A      0.398006  
     450A      0.402493   451A      0.402822   452A      0.403608  
     453A      0.409212   454A      0.410667   455A      0.411017  
     456A      0.412127   457A      0.412136   458A      0.412337  
     459A      0.414595   460A      0.416525   461A      0.416954  
     462A      0.419990   463A      0.423236   464A      0.423286  
     465A      0.429734   466A      0.433987   467A      0.434196  
     468A      0.434756   469A      0.434925   470A      0.436860  
     471A      0.444899   472A      0.444997   473A      0.445079  
     474A      0.446597   475A      0.446877   476A      0.447498  
     477A      0.449881   478A      0.453945   479A      0.454034  
     480A      0.457279   481A      0.458405   482A      0.464473  
     483A      0.464495   484A      0.465664   485A      0.465784  
     486A      0.470614   487A      0.471231   488A      0.476020  
     489A      0.477704   490A      0.477807   491A      0.478033  
     492A      0.490181   493A      0.491055   494A      0.492028  
     495A      0.495824   496A      0.499424   497A      0.499468  
     498A      0.499686   499A      0.504547   500A      0.504948  
     501A      0.505070   502A      0.506455   503A      0.506736  
     504A      0.506962   505A      0.510738   506A      0.512734  
     507A      0.513205   508A      0.513389   509A      0.520929  
     510A      0.521006   511A      0.537794   512A      0.538044  
     513A      0.547730   514A      0.548523   515A      0.549148  
     516A      0.556799   517A      0.565496   518A      0.565605  
     519A      0.566598   520A      0.573009   521A      0.573176  
     522A      0.578006   523A      0.578056   524A      0.596054  
     525A      0.600778   526A      0.600951   527A      0.605860  
     528A      0.608349   529A      0.618732   530A      0.618758  
     531A      0.621111   532A      0.628793   533A      0.628902  
     534A      0.629046   535A      0.630824   536A      0.650248  
     537A      0.654919   538A      0.665784   539A      0.667406  
     540A      0.667468   541A      0.675575   542A      0.684027  
     543A      0.688406   544A      0.692073   545A      0.693573  
     546A      0.694270   547A      0.694434   548A      0.694583  
     549A      0.696887   550A      0.702179   551A      0.708552  
     552A      0.708666   553A      0.713664   554A      0.714591  
     555A      0.716939   556A      0.723522   557A      0.740845  
     558A      0.742564   559A      0.745677   560A      0.747781  
     561A      0.748654   562A      0.752785   563A      0.756375  
     564A      0.757421   565A      0.757833   566A      0.758750  
     567A      0.764486   568A      0.765768   569A      0.775042  
     570A      0.775877   571A      0.778702   572A      0.779024  
     573A      0.779706   574A      0.781921   575A      0.782649  
     576A      0.786443   577A      0.789347   578A      0.791003  
     579A      0.799565   580A      0.806064   581A      0.806137  
     582A      0.810456   583A      0.816232   584A      0.816327  
     585A      0.819403   586A      0.821915   587A      0.823455  
     588A      0.823985   589A      0.824490   590A      0.825098  
     591A      0.828990   592A      0.829328   593A      0.829552  
     594A      0.838253   595A      0.840172   596A      0.840320  
     597A      0.846984   598A      0.849272   599A      0.849372  
     600A      0.852964   601A      0.853217   602A      0.859255  
     603A      0.859559   604A      0.860662   605A      0.861917  
     606A      0.863021   607A      0.865093   608A      0.866770  
     609A      0.869519   610A      0.873377   611A      0.873534  
     612A      0.879648   613A      0.882632   614A      0.883051  
     615A      0.883310   616A      0.887142   617A      0.887182  
     618A      0.888726   619A      0.893403   620A      0.893555  
     621A      0.896806   622A      0.896941   623A      0.906018  
     624A      0.906704   625A      0.908565   626A      0.908682  
     627A      0.921706   628A      0.921781   629A      0.923022  
     630A      0.923372   631A      0.924651   632A      0.924725  
     633A      0.928373   634A      0.930094   635A      0.931996  
     636A      0.939239   637A      0.939313   638A      0.945039  
     639A      0.946722   640A      0.949741   641A      0.949810  
     642A      0.954380   643A      0.956707   644A      0.966654  
     645A      0.966732   646A      0.966890   647A      0.970008  
     648A      0.970036   649A      0.971015   650A      0.978246  
     651A      0.982347   652A      0.982546   653A      0.985937  
     654A      0.986190   655A      0.988178   656A      0.988270  
     657A      0.991222   658A      0.991277   659A      0.992362  
     660A      0.995846   661A      0.995860   662A      0.996882  
     663A      0.997719   664A      0.998178   665A      1.000474  
     666A      1.004274   667A      1.004695   668A      1.009763  
     669A      1.011199   670A      1.012002   671A      1.012495  
     672A      1.013510   673A      1.019316   674A      1.019570  
     675A      1.022347   676A      1.023653   677A      1.023678  
     678A      1.025398   679A      1.027656   680A      1.030633  
     681A      1.031220   682A      1.034262   683A      1.034624  
     684A      1.035617   685A      1.037625   686A      1.037753  
     687A      1.043927   688A      1.051870   689A      1.055308  
     690A      1.055487   691A      1.056646   692A      1.067118  
     693A      1.067383   694A      1.067680   695A      1.067809  
     696A      1.070931   697A      1.071645   698A      1.073098  
     699A      1.077199   700A      1.077360   701A      1.082875  
     702A      1.086071   703A      1.086164   704A      1.092078  
     705A      1.092130   706A      1.092596   707A      1.094832  
     708A      1.095406   709A      1.101890   710A      1.105552  
     711A      1.109062   712A      1.118304   713A      1.118654  
     714A      1.125394   715A      1.128554   716A      1.128740  
     717A      1.131583   718A      1.134006   719A      1.134073  
     720A      1.135334   721A      1.144435   722A      1.145913  
     723A      1.147367   724A      1.150382   725A      1.150516  
     726A      1.155465   727A      1.161628   728A      1.167942  
     729A      1.169240   730A      1.169256   731A      1.172074  
     732A      1.174227   733A      1.174309   734A      1.187614  
     735A      1.190380   736A      1.190445   737A      1.206734  
     738A      1.208513   739A      1.213280   740A      1.213434  
     741A      1.214123   742A      1.214360   743A      1.216168  
     744A      1.216287   745A      1.220394   746A      1.225491  
     747A      1.228412   748A      1.245619   749A      1.246143  
     750A      1.246539   751A      1.248136   752A      1.248488  
     753A      1.249834   754A      1.258481   755A      1.258873  
     756A      1.260728   757A      1.261181   758A      1.266827  
     759A      1.269803   760A      1.270262   761A      1.272101  
     762A      1.272293   763A      1.276511   764A      1.280901  
     765A      1.281002   766A      1.284024   767A      1.289793  
     768A      1.290846   769A      1.291904   770A      1.294484  
     771A      1.295382   772A      1.305338   773A      1.305342  
     774A      1.308634   775A      1.308858   776A      1.309697  
     777A      1.310076   778A      1.315861   779A      1.315880  
     780A      1.323056   781A      1.332011   782A      1.342377  
     783A      1.348420   784A      1.351547   785A      1.354569  
     786A      1.354761   787A      1.358392   788A      1.358518  
     789A      1.363543   790A      1.363669   791A      1.370641  
     792A      1.372275   793A      1.375762   794A      1.375961  
     795A      1.379394   796A      1.379869   797A      1.379908  
     798A      1.387759   799A      1.387812   800A      1.390486  
     801A      1.390886   802A      1.391086   803A      1.399037  
     804A      1.399100   805A      1.401543   806A      1.413567  
     807A      1.413619   808A      1.422649   809A      1.422889  
     810A      1.427850   811A      1.467655   812A      1.467771  
     813A      1.469433   814A      1.471809   815A      1.471869  
     816A      1.480625   817A      1.483773   818A      1.502951  
     819A      1.509147   820A      1.522573   821A      1.523491  
     822A      1.548047   823A      1.550057   824A      1.550615  
     825A      1.558709   826A      1.558768   827A      1.559678  
     828A      1.562409   829A      1.562601   830A      1.565887  
     831A      1.568552   832A      1.572196   833A      1.572443  
     834A      1.579906   835A      1.580270   836A      1.590808  
     837A      1.590861   838A      1.593918   839A      1.594019  
     840A      1.594112   841A      1.594146   842A      1.600725  
     843A      1.610134   844A      1.611857   845A      1.611915  
     846A      1.618341   847A      1.624671   848A      1.626360  
     849A      1.626387   850A      1.627508   851A      1.627928  
     852A      1.627975   853A      1.632958   854A      1.637280  
     855A      1.637333   856A      1.647086   857A      1.648189  
     858A      1.650510   859A      1.650633   860A      1.651155  
     861A      1.654869   862A      1.654963   863A      1.666439  
     864A      1.666985   865A      1.667049   866A      1.675206  
     867A      1.685826   868A      1.692512   869A      1.693223  
     870A      1.701907   871A      1.711888   872A      1.712068  
     873A      1.712886   874A      1.713141   875A      1.727759  
     876A      1.727779   877A      1.736517   878A      1.742508  
     879A      1.742552   880A      1.751111   881A      1.754147  
     882A      1.761678   883A      1.767251   884A      1.767942  
     885A      1.768124   886A      1.769488   887A      1.775114  
     888A      1.775188   889A      1.781561   890A      1.781681  
     891A      1.784198   892A      1.788013   893A      1.792941  
     894A      1.793151   895A      1.809840   896A      1.811662  
     897A      1.811942   898A      1.812262   899A      1.812430  
     900A      1.814325   901A      1.815376   902A      1.819782  
     903A      1.822069   904A      1.823077   905A      1.830731  
     906A      1.830775   907A      1.846990   908A      1.847105  
     909A      1.849066   910A      1.851157   911A      1.854763  
     912A      1.854859   913A      1.859191   914A      1.859334  
     915A      1.861468   916A      1.865078   917A      1.865311  
     918A      1.868478   919A      1.868616   920A      1.869970  
     921A      1.872818   922A      1.872835   923A      1.872921  
     924A      1.891153   925A      1.892626   926A      1.892991  
     927A      1.893124   928A      1.898458   929A      1.898579  
     930A      1.899193   931A      1.901949   932A      1.904424  
     933A      1.904630   934A      1.904904   935A      1.905115  
     936A      1.908873   937A      1.921584   938A      1.933114  
     939A      1.933197   940A      1.940452   941A      1.948140  
     942A      1.948825   943A      1.949837   944A      1.949849  
     945A      1.955369   946A      1.959870   947A      1.963516  
     948A      1.963647   949A      1.971034   950A      1.977559  
     951A      1.978410   952A      1.980899   953A      1.980987  
     954A      1.981422   955A      1.982194   956A      1.982356  
     957A      1.998922   958A      2.002822   959A      2.003161  
     960A      2.008122   961A      2.008744   962A      2.009247  
     963A      2.009626   964A      2.010741   965A      2.018834  
     966A      2.020584   967A      2.021802   968A      2.022154  
     969A      2.025751   970A      2.025880   971A      2.030725  
     972A      2.034560   973A      2.034767   974A      2.043919  
     975A      2.044679   976A      2.045367   977A      2.047237  
     978A      2.048212   979A      2.051487   980A      2.051623  
     981A      2.056736   982A      2.059145   983A      2.059241  
     984A      2.059428   985A      2.059451   986A      2.060439  
     987A      2.065337   988A      2.070354   989A      2.070548  
     990A      2.070699   991A      2.070874   992A      2.071473  
     993A      2.077275   994A      2.077378   995A      2.084398  
     996A      2.085598   997A      2.087151   998A      2.087248  
     999A      2.089507  1000A      2.094483  1001A      2.094508  
    1002A      2.106576  1003A      2.109889  1004A      2.109945  
    1005A      2.113508  1006A      2.113623  1007A      2.121507  
    1008A      2.129344  1009A      2.129416  1010A      2.140575  
    1011A      2.142242  1012A      2.142539  1013A      2.143145  
    1014A      2.145268  1015A      2.145765  1016A      2.145839  
    1017A      2.146030  1018A      2.148477  1019A      2.161710  
    1020A      2.170669  1021A      2.170704  1022A      2.170749  
    1023A      2.177790  1024A      2.178957  1025A      2.179159  
    1026A      2.179708  1027A      2.195235  1028A      2.195637  
    1029A      2.195735  1030A      2.195963  1031A      2.198905  
    1032A      2.204388  1033A      2.211908  1034A      2.211990  
    1035A      2.221343  1036A      2.221373  1037A      2.223563  
    1038A      2.223609  1039A      2.228232  1040A      2.233212  
    1041A      2.251584  1042A      2.251706  1043A      2.258056  
    1044A      2.260894  1045A      2.262752  1046A      2.270086  
    1047A      2.272863  1048A      2.281098  1049A      2.281181  
    1050A      2.281556  1051A      2.284284  1052A      2.298649  
    1053A      2.301248  1054A      2.301892  1055A      2.303446  
    1056A      2.303484  1057A      2.316811  1058A      2.316930  
    1059A      2.324580  1060A      2.324993  1061A      2.330570  
    1062A      2.337203  1063A      2.367315  1064A      2.374886  
    1065A      2.375398  1066A      2.375493  1067A      2.387865  
    1068A      2.391763  1069A      2.391808  1070A      2.420711  
    1071A      2.423779  1072A      2.424092  1073A      2.436458  
    1074A      2.436576  1075A      2.444641  1076A      2.453345  
    1077A      2.461864  1078A      2.470568  1079A      2.480707  
    1080A      2.480757  1081A      2.494919  1082A      2.496659  
    1083A      2.496789  1084A      2.501073  1085A      2.505143  
    1086A      2.506117  1087A      2.506151  1088A      2.510863  
    1089A      2.510907  1090A      2.523865  1091A      2.523901  
    1092A      2.526568  1093A      2.527092  1094A      2.537562  
    1095A      2.537668  1096A      2.537975  1097A      2.540844  
    1098A      2.543472  1099A      2.557313  1100A      2.574549  
    1101A      2.574911  1102A      2.575056  1103A      2.575844  
    1104A      2.581970  1105A      2.582502  1106A      2.592683  
    1107A      2.592752  1108A      2.602452  1109A      2.602780  
    1110A      2.606621  1111A      2.608205  1112A      2.632467  
    1113A      2.633625  1114A      2.635289  1115A      2.637168  
    1116A      2.638688  1117A      2.652092  1118A      2.652399  
    1119A      2.662426  1120A      2.663572  1121A      2.663672  
    1122A      2.669341  1123A      2.669453  1124A      2.673280  
    1125A      2.673505  1126A      2.674469  1127A      2.679133  
    1128A      2.687582  1129A      2.689053  1130A      2.703416  
    1131A      2.703745  1132A      2.707170  1133A      2.727271  
    1134A      2.738742  1135A      2.744926  1136A      2.745138  
    1137A      2.749294  1138A      2.765829  1139A      2.777556  
    1140A      2.778396  1141A      2.789014  1142A      2.802026  
    1143A      2.802280  1144A      2.806098  1145A      2.808420  
    1146A      2.809837  1147A      2.809913  1148A      2.818090  
    1149A      2.868218  1150A      2.868285  1151A      2.874945  
    1152A      2.884977  1153A      2.885033  1154A      2.900784  
    1155A      2.900805  1156A      2.914188  1157A      2.919051  
    1158A      2.956965  1159A      2.957203  1160A      2.963791  
    1161A      2.977580  1162A      2.980932  1163A      3.014504  
    1164A      3.014521  1165A      3.021198  1166A      3.021283  
    1167A      3.047343  1168A      3.060760  1169A      3.061525  
    1170A      3.066187  1171A      3.078847  1172A      3.080694  
    1173A      3.080857  1174A      3.088798  1175A      3.097305  
    1176A      3.097500  1177A      3.097567  1178A      3.100297  
    1179A      3.100317  1180A      3.108866  1181A      3.109304  
    1182A      3.116773  1183A      3.117289  1184A      3.143306  
    1185A      3.162864  1186A      3.168892  1187A      3.188374  
    1188A      3.222119  1189A      3.227787  1190A      3.227896  
    1191A      3.232480  1192A      3.232732  1193A      3.366633  
    1194A      3.367106  1195A      3.391490  1196A      3.431507  
    1197A      3.434080  1198A      3.440973  1199A      3.499016  
    1200A      3.527047  1201A      3.528794  1202A      3.529229  
    1203A      3.543931  1204A      3.577273  1205A      3.579290  
    1206A      3.613579  1207A      3.617864  1208A      3.719854  
    1209A      3.732975  1210A      3.733883  1211A      3.821947  
    1212A      3.822025  1213A      3.864047  1214A      3.864209  
    1215A      3.927349  1216A      3.961243  1217A      3.982115  
    1218A      3.993982  1219A      4.030012  

    Final Occupation by Irrep:
              A 
    DOCC [   197 ]
    NA   [   197 ]
    NB   [   197 ]

  @DF-RHF Final Energy: -2359.19450626667413

   => Energetics <=

    Nuclear Repulsion Energy =           7668.4157037417244283
    One-Electron Energy =              -18444.9914611043423065
    Two-Electron Energy =                8417.3812510959432984
    Total Energy =                      -2359.1945062666745798

Computation Completed


Properties will be evaluated at   0.000000,   0.000000,   0.000000 [a0]

Properties computed using the SCF density matrix


 Multipole Moments:

 ------------------------------------------------------------------------------------
     Multipole            Electronic (a.u.)      Nuclear  (a.u.)        Total (a.u.)
 ------------------------------------------------------------------------------------

 L = 1.  Multiply by 2.5417464519 to convert [e a0] to [Debye]
 Dipole X            :         -0.0009640            0.0006313           -0.0003327
 Dipole Y            :         -0.0478110            0.0560211            0.0082101
 Dipole Z            :         32.6590730          -47.1123246          -14.4532515
 Magnitude           :                                                   14.4532539

 ------------------------------------------------------------------------------------

*** tstop() called on d-16-7-4 at Mon Jan 22 20:10:29 2024
Module time:
	user time   =    4081.45 seconds =      68.02 minutes
	system time =      94.84 seconds =       1.58 minutes
	total time  =        477 seconds =       7.95 minutes
Total time:
	user time   =    4081.45 seconds =      68.02 minutes
	system time =      94.84 seconds =       1.58 minutes
	total time  =        477 seconds =       7.95 minutes

  //>>>>>>>>>>>>>>>>>>>>>>>>>>>>>>>>>>>//
  //            Monomer A HF           //
  //<<<<<<<<<<<<<<<<<<<<<<<<<<<<<<<<<<<//

   => Libint2 <=

    Primary   basis highest AM E, G, H:  7, 7, 4
    Auxiliary basis highest AM E, G, H:  7, 7, 5
    Onebody   basis highest AM E, G, H:  7, 7, 5
    Solid Harmonics ordering:            gaussian

*** tstart() called on d-16-7-4
*** at Mon Jan 22 20:10:29 2024

   => Loading Basis Set <=

    Name: JUN-CC-PVDZ
    Role: ORBITAL
    Keyword: BASIS
    atoms 1-2, 4-5, 10, 17-70 entry C          line   164 file /home/gridsan/tfroembgen/.conda/envs/psi4test/share/psi4/basis/jun-cc-pvdz.gbs 
    atoms 3, 6                entry N          line   198 file /home/gridsan/tfroembgen/.conda/envs/psi4test/share/psi4/basis/jun-cc-pvdz.gbs 
    atoms 7-9, 11-16, 71-88   entry H          line    36 file /home/gridsan/tfroembgen/.conda/envs/psi4test/share/psi4/basis/jun-cc-pvdz.gbs 


         ---------------------------------------------------------
                                   SCF
               by Justin Turney, Rob Parrish, Andy Simmonett
                          and Daniel G. A. Smith
                              RHF Reference
                       12 Threads,  30517 MiB Core
         ---------------------------------------------------------

  ==> Geometry <==

    Molecular point group: c1
    Full point group: C1

    Geometry (in Angstrom), charge = 1, multiplicity = 1:

       Center              X                  Y                   Z               Mass       
    ------------   -----------------  -----------------  -----------------  -----------------
         C            0.680066520158    -0.008042372515    -9.420308946626    12.000000000000
         C           -0.680504479842    -0.006014372515    -9.419924946626    12.000000000000
         N           -1.085635479842    -0.005016372515    -8.101600946626    14.003074004430
         C            0.000107520158    -0.001740372515    -7.320199946626    12.000000000000
         C           -2.477365479842     0.044389627485    -7.633621946626    12.000000000000
         N            1.085221520158    -0.005016372515    -8.101600946626    14.003074004430
         H            1.385145520158    -0.015870372515   -10.237747946626     1.007825032230
         H           -1.385302479842    -0.006204372515   -10.237593946626     1.007825032230
         H           -0.000009479842     0.000006627485    -6.239110946626     1.007825032230
         C            2.478116520158    -0.021908372515    -7.636502946626    12.000000000000
         H            2.490591520158     0.005436627485    -6.546249946626     1.007825032230
         H            2.967027520158    -0.935354372515    -7.983678946626     1.007825032230
         H            3.001427520158     0.853574627485    -8.027974946626     1.007825032230
         H           -2.857359479842     1.066460627485    -7.713580946626     1.007825032230
         H           -3.082679479842    -0.625694372515    -8.246685946626     1.007825032230
         H           -2.518128479842    -0.282594372515    -6.593673946626     1.007825032230
      Gh(C)           1.225311895423     0.707538288405     1.201757680658    12.000000000000
      Gh(C)           1.225323856051    -0.707538895085     1.189426871088    12.000000000000
      Gh(C)          -0.000006153932     1.414965913575     1.188893247567    12.000000000000
      Gh(C)           2.456448753949     1.418327886663     1.204644538058    12.000000000000
      Gh(C)           0.000010827279    -1.414976499150     1.199092804891    12.000000000000
      Gh(C)          -1.225300948908     0.707545373469     1.204009200980    12.000000000000
      Gh(C)           2.456437755320    -1.418323304396     1.187181714231    12.000000000000
      Gh(C)          -0.000001332978     2.836801030766     1.186489697433    12.000000000000
      Gh(C)           3.681826697470     0.709317955486     1.187530504029    12.000000000000
      Gh(C)           2.455120048865     2.834223660974     1.187427947068    12.000000000000
      Gh(C)           3.681821105219    -0.709333839944     1.203602988047    12.000000000000
      Gh(C)          -1.225313598688    -0.707527516059     1.190499632515    12.000000000000
      Gh(C)           1.226699581202     3.543469483479     1.203787019978    12.000000000000
      Gh(C)           0.000004784858    -2.836782139751     1.203940972513    12.000000000000
      Gh(C)          -2.456436032848     1.418316917770     1.204044596826    12.000000000000
      Gh(C)           2.455123417779    -2.834230029103     1.203451079679    12.000000000000
      Gh(C)          -1.226714364589     3.543469063235     1.203890353197    12.000000000000
      Gh(C)           4.914517295202     1.427172871975     1.194011187058    12.000000000000
      Gh(C)           3.693150191476     3.542795292030     1.194060986694    12.000000000000
      Gh(C)          -2.456437600068    -1.418313281354     1.187156676106    12.000000000000
      Gh(C)           1.226704841943    -3.543474242421     1.187816889228    12.000000000000
      Gh(C)          -2.455125398508     2.834216662119     1.187434323414    12.000000000000
      Gh(C)           4.914524380782    -1.427186910459     1.196983929793    12.000000000000
      Gh(C)           1.221424613699     4.970134064745     1.197122364052    12.000000000000
      Gh(C)           4.893008229321     2.825187999512     1.195227855417    12.000000000000
      Gh(C)          -1.226697008489    -3.543470997592     1.188084093637    12.000000000000
      Gh(C)          -3.681818976526     0.709324966217     1.187543184509    12.000000000000
      Gh(C)           3.693147101150    -3.542801341905     1.197101820353    12.000000000000
      Gh(C)          -1.221432251994     4.970128297348     1.197305859425    12.000000000000
      Gh(C)           6.134770972926     0.680547946591     1.194780961608    12.000000000000
      Gh(C)           3.656788880610     4.972953243053     1.194969624477    12.000000000000
      Gh(C)          -2.455126907733    -2.834215093576     1.203206721881    12.000000000000
      Gh(C)          -3.681819179061    -0.709325703983     1.203720609626    12.000000000000
      Gh(C)           4.893012617914    -2.825200106147     1.195839007312    12.000000000000
      Gh(C)          -0.000001073113     5.650447365518     1.196074550718    12.000000000000
      Gh(C)           6.134775112332    -0.680554854590     1.196046282124    12.000000000000
      Gh(C)           2.478131482856     5.653576750817     1.196258404127    12.000000000000
      Gh(C)           1.221422404738    -4.970127055448     1.194322867030    12.000000000000
      Gh(C)          -3.693162383965     3.542796953677     1.194226494154    12.000000000000
      Gh(C)          -1.221428520945    -4.970118304111     1.194210105197    12.000000000000
      Gh(C)          -4.914521807942     1.427175446480     1.194088132066    12.000000000000
      Gh(C)           3.656787019679    -4.972955226754     1.196420125011    12.000000000000
      Gh(C)          -2.478138530106     5.653574422014     1.196542929135    12.000000000000
      Gh(C)          -3.693141738564    -3.542790219494     1.196985694198    12.000000000000
      Gh(C)          -4.914512483053    -1.427181000542     1.197018626966    12.000000000000
      Gh(C)          -0.000006008926    -5.650438287528     1.195679046597    12.000000000000
      Gh(C)          -4.893020484101     2.825188598404     1.195217773557    12.000000000000
      Gh(C)           2.478125993298    -5.653573544403     1.195329524219    12.000000000000
      Gh(C)          -3.656798710258     4.972956181527     1.195146304851    12.000000000000
      Gh(C)          -4.892999478856    -2.825191767575     1.195684971615    12.000000000000
      Gh(C)          -2.478128498083    -5.653566170521     1.195054336571    12.000000000000
      Gh(C)          -6.134770503331     0.680548765741     1.194755409906    12.000000000000
      Gh(C)          -3.656788833189    -4.972944023485     1.196205837194    12.000000000000
      Gh(C)          -6.134765042913    -0.680553915997     1.196025806329    12.000000000000
      Gh(H)           5.835288495816     3.369275894439     1.199587181080     1.007825032230
      Gh(H)           7.073859172747     1.228217248385     1.195242605001     1.007825032230
      Gh(H)           4.600663264174     5.512380801938     1.195474825229     1.007825032230
      Gh(H)           5.835283387305    -3.369306057244     1.191384539998     1.007825032230
      Gh(H)          -0.000012151306     6.738530673622     1.191725305710     1.007825032230
      Gh(H)           7.073861171831    -1.228226943259     1.195537544029     1.007825032230
      Gh(H)           2.473313731799     6.740684290880     1.195791683196     1.007825032230
      Gh(H)           4.600668491381    -5.512376129691     1.196010127843     1.007825032230
      Gh(H)          -2.473318680537     6.740681719092     1.196093029821     1.007825032230
      Gh(H)          -0.000010268228    -6.738528176967     1.200208731582     1.007825032230
      Gh(H)          -5.835301914343     3.369270949781     1.199723203228     1.007825032230
      Gh(H)           2.473307923831    -6.740685374944     1.195899854644     1.007825032230
      Gh(H)          -4.600674841208     5.512378026089     1.195640153553     1.007825032230
      Gh(H)          -5.835279506835    -3.369288964294     1.191105234117     1.007825032230
      Gh(H)          -2.473300347440    -6.740679078655     1.195450538099     1.007825032230
      Gh(H)          -7.073857766768     1.228220472326     1.195158613520     1.007825032230
      Gh(H)          -4.600673786085    -5.512362670301     1.195837819820     1.007825032230
      Gh(H)          -7.073856934409    -1.228220632492     1.195442687563     1.007825032230

  Running in c1 symmetry.

  Rotational constants: A =      0.00111  B =      0.00109  C =      0.00109 [cm^-1]
  Rotational constants: A =     33.33024  B =     32.81238  C =     32.71080 [MHz]
  Nuclear repulsion =  306.774908447733083

  Charge       = 1
  Multiplicity = 1
  Electrons    = 52
  Nalpha       = 26
  Nbeta        = 26

  ==> Algorithm <==

  SCF Algorithm Type is DF.
  DIIS enabled.
  MOM disabled.
  Fractional occupation disabled.
  Guess Type is SAD.
  Energy threshold   = 1.00e-08
  Density threshold  = 1.00e-08
  Integral threshold = 1.00e-12

  ==> Primary Basis <==

  Basis Set: JUN-CC-PVDZ
    Blend: JUN-CC-PVDZ
    Number of shells: 569
    Number of basis functions: 1233
    Number of Cartesian functions: 1294
    Spherical Harmonics?: true
    Max angular momentum: 2

   => Loading Basis Set <=

    Name: (JUN-CC-PVDZ AUX)
    Role: JKFIT
    Keyword: DF_BASIS_SCF
    atoms 1-2, 4-5, 10, 17-70 entry C          line   146 file /home/gridsan/tfroembgen/.conda/envs/psi4test/share/psi4/basis/jun-cc-pvdz-jkfit.gbs 
    atoms 3, 6                entry N          line   202 file /home/gridsan/tfroembgen/.conda/envs/psi4test/share/psi4/basis/jun-cc-pvdz-jkfit.gbs 
    atoms 7-9, 11-16, 71-88   entry H          line    70 file /home/gridsan/tfroembgen/.conda/envs/psi4test/share/psi4/basis/jun-cc-pvdz-jkfit.gbs 

  ==> Integral Setup <==

  ==> DiskDFJK: Density-Fitted J/K Matrices <==

    J tasked:                  Yes
    K tasked:                  Yes
    wK tasked:                  No
    OpenMP threads:             12
    Integrals threads:          12
    Memory [MiB]:            22888
    Algorithm:                Core
    Integral Cache:           LOAD
    Schwarz Cutoff:          1E-12
    Fitting Condition:       1E-10

   => Auxiliary Basis Set <=

  Basis Set: (JUN-CC-PVDZ AUX)
    Blend: JUN-CC-PVDZ-JKFIT
    Number of shells: 1890
    Number of basis functions: 5440
    Number of Cartesian functions: 6226
    Spherical Harmonics?: true
    Max angular momentum: 3

  Minimum eigenvalue in the overlap matrix is 8.3997562418E-10.
  Reciprocal condition number of the overlap matrix is 3.7579220229E-11.
    Using canonical orthogonalization.
  Overall, 14 of 1233 possible MOs eliminated.


  ==> Pre-Iterations <==

  SCF Guess: Superposition of Atomic Densities via on-the-fly atomic UHF (no occupation information).

   -------------------------
    Irrep   Nso     Nmo    
   -------------------------
     A       1233    1219 
   -------------------------
    Total    1233    1219
   -------------------------

  ==> Iterations <==

                           Total Energy        Delta E     RMS |[F,P]|

   @DF-RHF iter SAD:  -303.36533874449316   -3.03365e+02   0.00000e+00 
   @DF-RHF iter   1:  -303.16938904014569    1.95950e-01   3.43997e-04 DIIS/ADIIS
   @DF-RHF iter   2:  -303.28371280462085   -1.14324e-01   1.15846e-04 DIIS/ADIIS
   @DF-RHF iter   3:  -303.29515487809272   -1.14421e-02   4.53079e-05 DIIS
   @DF-RHF iter   4:  -303.29705503801637   -1.90016e-03   9.88579e-06 DIIS
   @DF-RHF iter   5:  -303.29716036543641   -1.05327e-04   2.40965e-06 DIIS
   @DF-RHF iter   6:  -303.29716960409280   -9.23866e-06   6.54119e-07 DIIS
   @DF-RHF iter   7:  -303.29717067587382   -1.07178e-06   3.31915e-07 DIIS
   @DF-RHF iter   8:  -303.29717092784534   -2.51972e-07   1.33511e-07 DIIS
   @DF-RHF iter   9:  -303.29717097617583   -4.83305e-08   3.37097e-08 DIIS
   @DF-RHF iter  10:  -303.29717097900044   -2.82461e-09   1.26808e-08 DIIS
   @DF-RHF iter  11:  -303.29717097924760   -2.47155e-10   2.99368e-09 DIIS
  Energy and wave function converged.


  ==> Post-Iterations <==

    Orbital Energies [Eh]
    ---------------------

    Doubly Occupied:                                                      

       1A    -15.834670     2A    -15.834138     3A    -11.529560  
       4A    -11.459861     5A    -11.458306     6A    -11.449669  
       7A    -11.449555     8A     -1.578243     9A     -1.433832  
      10A     -1.238674    11A     -1.189314    12A     -1.118870  
      13A     -1.022542    14A     -0.996974    15A     -0.917052  
      16A     -0.850526    17A     -0.816264    18A     -0.813212  
      19A     -0.790137    20A     -0.786229    21A     -0.781781  
      22A     -0.729707    23A     -0.725786    24A     -0.717098  
      25A     -0.596308    26A     -0.523864  

    Virtual:                                                              

      27A     -0.069353    28A     -0.066159    29A     -0.055335  
      30A     -0.050144    31A     -0.033490    32A     -0.031247  
      33A     -0.030863    34A     -0.029406    35A     -0.024334  
      36A     -0.023520    37A     -0.020154    38A     -0.010635  
      39A     -0.010518    40A     -0.006256    41A     -0.005026  
      42A     -0.002342    43A      0.001639    44A      0.003465  
      45A      0.005179    46A      0.005664    47A      0.006140  
      48A      0.009790    49A      0.011138    50A      0.013906  
      51A      0.019561    52A      0.024418    53A      0.024482  
      54A      0.025186    55A      0.029807    56A      0.031274  
      57A      0.032192    58A      0.034514    59A      0.035854  
      60A      0.041082    61A      0.041489    62A      0.044683  
      63A      0.044764    64A      0.045104    65A      0.053282  
      66A      0.055072    67A      0.056005    68A      0.060519  
      69A      0.061115    70A      0.063227    71A      0.063464  
      72A      0.067437    73A      0.068623    74A      0.069180  
      75A      0.070946    76A      0.072508    77A      0.073210  
      78A      0.073438    79A      0.076409    80A      0.077794  
      81A      0.079645    82A      0.080278    83A      0.082403  
      84A      0.087711    85A      0.088024    86A      0.088446  
      87A      0.090492    88A      0.091321    89A      0.092413  
      90A      0.094131    91A      0.095730    92A      0.095876  
      93A      0.097703    94A      0.100710    95A      0.100738  
      96A      0.102528    97A      0.105982    98A      0.107110  
      99A      0.107320   100A      0.107563   101A      0.109003  
     102A      0.112599   103A      0.115332   104A      0.115459  
     105A      0.122789   106A      0.122813   107A      0.125430  
     108A      0.125571   109A      0.126777   110A      0.128196  
     111A      0.129037   112A      0.131129   113A      0.131448  
     114A      0.132141   115A      0.133327   116A      0.133422  
     117A      0.133714   118A      0.134575   119A      0.138239  
     120A      0.138905   121A      0.140842   122A      0.142611  
     123A      0.148073   124A      0.148612   125A      0.148722  
     126A      0.149674   127A      0.149994   128A      0.153679  
     129A      0.154580   130A      0.157111   131A      0.157245  
     132A      0.158790   133A      0.160171   134A      0.160408  
     135A      0.160465   136A      0.161386   137A      0.165846  
     138A      0.174443   139A      0.174448   140A      0.174697  
     141A      0.175927   142A      0.176035   143A      0.178347  
     144A      0.178416   145A      0.178620   146A      0.180688  
     147A      0.185125   148A      0.185340   149A      0.187221  
     150A      0.189584   151A      0.189974   152A      0.190285  
     153A      0.192136   154A      0.192205   155A      0.192587  
     156A      0.192878   157A      0.193595   158A      0.193754  
     159A      0.194919   160A      0.199760   161A      0.201073  
     162A      0.203176   163A      0.203377   164A      0.205550  
     165A      0.205778   166A      0.206558   167A      0.221257  
     168A      0.221591   169A      0.222022   170A      0.223900  
     171A      0.227766   172A      0.227843   173A      0.227847  
     174A      0.228000   175A      0.230361   176A      0.230426  
     177A      0.234130   178A      0.234328   179A      0.235091  
     180A      0.235562   181A      0.237759   182A      0.238439  
     183A      0.238582   184A      0.238648   185A      0.239995  
     186A      0.240041   187A      0.248384   188A      0.250296  
     189A      0.250559   190A      0.250687   191A      0.253045  
     192A      0.256179   193A      0.259981   194A      0.262846  
     195A      0.263116   196A      0.267589   197A      0.267967  
     198A      0.268127   199A      0.269299   200A      0.273633  
     201A      0.277701   202A      0.277957   203A      0.280362  
     204A      0.280773   205A      0.281135   206A      0.281865  
     207A      0.283796   208A      0.297227   209A      0.297473  
     210A      0.297908   211A      0.298235   212A      0.298342  
     213A      0.299130   214A      0.301894   215A      0.304626  
     216A      0.305178   217A      0.307810   218A      0.307920  
     219A      0.312458   220A      0.313604   221A      0.315244  
     222A      0.315341   223A      0.317742   224A      0.318864  
     225A      0.319155   226A      0.321419   227A      0.321937  
     228A      0.325931   229A      0.325997   230A      0.326595  
     231A      0.326911   232A      0.330875   233A      0.331031  
     234A      0.338311   235A      0.338766   236A      0.339409  
     237A      0.343912   238A      0.351913   239A      0.352909  
     240A      0.354558   241A      0.355358   242A      0.355755  
     243A      0.356123   244A      0.362001   245A      0.371294  
     246A      0.371372   247A      0.373180   248A      0.374211  
     249A      0.374274   250A      0.376782   251A      0.379711  
     252A      0.380112   253A      0.382182   254A      0.382209  
     255A      0.382756   256A      0.384232   257A      0.384617  
     258A      0.386111   259A      0.386958   260A      0.393849  
     261A      0.396867   262A      0.397009   263A      0.398510  
     264A      0.400036   265A      0.404933   266A      0.405069  
     267A      0.405933   268A      0.406168   269A      0.407298  
     270A      0.408861   271A      0.410711   272A      0.414573  
     273A      0.417856   274A      0.419072   275A      0.419174  
     276A      0.423145   277A      0.424624   278A      0.424744  
     279A      0.427911   280A      0.428010   281A      0.431380  
     282A      0.434686   283A      0.435507   284A      0.436624  
     285A      0.438221   286A      0.438390   287A      0.438472  
     288A      0.439089   289A      0.443303   290A      0.445133  
     291A      0.445157   292A      0.447613   293A      0.450615  
     294A      0.457191   295A      0.457232   296A      0.457908  
     297A      0.460458   298A      0.467991   299A      0.468022  
     300A      0.472954   301A      0.474991   302A      0.477059  
     303A      0.477556   304A      0.478035   305A      0.481155  
     306A      0.481204   307A      0.481932   308A      0.484538  
     309A      0.492594   310A      0.493163   311A      0.493903  
     312A      0.495157   313A      0.496496   314A      0.496552  
     315A      0.498399   316A      0.505023   317A      0.508447  
     318A      0.514987   319A      0.515127   320A      0.517530  
     321A      0.524167   322A      0.524233   323A      0.526525  
     324A      0.526731   325A      0.527487   326A      0.528742  
     327A      0.530589   328A      0.530689   329A      0.535944  
     330A      0.548743   331A      0.548872   332A      0.549904  
     333A      0.549985   334A      0.551244   335A      0.551360  
     336A      0.560180   337A      0.560448   338A      0.560680  
     339A      0.566800   340A      0.566945   341A      0.567902  
     342A      0.570367   343A      0.570544   344A      0.571179  
     345A      0.582630   346A      0.582726   347A      0.583352  
     348A      0.590264   349A      0.590270   350A      0.595939  
     351A      0.596199   352A      0.596463   353A      0.597754  
     354A      0.604173   355A      0.608009   356A      0.611864  
     357A      0.613242   358A      0.622719   359A      0.624383  
     360A      0.625856   361A      0.628685   362A      0.628830  
     363A      0.629728   364A      0.629799   365A      0.633530  
     366A      0.640513   367A      0.640681   368A      0.642140  
     369A      0.642277   370A      0.644318   371A      0.648143  
     372A      0.648250   373A      0.652438   374A      0.654022  
     375A      0.654082   376A      0.655352   377A      0.657541  
     378A      0.657694   379A      0.657920   380A      0.658163  
     381A      0.661773   382A      0.672845   383A      0.673164  
     384A      0.673365   385A      0.674507   386A      0.674651  
     387A      0.682979   388A      0.690278   389A      0.691062  
     390A      0.696394   391A      0.698527   392A      0.698754  
     393A      0.708844   394A      0.710673   395A      0.710950  
     396A      0.712522   397A      0.715529   398A      0.715827  
     399A      0.716675   400A      0.716733   401A      0.717818  
     402A      0.718667   403A      0.718738   404A      0.724121  
     405A      0.724600   406A      0.724974   407A      0.727441  
     408A      0.727804   409A      0.729115   410A      0.735506  
     411A      0.738569   412A      0.738692   413A      0.740925  
     414A      0.742291   415A      0.746293   416A      0.746315  
     417A      0.747215   418A      0.748354   419A      0.754407  
     420A      0.756098   421A      0.756289   422A      0.756823  
     423A      0.765674   424A      0.776438   425A      0.781509  
     426A      0.794480   427A      0.794648   428A      0.799295  
     429A      0.799380   430A      0.810927   431A      0.811215  
     432A      0.813632   433A      0.816462   434A      0.820408  
     435A      0.831258   436A      0.831262   437A      0.836462  
     438A      0.836587   439A      0.839173   440A      0.841692  
     441A      0.847236   442A      0.848830   443A      0.848919  
     444A      0.855809   445A      0.867515   446A      0.875368  
     447A      0.875394   448A      0.882875   449A      0.898312  
     450A      0.900493   451A      0.910048   452A      0.910084  
     453A      0.918703   454A      0.918731   455A      0.927746  
     456A      0.940196   457A      0.941080   458A      0.948278  
     459A      0.949275   460A      0.949351   461A      0.953593  
     462A      0.959766   463A      0.964939   464A      0.973158  
     465A      0.978260   466A      0.978423   467A      0.994053  
     468A      0.994219   469A      1.009208   470A      1.015522  
     471A      1.015576   472A      1.017778   473A      1.018629  
     474A      1.018734   475A      1.029932   476A      1.047434  
     477A      1.052587   478A      1.052776   479A      1.055736  
     480A      1.064965   481A      1.095314   482A      1.102600  
     483A      1.105156   484A      1.105185   485A      1.111462  
     486A      1.111550   487A      1.125141   488A      1.125332  
     489A      1.126114   490A      1.132853   491A      1.132994  
     492A      1.138194   493A      1.146908   494A      1.146923  
     495A      1.149462   496A      1.153187   497A      1.161256  
     498A      1.170194   499A      1.170252   500A      1.177986  
     501A      1.180037   502A      1.238339   503A      1.246156  
     504A      1.246206   505A      1.251975   506A      1.256370  
     507A      1.256487   508A      1.260517   509A      1.270437  
     510A      1.271967   511A      1.272124   512A      1.277632  
     513A      1.279689   514A      1.314009   515A      1.316989  
     516A      1.320856   517A      1.320940   518A      1.344598  
     519A      1.370762   520A      1.393075   521A      1.393540  
     522A      1.411925   523A      1.412080   524A      1.413532  
     525A      1.417262   526A      1.417501   527A      1.420247  
     528A      1.421372   529A      1.432649   530A      1.433445  
     531A      1.462614   532A      1.477516   533A      1.494111  
     534A      1.502740   535A      1.505046   536A      1.505272  
     537A      1.507335   538A      1.508578   539A      1.515847  
     540A      1.518578   541A      1.561688   542A      1.571652  
     543A      1.585542   544A      1.588517   545A      1.597427  
     546A      1.600776   547A      1.603560   548A      1.609285  
     549A      1.610955   550A      1.612313   551A      1.618062  
     552A      1.632496   553A      1.633324   554A      1.634193  
     555A      1.641784   556A      1.648897   557A      1.659602  
     558A      1.668514   559A      1.679496   560A      1.685340  
     561A      1.695445   562A      1.696502   563A      1.696585  
     564A      1.698016   565A      1.699416   566A      1.702392  
     567A      1.708403   568A      1.708901   569A      1.711210  
     570A      1.713480   571A      1.718623   572A      1.729102  
     573A      1.736711   574A      1.740375   575A      1.740890  
     576A      1.742975   577A      1.744494   578A      1.746247  
     579A      1.748044   580A      1.749214   581A      1.754554  
     582A      1.756135   583A      1.761114   584A      1.773997  
     585A      1.774821   586A      1.778899   587A      1.779613  
     588A      1.779815   589A      1.779895   590A      1.783306  
     591A      1.783583   592A      1.790444   593A      1.790791  
     594A      1.791032   595A      1.791053   596A      1.793421  
     597A      1.804267   598A      1.806546   599A      1.808543  
     600A      1.810778   601A      1.811200   602A      1.816166  
     603A      1.824512   604A      1.825626   605A      1.826523  
     606A      1.830793   607A      1.835162   608A      1.836521  
     609A      1.838071   610A      1.842067   611A      1.842531  
     612A      1.843035   613A      1.854040   614A      1.855009  
[...]
     790A      1.643507   791A      1.643538   792A      1.643614  
     793A      1.643912   794A      1.649624   795A      1.660897  
     796A      1.660949   797A      1.661774   798A      1.667393  
     799A      1.671601   800A      1.676249   801A      1.676334  
     802A      1.676731   803A      1.676740   804A      1.677008  
     805A      1.683301   806A      1.686596   807A      1.686649  
     808A      1.696032   809A      1.697220   810A      1.699329  
     811A      1.699366   812A      1.700670   813A      1.704737  
     814A      1.704808   815A      1.715712   816A      1.715729  
     817A      1.741671   818A      1.751381   819A      1.754133  
     820A      1.760239   821A      1.760275   822A      1.761059  
     823A      1.761724   824A      1.776713   825A      1.776746  
     826A      1.782218   827A      1.791455   828A      1.791483  
     829A      1.795050   830A      1.798132   831A      1.801539  
     832A      1.816509   833A      1.816537   834A      1.816650  
     835A      1.818008   836A      1.824635   837A      1.824740  
     838A      1.830532   839A      1.830764   840A      1.831609  
     841A      1.836651   842A      1.842394   843A      1.842668  
     844A      1.853948   845A      1.860567   846A      1.860700  
     847A      1.860760   848A      1.860791   849A      1.864031  
     850A      1.868608   851A      1.872125   852A      1.880133  
     853A      1.880209   854A      1.887643   855A      1.895256  
     856A      1.896089   857A      1.896216   858A      1.899358  
     859A      1.902926   860A      1.903062   861A      1.908514  
     862A      1.908666   863A      1.912468   864A      1.913791  
     865A      1.914021   866A      1.917630   867A      1.917785  
     868A      1.919222   869A      1.921949   870A      1.922046  
     871A      1.940453   872A      1.941007   873A      1.941486  
     874A      1.941700   875A      1.941900   876A      1.946377  
     877A      1.946416   878A      1.953870   879A      1.953980  
     880A      1.954186   881A      1.954321   882A      1.957981  
     883A      1.969923   884A      1.982763   885A      1.982832  
     886A      1.989362   887A      1.991394   888A      1.997090  
     889A      1.998509   890A      1.998529   891A      2.003670  
     892A      2.007999   893A      2.012224   894A      2.012380  
     895A      2.014264   896A      2.026431   897A      2.027812  
     898A      2.029904   899A      2.030008   900A      2.030241  
     901A      2.030687   902A      2.031201   903A      2.031324  
     904A      2.036084   905A      2.045934   906A      2.047945  
     907A      2.051717   908A      2.052029   909A      2.055188  
     910A      2.057314   911A      2.058129   912A      2.058791  
     913A      2.059721   914A      2.068186   915A      2.069913  
     916A      2.071095   917A      2.071431   918A      2.075204  
     919A      2.075301   920A      2.079942   921A      2.080904  
     922A      2.084027   923A      2.084345   924A      2.084702  
     925A      2.092701   926A      2.093729   927A      2.095256  
     928A      2.096842   929A      2.100440   930A      2.100494  
     931A      2.105150   932A      2.107697   933A      2.108177  
     934A      2.108248   935A      2.108983   936A      2.109010  
     937A      2.110410   938A      2.114046   939A      2.119123  
     940A      2.119182   941A      2.120149   942A      2.120211  
     943A      2.121446   944A      2.125806   945A      2.126008  
     946A      2.129912   947A      2.133379   948A      2.134538  
     949A      2.135712   950A      2.135787   951A      2.138117  
     952A      2.143148   953A      2.143172   954A      2.155308  
     955A      2.155771   956A      2.159526   957A      2.159664  
     958A      2.162647   959A      2.162752   960A      2.171204  
     961A      2.178182   962A      2.178250   963A      2.183500  
     964A      2.190296   965A      2.190378   966A      2.190736  
     967A      2.192481   968A      2.193744   969A      2.195750  
     970A      2.195881   971A      2.198224   972A      2.210379  
     973A      2.219647   974A      2.220238   975A      2.220282  
     976A      2.227676   977A      2.228099   978A      2.228466  
     979A      2.228749   980A      2.231216   981A      2.243208  
     982A      2.243547   983A      2.243770   984A      2.244133  
     985A      2.247046   986A      2.260015   987A      2.260113  
     988A      2.265569   989A      2.270100   990A      2.270113  
     991A      2.271900   992A      2.272037   993A      2.272456  
     994A      2.281037   995A      2.294200   996A      2.300192  
     997A      2.306655   998A      2.309763   999A      2.310276  
    1000A      2.312065  1001A      2.319542  1002A      2.322211  
    1003A      2.330898  1004A      2.330955  1005A      2.331055  
    1006A      2.333749  1007A      2.334971  1008A      2.335955  
    1009A      2.350645  1010A      2.351318  1011A      2.352329  
    1012A      2.352402  1013A      2.366218  1014A      2.366343  
    1015A      2.374565  1016A      2.379157  1017A      2.381987  
    1018A      2.415798  1019A      2.423985  1020A      2.424352  
    1021A      2.424378  1022A      2.436436  1023A      2.439337  
    1024A      2.441050  1025A      2.441112  1026A      2.444725  
    1027A      2.452664  1028A      2.466693  1029A      2.469920  
    1030A      2.472513  1031A      2.472797  1032A      2.473566  
    1033A      2.485264  1034A      2.485308  1035A      2.502281  
    1036A      2.503232  1037A      2.519005  1038A      2.529608  
    1039A      2.529816  1040A      2.543288  1041A      2.545184  
    1042A      2.545280  1043A      2.554125  1044A      2.554201  
    1045A      2.554775  1046A      2.559801  1047A      2.559807  
    1048A      2.572945  1049A      2.572967  1050A      2.573559  
    1051A      2.574676  1052A      2.575194  1053A      2.586206  
    1054A      2.586313  1055A      2.587175  1056A      2.589681  
    1057A      2.591377  1058A      2.605914  1059A      2.623308  
    1060A      2.623425  1061A      2.624823  1062A      2.630221  
    1063A      2.631273  1064A      2.631813  1065A      2.641044  
    1066A      2.641169  1067A      2.641726  1068A      2.647935  
    1069A      2.650733  1070A      2.651085  1071A      2.656153  
    1072A      2.656829  1073A      2.671115  1074A      2.681782  
    1075A      2.682911  1076A      2.683951  1077A      2.686699  
    1078A      2.701861  1079A      2.702178  1080A      2.712984  
    1081A      2.712991  1082A      2.718616  1083A      2.718634  
    1084A      2.722374  1085A      2.722616  1086A      2.733964  
    1087A      2.737021  1088A      2.745309  1089A      2.752032  
    1090A      2.752344  1091A      2.764997  1092A      2.776862  
    1093A      2.794293  1094A      2.794446  1095A      2.801265  
    1096A      2.814988  1097A      2.827070  1098A      2.827399  
    1099A      2.832965  1100A      2.851006  1101A      2.851332  
    1102A      2.855994  1103A      2.858285  1104A      2.859189  
    1105A      2.859357  1106A      2.866669  1107A      2.871398  
    1108A      2.887267  1109A      2.906121  1110A      2.916653  
    1111A      2.916673  1112A      2.920948  1113A      2.923438  
    1114A      2.933449  1115A      2.933524  1116A      2.942891  
    1117A      2.949522  1118A      2.949553  1119A      2.962653  
    1120A      2.967780  1121A      2.990539  1122A      3.002594  
    1123A      3.006208  1124A      3.006410  1125A      3.011845  
    1126A      3.029189  1127A      3.034841  1128A      3.064035  
    1129A      3.064060  1130A      3.070383  1131A      3.070401  
    1132A      3.109290  1133A      3.110115  1134A      3.127021  
    1135A      3.129385  1136A      3.129601  1137A      3.137431  
    1138A      3.138579  1139A      3.145965  1140A      3.146092  
    1141A      3.146202  1142A      3.148817  1143A      3.148847  
    1144A      3.157500  1145A      3.157879  1146A      3.165452  
    1147A      3.165937  1148A      3.191585  1149A      3.211126  
    1150A      3.218193  1151A      3.237160  1152A      3.271591  
    1153A      3.276861  1154A      3.277012  1155A      3.281673  
    1156A      3.281846  1157A      3.283334  1158A      3.301818  
    1159A      3.314758  1160A      3.390593  1161A      3.416129  
    1162A      3.416628  1163A      3.442706  1164A      3.481223  
    1165A      3.483824  1166A      3.520721  1167A      3.548915  
    1168A      3.564035  1169A      3.576954  1170A      3.578926  
    1171A      3.593788  1172A      3.626430  1173A      3.628417  
    1174A      3.641942  1175A      3.662687  1176A      3.666900  
    1177A      3.754746  1178A      3.769200  1179A      3.782584  
    1180A      3.783581  1181A      3.812886  1182A      3.865052  
    1183A      3.870659  1184A      3.870675  1185A      3.913017  
    1186A      3.913130  1187A      3.955320  1188A      3.976881  
    1189A      4.010833  1190A      4.032588  1191A      4.044479  
    1192A      4.080561  1193A      4.201777  1194A      4.204945  
    1195A      4.336163  1196A      4.356883  1197A      4.479638  
    1198A      4.731380  1199A      4.769395  1200A      4.825752  
    1201A      4.842871  1202A      4.932438  1203A      5.046074  
    1204A      5.053260  1205A      5.062588  1206A      5.107249  
    1207A      5.123438  1208A      5.387922  1209A      5.417856  
    1210A      5.728902  1211A      5.748827  1212A      6.064278  
    1213A     18.195870  1214A     18.449857  1215A     18.467301  
    1216A     18.555281  1217A     18.827947  1218A     25.335932  
    1219A     25.371902  

    Final Occupation by Irrep:
              A 
    DOCC [   171 ]
    NA   [   171 ]
    NB   [   171 ]

  @DF-RHF Final Energy: -2055.89159470527147

   => Energetics <=

    Nuclear Repulsion Energy =           6452.5568002797781446
    One-Electron Energy =              -15636.4237517798501358
    Two-Electron Energy =                7127.9753567948009731
    Total Energy =                      -2055.8915947052719275

Computation Completed


Properties will be evaluated at   0.000000,   0.000000,   0.000000 [a0]

Properties computed using the SCF density matrix


 Multipole Moments:

 ------------------------------------------------------------------------------------
     Multipole            Electronic (a.u.)      Nuclear  (a.u.)        Total (a.u.)
 ------------------------------------------------------------------------------------

 L = 1.  Multiply by 2.5417464519 to convert [e a0] to [Debye]
 Dipole X            :          0.0001053           -0.0000085            0.0000968
 Dipole Y            :         -0.0000303            0.0000167           -0.0000136
 Dipole Z            :       -772.7112349          772.7114593            0.0002244
 Magnitude           :                                                    0.0002448

 ------------------------------------------------------------------------------------

*** tstop() called on d-16-7-4 at Mon Jan 22 20:18:13 2024
Module time:
	user time   =    2587.29 seconds =      43.12 minutes
	system time =      49.45 seconds =       0.82 minutes
	total time  =        286 seconds =       4.77 minutes
Total time:
	user time   =    8279.07 seconds =     137.98 minutes
	system time =     170.81 seconds =       2.85 minutes
	total time  =        941 seconds =      15.68 minutes
  Constructing Basis Sets for SAPT...

   => Loading Basis Set <=

    Name: (JUN-CC-PVDZ AUX)
    Role: RIFIT
    Keyword: DF_BASIS_SAPT
    atoms 1-2, 4-5, 10, 17-70 entry C          line   100 file /home/gridsan/tfroembgen/.conda/envs/psi4test/share/psi4/basis/jun-cc-pvdz-ri.gbs 
    atoms 3, 6                entry N          line   144 file /home/gridsan/tfroembgen/.conda/envs/psi4test/share/psi4/basis/jun-cc-pvdz-ri.gbs 
    atoms 7-9, 11-16, 71-88   entry H          line    30 file /home/gridsan/tfroembgen/.conda/envs/psi4test/share/psi4/basis/jun-cc-pvdz-ri.gbs 

   => Loading Basis Set <=

    Name: (JUN-CC-PVDZ AUX)
    Role: JKFIT
    Keyword: DF_BASIS_ELST
    atoms 1-2, 4-5, 10, 17-70 entry C          line   146 file /home/gridsan/tfroembgen/.conda/envs/psi4test/share/psi4/basis/jun-cc-pvdz-jkfit.gbs 
    atoms 3, 6                entry N          line   202 file /home/gridsan/tfroembgen/.conda/envs/psi4test/share/psi4/basis/jun-cc-pvdz-jkfit.gbs 
    atoms 7-9, 11-16, 71-88   entry H          line    70 file /home/gridsan/tfroembgen/.conda/envs/psi4test/share/psi4/basis/jun-cc-pvdz-jkfit.gbs 


  //>>>>>>>>>>>>>>>>>>>>>>>>>>>>>>>>>>>//
  //               SSAPT0              //
  //<<<<<<<<<<<<<<<<<<<<<<<<<<<<<<<<<<<//


*** tstart() called on d-16-7-4
*** at Mon Jan 22 20:18:14 2024

        SAPT0  
    Ed Hohenstein
     6 June 2009

      Orbital Information
  --------------------------
    NSO        =      1233
    NMO        =      1219
    NRI        =      4343
    NRI (Elst) =      5440
    NOCC A     =        26
    NOCC B     =       171
    FOCC A     =         7
    FOCC B     =        54
    NVIR A     =      1193
    NVIR B     =      1048

    Elst10,r            =    -0.004764049721 [Eh]
    Exch10              =    -0.000000031120 [Eh]
    Exch10 (S^2)        =    -0.000000031120 [Eh]

    Iter     Energy [mEh]          dE [mEh]         Residual      Time [s]
       1      -0.00789674       0.007896744       0.840733223           409
       2      -0.00749942      -0.000397322       0.221845897           686
       3      -0.00827197       0.000772546       0.061042175           874
       4      -0.00831517       0.000043203       0.028686225          1088
       5      -0.00827813      -0.000037038       0.007678371          1276
       6      -0.00827947       0.000001337       0.002672151          1458
       7      -0.00828211       0.000002642       0.000677751          1653
       8      -0.00828225       0.000000141       0.000218686          1888
       9      -0.00828215      -0.000000100       0.000064339          2120
      10      -0.00828212      -0.000000029       0.000019699          2404
      11      -0.00828213       0.000000003       0.000005551          2673
      12      -0.00828213       0.000000003       0.000001594          2995
      13      -0.00828213      -0.000000000       0.000000621          3379

    CHF Iterations converged


    Iter     Energy [mEh]          dE [mEh]         Residual      Time [s]
       1      -1.36167136       1.361671357      19.170644382           369
       2      -0.93231784      -0.429353513       2.295034443           602
       3      -0.93655565       0.004237808       0.892816153           645
       4      -0.95939058       0.022834927       0.200240402           811
       5      -0.96033723       0.000946653       0.055742631           856
       6      -0.95985427      -0.000482961       0.025780083           931
       7      -0.95971011      -0.000144166       0.012503402           983
       8      -0.95979957       0.000089467       0.009164858          1178
       9      -0.95982542       0.000025844       0.005385680          1288
      10      -0.95980237      -0.000023048       0.002912216          1492
      11      -0.95979566      -0.000006712       0.001366867          1580
      12      -0.95979837       0.000002709       0.000660821          1632
      13      -0.95980036       0.000001992       0.000272687          1663
      14      -0.95979990      -0.000000457       0.000147805          1691
      15      -0.95979946      -0.000000438       0.000063563          1717
      16      -0.95979955       0.000000082       0.000032503          1740
      17      -0.95979965       0.000000105       0.000010478          1765
      18      -0.95979964      -0.000000007       0.000003305          1789
      19      -0.95979963      -0.000000009       0.000001602          1810
      20      -0.95979963      -0.000000001       0.000000683          2000

    CHF Iterations converged

    Ind20,r (A<-B)      =    -0.000008282129 [Eh]
    Ind20,r (B<-A)      =    -0.000959799634 [Eh]
    Ind20,r             =    -0.000968081763 [Eh]
    Exch-Ind20,r (A<-B) =     0.000000002402 [Eh]
    Exch-Ind20,r (B<-A) =     0.000000008262 [Eh]
    Exch-Ind20,r        =     0.000000010664 [Eh]
    Disp20              =    -0.000332789694 [Eh]
    Disp20 (SS)         =    -0.000166394847 [Eh]
    Disp20 (OS)         =    -0.000166394847 [Eh]
    Exch-Disp20         =     0.000000004682 [Eh]
    Exch-Disp20 (SS)    =     0.000000003445 [Eh]
    Exch-Disp20 (OS)    =     0.000000001236 [Eh]

    SAPT Results 
  --------------------------------------------------------------------------------------------------------
    Electrostatics                 -4.76404972 [mEh]      -2.98948633 [kcal/mol]     -12.50801082 [kJ/mol]
      Elst10,r                     -4.76404972 [mEh]      -2.98948633 [kcal/mol]     -12.50801082 [kJ/mol]

    Exchange                       -0.00003112 [mEh]      -0.00001953 [kcal/mol]      -0.00008171 [kJ/mol]
      Exch10                       -0.00003112 [mEh]      -0.00001953 [kcal/mol]      -0.00008171 [kJ/mol]
      Exch10(S^2)                  -0.00003112 [mEh]      -0.00001953 [kcal/mol]      -0.00008171 [kJ/mol]

    Induction                      -0.97650131 [mEh]      -0.61276383 [kcal/mol]      -2.56380385 [kJ/mol]
      Ind20,r                      -0.96808176 [mEh]      -0.60748048 [kcal/mol]      -2.54169832 [kJ/mol]
      Exch-Ind20,r                  0.00001066 [mEh]       0.00000669 [kcal/mol]       0.00002800 [kJ/mol]
      delta HF,r (2)               -0.00843022 [mEh]      -0.00529004 [kcal/mol]      -0.02213353 [kJ/mol]

    Dispersion                     -0.33278501 [mEh]      -0.20882575 [kcal/mol]      -0.87372693 [kJ/mol]
      Disp20                       -0.33278969 [mEh]      -0.20882869 [kcal/mol]      -0.87373922 [kJ/mol]
      Exch-Disp20                   0.00000468 [mEh]       0.00000294 [kcal/mol]       0.00001229 [kJ/mol]
      Disp20 (SS)                  -0.16639485 [mEh]      -0.10441434 [kcal/mol]      -0.43686961 [kJ/mol]
      Disp20 (OS)                  -0.16639485 [mEh]      -0.10441434 [kcal/mol]      -0.43686961 [kJ/mol]
      Exch-Disp20 (SS)              0.00000345 [mEh]       0.00000216 [kcal/mol]       0.00000905 [kJ/mol]
      Exch-Disp20 (OS)              0.00000124 [mEh]       0.00000078 [kcal/mol]       0.00000325 [kJ/mol]

  Total HF                         -5.74058215 [mEh]      -3.60226969 [kcal/mol]     -15.07189637 [kJ/mol]
  Total SAPT0                      -6.07336717 [mEh]      -3.81109544 [kcal/mol]     -15.94562330 [kJ/mol]

  Special recipe for scaled SAPT0 (see Manual):
    Electrostatics sSAPT0          -4.76404972 [mEh]      -2.98948633 [kcal/mol]     -12.50801082 [kJ/mol]
    Exchange sSAPT0                -0.00003112 [mEh]      -0.00001953 [kcal/mol]      -0.00008171 [kJ/mol]
    Induction sSAPT0               -0.97650131 [mEh]      -0.61276383 [kcal/mol]      -2.56380385 [kJ/mol]
    Dispersion sSAPT0              -0.33278501 [mEh]      -0.20882575 [kcal/mol]      -0.87372693 [kJ/mol]
  Total sSAPT0                     -6.07336717 [mEh]      -3.81109544 [kcal/mol]     -15.94562330 [kJ/mol]
  --------------------------------------------------------------------------------------------------------

*** tstop() called on d-16-7-4 at Mon Jan 22 22:54:55 2024
Module time:
	user time   =    8725.19 seconds =     145.42 minutes
	system time =    1099.03 seconds =      18.32 minutes
	total time  =       9401 seconds =     156.68 minutes
Total time:
	user time   =   17005.79 seconds =     283.43 minutes
	system time =    1269.85 seconds =      21.16 minutes
	total time  =      10343 seconds =     172.38 minutes

    Psi4 stopped on: Monday, 22 January 2024 10:54PM
    Psi4 wall time for execution: 2:52:24.15

*** Psi4 exiting successfully. Buy a developer a beer!
