
    -----------------------------------------------------------------------
          Psi4: An Open-Source Ab Initio Electronic Structure Package
                               Psi4 1.9 release

                         Git: Rev {} zzzzzzz 


    D. G. A. Smith, L. A. Burns, A. C. Simmonett, R. M. Parrish,
    M. C. Schieber, R. Galvelis, P. Kraus, H. Kruse, R. Di Remigio,
    A. Alenaizan, A. M. James, S. Lehtola, J. P. Misiewicz, M. Scheurer,
    R. A. Shaw, J. B. Schriber, Y. Xie, Z. L. Glick, D. A. Sirianni,
    J. S. O'Brien, J. M. Waldrop, A. Kumar, E. G. Hohenstein,
    B. P. Pritchard, B. R. Brooks, H. F. Schaefer III, A. Yu. Sokolov,
    K. Patkowski, A. E. DePrince III, U. Bozkaya, R. A. King,
    F. A. Evangelista, J. M. Turney, T. D. Crawford, C. D. Sherrill,
    J. Chem. Phys. 152(18) 184108 (2020). https://doi.org/10.1063/5.0006002

                            Additional Code Authors
    E. T. Seidl, C. L. Janssen, E. F. Valeev, M. L. Leininger,
    J. F. Gonthier, R. M. Richard, H. R. McAlexander, M. Saitow, X. Wang,
    P. Verma, M. H. Lechner, A. Jiang, S. Behnle, A. G. Heide,
    M. F. Herbst, and D. L. Poole

             Previous Authors, Complete List of Code Contributors,
                       and Citations for Specific Modules
    https://github.com/psi4/psi4/blob/master/codemeta.json
    https://github.com/psi4/psi4/graphs/contributors
    http://psicode.org/psi4manual/master/introduction.html#citing-psifour

    -----------------------------------------------------------------------


    Psi4 started on: Monday, 22 January 2024 12:09PM

    Process ID: 354669
    Host:       d-16-5-1
    PSIDATADIR: /home/gridsan/tfroembgen/.conda/envs/psi4test/share/psi4
    Memory:     500.0 MiB
    Threads:    12
    
  ==> Input File <==

--------------------------------------------------------------------------
memory 32 GB # how much memory is available ! Depends on the nodes/cores !

molecule dimer {
# monomer A
-1 1    # Charge and multiplicity
B -0.000046  0.000337 7.799994
F -1.153597  0.000048 8.615641
F  1.153661 -0.000581 8.615641
F -0.000019 -1.153637 6.984360
F -0.000019  1.153978 6.984360
--
# monomer B
0 1     # Charge and multiplicity
C   1.22531237526482      0.70753866091955      0.00613762728373
C   1.22532433589282     -0.70753852257020     -0.00619318228664
C   -0.00000567409046      1.41496628609039     -0.00672680580738
C   2.45644923379077      1.41832825917820      0.00902448468363
C   0.00001130712078     -1.41497612663474      0.00347275151708
C   -1.22530046906674      0.70754574598412      0.00838914760619
C   2.45643823516184     -1.41832293188077     -0.00843833914343
C   -0.00000085313587      2.83680140328112     -0.00913035594137
C   3.68182717731192      0.70931832800114     -0.00808954934571
C   2.45512052870677      2.83422403348893     -0.00819210630633
C   3.68182158506039     -0.70933346742900      0.00798293467272
C   -1.22531311884624     -0.70752714354401     -0.00512042085974
C   1.22670006104402      3.54346985599427      0.00816696660346
C   0.00000526469929     -2.83678176723568      0.00832091913869
C   -2.45643555300670      1.41831729028492      0.00842454345199
C   2.45512389762097     -2.83422965658853      0.00783102630520
C   -1.22671388474763      3.54346943575023      0.00827029982280
C   4.91451777504333      1.42717324448953     -0.00160886631602
C   3.69315067131765      3.54279566454522     -0.00155906667985
C   -2.45643712022637     -1.41831290883911     -0.00846337726810
C   1.22670532178455     -3.54347386990643     -0.00780316414624
C   -2.45512491866593      2.83421703463423     -0.00818572995999
C   4.91452486062398     -1.42718653794377      0.00136387641845
C   1.22142509354026      4.97013443726031      0.00150231067809
C   4.89300870916237      2.82518837202648     -0.00039219795739
C   -1.22669652864725     -3.54347062507680     -0.00753595973677
C   -3.68181849668397      0.70932533873199     -0.00807686886569
C   3.69314758099218     -3.54280096939050      0.00148176697923
C   -1.22143177215231      4.97012866986289      0.00168580605083
C   6.13477145276790      0.68054831910577     -0.00083909176631
C   3.65678936045204      4.97295361556775     -0.00065042889723
C   -2.45512642789169     -2.83421472106065      0.00758666850712
C   -3.68181869921921     -0.70932533146830      0.00810055625144
C   4.89301309775526     -2.82519973363176      0.00021895393805
C   -0.00000059327114      5.65044773803267      0.00045449734393
C   6.13477559217374     -0.68055448207492      0.00042622874941
C   2.47813196269732      5.65357712333155      0.00063835075260
C   1.22142288457925     -4.97012668293268     -0.00129718634452
C   -3.69316190412301      3.54279732619245     -0.00139355922051
C   -1.22142804110313     -4.97011793159564     -0.00140994817719
C   -4.91452132810043      1.42717581899491     -0.00153192130862
C   3.65678749952045     -4.97295485423912      0.00080007163680
C   -2.47813805026426      5.65357479452875      0.00092287576113
C   -3.69314125872231     -3.54278984697859      0.00136564082345
C   -4.91451200321153     -1.42718062802730      0.00139857359209
C   -0.00000552908399     -5.65043791501335      0.00005899322272
C   -4.89302000425900      2.82518897091939     -0.00040227981744
C   2.47812647313991     -5.65357317188818     -0.00029052915548
C   -3.65679823041642      4.97295655404175     -0.00047374852278
C   -4.89299899901461     -2.82519139505969      0.00006491824035
C   -2.47812801824129     -5.65356579800621     -0.00056571680280
C   -6.13477002348955      0.68054913825639     -0.00086464346868
C   -3.65678835334731     -4.97294365097028      0.00058578382008
C   -6.13476456307132     -0.68055354348201      0.00040575295444
H   5.83528897565761      3.36927626695423      0.00396712770529
H   7.07385965258860      1.22821762089947     -0.00037744837300
H   4.60066374401555      5.51238117445323     -0.00014522814529
H   5.83528386714679     -3.36930568472863     -0.00423551337640
H   -0.00001167146422      6.73853104613662     -0.00389474766392
H   7.07386165167227     -1.22822657074368     -0.00008250934481
H   2.47331421164041      6.74068466339473      0.00017162982210
H   4.60066897122302     -5.51237575717576      0.00039007446835
H   -2.47331820069565      6.74068209160650      0.00047297644710
H   -0.00000978838621     -6.73852780445195      0.00458867820736
H   -5.83530143450167      3.36927132229595      0.00410314985360
H   2.47330840367253     -6.74068500242887      0.00027980126949
H   -4.60067436136587      5.51237839860371      0.00002010017831
H   -5.83527902699321     -3.36928859177951     -0.00451481925734
H   -2.47329986759855     -6.74067870613986     -0.00016951527498
H   -7.07385728692578      1.22822084484047     -0.00046143985387
H   -4.60067330624313     -5.51236229778631      0.00021776644566
H   -7.07385645456741     -1.22822025997701     -0.00017736581114

    units angstrom      # Angstroms are the default
    no_reorient         # Geometry fixed, default
    symmetry c1         # C1 symmetry, default
}

set {
    scf_type DF         # Density fitting, faster than exact integrals
    freeze_core True    # Freeze core electrons
    basis jun-cc-pVDZ   # Jun-cc-pVDZ basis set, recommended for sSAPT0 in https://doi.org/10.1063/1.4867135
}

energy('ssapt0')        # Compute sSAPT0 energy, includes also SAPT0
--------------------------------------------------------------------------

  Memory set to  29.802 GiB by Python driver.

Scratch directory: /state/partition1/slurm_tmp/24792938.4294967291.0/
   => Loading Basis Set <=

    Name: JUN-CC-PVDZ
    Role: ORBITAL
    Keyword: BASIS
    atoms 1     entry B          line   130 file /home/gridsan/tfroembgen/.conda/envs/psi4test/share/psi4/basis/jun-cc-pvdz.gbs 
    atoms 2-5   entry F          line   266 file /home/gridsan/tfroembgen/.conda/envs/psi4test/share/psi4/basis/jun-cc-pvdz.gbs 
    atoms 6-59  entry C          line   164 file /home/gridsan/tfroembgen/.conda/envs/psi4test/share/psi4/basis/jun-cc-pvdz.gbs 
    atoms 60-77 entry H          line    36 file /home/gridsan/tfroembgen/.conda/envs/psi4test/share/psi4/basis/jun-cc-pvdz.gbs 

   => Loading Basis Set <=

    Name: JUN-CC-PVDZ
    Role: ORBITAL
    Keyword: BASIS
    atoms 1     entry B          line   130 file /home/gridsan/tfroembgen/.conda/envs/psi4test/share/psi4/basis/jun-cc-pvdz.gbs 
    atoms 2-5   entry F          line   266 file /home/gridsan/tfroembgen/.conda/envs/psi4test/share/psi4/basis/jun-cc-pvdz.gbs 
    atoms 6-59  entry C          line   164 file /home/gridsan/tfroembgen/.conda/envs/psi4test/share/psi4/basis/jun-cc-pvdz.gbs 
    atoms 60-77 entry H          line    36 file /home/gridsan/tfroembgen/.conda/envs/psi4test/share/psi4/basis/jun-cc-pvdz.gbs 


  //>>>>>>>>>>>>>>>>>>>>>>>>>>>>>>>>>>>//
  //              Dimer HF             //
  //<<<<<<<<<<<<<<<<<<<<<<<<<<<<<<<<<<<//

   => Libint2 <=

    Primary   basis highest AM E, G, H:  7, 7, 4
    Auxiliary basis highest AM E, G, H:  7, 7, 5
    Onebody   basis highest AM E, G, H:  7, 7, 5
    Solid Harmonics ordering:            gaussian

*** tstart() called on d-16-5-1
*** at Mon Jan 22 12:09:42 2024

   => Loading Basis Set <=

    Name: JUN-CC-PVDZ
    Role: ORBITAL
    Keyword: BASIS
    atoms 1     entry B          line   130 file /home/gridsan/tfroembgen/.conda/envs/psi4test/share/psi4/basis/jun-cc-pvdz.gbs 
    atoms 2-5   entry F          line   266 file /home/gridsan/tfroembgen/.conda/envs/psi4test/share/psi4/basis/jun-cc-pvdz.gbs 
    atoms 6-59  entry C          line   164 file /home/gridsan/tfroembgen/.conda/envs/psi4test/share/psi4/basis/jun-cc-pvdz.gbs 
    atoms 60-77 entry H          line    36 file /home/gridsan/tfroembgen/.conda/envs/psi4test/share/psi4/basis/jun-cc-pvdz.gbs 


         ---------------------------------------------------------
                                   SCF
               by Justin Turney, Rob Parrish, Andy Simmonett
                          and Daniel G. A. Smith
                              RHF Reference
                       12 Threads,  30517 MiB Core
         ---------------------------------------------------------

  ==> Geometry <==

    Molecular point group: c1
    Full point group: C1

    Geometry (in Angstrom), charge = -1, multiplicity = 1:

       Center              X                  Y                   Z               Mass       
    ------------   -----------------  -----------------  -----------------  -----------------
         B           -0.000046449334     0.000336519434     6.898942856736    11.009305360000
         F           -1.153597449334     0.000047519434     7.714589856736    18.998403162730
         F            1.153660550666    -0.000581480566     7.714589856736    18.998403162730
         F           -0.000019449334    -1.153637480566     6.083308856736    18.998403162730
         F           -0.000019449334     1.153977519434     6.083308856736    18.998403162730
         C            1.225311925931     0.707538180353    -0.894913515980    12.000000000000
         C            1.225323886559    -0.707539003137    -0.907244325550    12.000000000000
         C           -0.000006123424     1.414965805524    -0.907777949071    12.000000000000
         C            2.456448784457     1.418327778612    -0.892026658580    12.000000000000
         C            0.000010857787    -1.414976607201    -0.897578391747    12.000000000000
         C           -1.225300918401     0.707545265418    -0.892661995658    12.000000000000
         C            2.456437785828    -1.418323412447    -0.909489482407    12.000000000000
         C           -0.000001302470     2.836800922715    -0.910181499205    12.000000000000
         C            3.681826727978     0.709317847435    -0.909140692609    12.000000000000
         C            2.455120079373     2.834223552923    -0.909243249570    12.000000000000
         C            3.681821135726    -0.709333947995    -0.893068208591    12.000000000000
         C           -1.225313568180    -0.707527624110    -0.906171564123    12.000000000000
         C            1.226699611710     3.543469375428    -0.892884176660    12.000000000000
         C            0.000004815365    -2.836782247802    -0.892730224125    12.000000000000
         C           -2.456436002341     1.418316809719    -0.892626599812    12.000000000000
         C            2.455123448287    -2.834230137155    -0.893220116959    12.000000000000
         C           -1.226714334082     3.543468955184    -0.892780843441    12.000000000000
         C            4.914517325709     1.427172763923    -0.902660009580    12.000000000000
         C            3.693150221984     3.542795183979    -0.902610209944    12.000000000000
         C           -2.456437569560    -1.418313389406    -0.909514520532    12.000000000000
         C            1.226704872451    -3.543474350473    -0.908854307410    12.000000000000
         C           -2.455125368000     2.834216554068    -0.909236873224    12.000000000000
         C            4.914524411290    -1.427187018510    -0.899687266845    12.000000000000
         C            1.221424644206     4.970133956694    -0.899548832586    12.000000000000
         C            4.893008259828     2.825187891460    -0.901443341221    12.000000000000
         C           -1.226696977981    -3.543471105643    -0.908587103000    12.000000000000
         C           -3.681818946018     0.709324858166    -0.909128012129    12.000000000000
         C            3.693147131658    -3.542801449957    -0.899569376284    12.000000000000
         C           -1.221432221486     4.970128189296    -0.899365337213    12.000000000000
         C            6.134771003434     0.680547838539    -0.901890235030    12.000000000000
         C            3.656788911118     4.972953135001    -0.901701572161    12.000000000000
         C           -2.455126877226    -2.834215201627    -0.893464474757    12.000000000000
         C           -3.681819148553    -0.709325812035    -0.892950587012    12.000000000000
         C            4.893012648421    -2.825200214198    -0.900832189326    12.000000000000
         C           -0.000001042605     5.650447257466    -0.900596645920    12.000000000000
         C            6.134775142840    -0.680554962641    -0.900624914514    12.000000000000
         C            2.478131513363     5.653576642765    -0.900412792511    12.000000000000
         C            1.221422435245    -4.970127163499    -0.902348329608    12.000000000000
         C           -3.693162353457     3.542796845626    -0.902444702484    12.000000000000
         C           -1.221428490437    -4.970118412162    -0.902461091441    12.000000000000
         C           -4.914521777434     1.427175338429    -0.902583064572    12.000000000000
         C            3.656787050187    -4.972955334806    -0.900251071627    12.000000000000
         C           -2.478138499598     5.653574313962    -0.900128267503    12.000000000000
         C           -3.693141708056    -3.542790327545    -0.899685502440    12.000000000000
         C           -4.914512452545    -1.427181108594    -0.899652569672    12.000000000000
         C           -0.000005978418    -5.650438395580    -0.900992150041    12.000000000000
         C           -4.893020453593     2.825188490353    -0.901453423081    12.000000000000
         C            2.478126023806    -5.653573652455    -0.901341672419    12.000000000000
         C           -3.656798679750     4.972956073475    -0.901524891786    12.000000000000
         C           -4.892999448349    -2.825191875626    -0.900986225023    12.000000000000
         C           -2.478128467575    -5.653566278573    -0.901616860067    12.000000000000
         C           -6.134770472823     0.680548657690    -0.901915786732    12.000000000000
         C           -3.656788802681    -4.972944131537    -0.900465359444    12.000000000000
         C           -6.134765012405    -0.680554024048    -0.900645390309    12.000000000000
         H            5.835288526324     3.369275786388    -0.897084015558     1.007825032230
         H            7.073859203255     1.228217140333    -0.901428591637     1.007825032230
         H            4.600663294682     5.512380693887    -0.901196371409     1.007825032230
         H            5.835283417813    -3.369306165295    -0.905286656640     1.007825032230
         H           -0.000012120798     6.738530565570    -0.904945890928     1.007825032230
         H            7.073861202338    -1.228227051310    -0.901133652609     1.007825032230
         H            2.473313762307     6.740684182828    -0.900879513442     1.007825032230
         H            4.600668521889    -5.512376237742    -0.900661068795     1.007825032230
         H           -2.473318650030     6.740681611040    -0.900578166817     1.007825032230
         H           -0.000010237720    -6.738528285018    -0.896462465056     1.007825032230
         H           -5.835301883836     3.369270841730    -0.896947993410     1.007825032230
         H            2.473307954339    -6.740685482995    -0.900771341994     1.007825032230
         H           -4.600674810700     5.512377918037    -0.901031043085     1.007825032230
         H           -5.835279476327    -3.369289072346    -0.905565962521     1.007825032230
         H           -2.473300316932    -6.740679186706    -0.901220658539     1.007825032230
         H           -7.073857736260     1.228220364274    -0.901512583118     1.007825032230
         H           -4.600673755577    -5.512362778353    -0.900833376818     1.007825032230
         H           -7.073856903901    -1.228220740543    -0.901228509075     1.007825032230

  Running in c1 symmetry.

  Rotational constants: A =      0.00136  B =      0.00136  C =      0.00110 [cm^-1]
  Rotational constants: A =     40.80970  B =     40.80572  C =     33.02250 [MHz]
  Nuclear repulsion = 7447.309423665683425

  Charge       = -1
  Multiplicity = 1
  Electrons    = 384
  Nalpha       = 192
  Nbeta        = 192

  ==> Algorithm <==

  SCF Algorithm Type is DF.
  DIIS enabled.
  MOM disabled.
  Fractional occupation disabled.
  Guess Type is SAD.
  Energy threshold   = 1.00e-08
  Density threshold  = 1.00e-08
  Integral threshold = 1.00e-12

  ==> Primary Basis <==

  Basis Set: JUN-CC-PVDZ
    Blend: JUN-CC-PVDZ
    Number of shells: 526
    Number of basis functions: 1152
    Number of Cartesian functions: 1211
    Spherical Harmonics?: true
    Max angular momentum: 2

   => Loading Basis Set <=

    Name: (JUN-CC-PVDZ AUX)
    Role: JKFIT
    Keyword: DF_BASIS_SCF
    atoms 1     entry B          line    90 file /home/gridsan/tfroembgen/.conda/envs/psi4test/share/psi4/basis/jun-cc-pvdz-jkfit.gbs 
    atoms 2-5   entry F          line   314 file /home/gridsan/tfroembgen/.conda/envs/psi4test/share/psi4/basis/jun-cc-pvdz-jkfit.gbs 
    atoms 6-59  entry C          line   146 file /home/gridsan/tfroembgen/.conda/envs/psi4test/share/psi4/basis/jun-cc-pvdz-jkfit.gbs 
    atoms 60-77 entry H          line    70 file /home/gridsan/tfroembgen/.conda/envs/psi4test/share/psi4/basis/jun-cc-pvdz-jkfit.gbs 

  ==> Integral Setup <==

  ==> DiskDFJK: Density-Fitted J/K Matrices <==

    J tasked:                  Yes
    K tasked:                  Yes
    wK tasked:                  No
    OpenMP threads:             12
    Integrals threads:          12
    Memory [MiB]:            22888
    Algorithm:                Core
    Integral Cache:           SAVE
    Schwarz Cutoff:          1E-12
    Fitting Condition:       1E-10

   => Auxiliary Basis Set <=

  Basis Set: (JUN-CC-PVDZ AUX)
    Blend: JUN-CC-PVDZ-JKFIT
    Number of shells: 1755
    Number of basis functions: 5075
    Number of Cartesian functions: 5819
    Spherical Harmonics?: true
    Max angular momentum: 3

  Minimum eigenvalue in the overlap matrix is 8.3991930661E-10.
  Reciprocal condition number of the overlap matrix is 3.7563144597E-11.
    Using canonical orthogonalization.
  Overall, 14 of 1152 possible MOs eliminated.


  ==> Pre-Iterations <==

  SCF Guess: Superposition of Atomic Densities via on-the-fly atomic UHF (no occupation information).

   -------------------------
    Irrep   Nso     Nmo    
   -------------------------
     A       1152    1138 
   -------------------------
    Total    1152    1138
   -------------------------

  ==> Iterations <==

                           Total Energy        Delta E     RMS |[F,P]|

   @DF-RHF iter SAD: -2483.25908167606485   -2.48326e+03   0.00000e+00 
   @DF-RHF iter   1: -2477.62877538724388    5.63031e+00   1.09639e-03 DIIS/ADIIS
   @DF-RHF iter   2: -2478.51344996869830   -8.84675e-01   4.71709e-04 DIIS/ADIIS
   @DF-RHF iter   3: -2478.64298464293734   -1.29535e-01   1.29476e-04 DIIS/ADIIS
   @DF-RHF iter   4: -2478.65580347947616   -1.28188e-02   5.08431e-05 DIIS
   @DF-RHF iter   5: -2478.65796731620503   -2.16384e-03   1.54511e-05 DIIS
   @DF-RHF iter   6: -2478.65823344078217   -2.66125e-04   5.35834e-06 DIIS
   @DF-RHF iter   7: -2478.65831314195793   -7.97012e-05   2.63646e-06 DIIS
   @DF-RHF iter   8: -2478.65833502965597   -2.18877e-05   1.21804e-06 DIIS
   @DF-RHF iter   9: -2478.65834154596268   -6.51631e-06   2.46323e-07 DIIS
   @DF-RHF iter  10: -2478.65834175950340   -2.13541e-07   8.67718e-08 DIIS
   @DF-RHF iter  11: -2478.65834177566194   -1.61585e-08   3.36105e-08 DIIS
   @DF-RHF iter  12: -2478.65834177894340   -3.28146e-09   1.13599e-08 DIIS
   @DF-RHF iter  13: -2478.65834177925535   -3.11957e-10   4.35788e-09 DIIS
  Energy and wave function converged.


  ==> Post-Iterations <==

    Orbital Energies [Eh]
    ---------------------

    Doubly Occupied:                                                      

       1A    -26.064338     2A    -26.064302     3A    -26.063683  
       4A    -26.063503     5A    -11.204175     6A    -11.204167  
       7A    -11.204136     8A    -11.204121     9A    -11.204102  
      10A    -11.204087    11A    -11.204054    12A    -11.204040  
      13A    -11.204026    14A    -11.204012    15A    -11.203992  
      16A    -11.203974    17A    -11.203849    18A    -11.203581  
      19A    -11.203562    20A    -11.203310    21A    -11.203288  
      22A    -11.203229    23A    -11.202982    24A    -11.202759  
      25A    -11.202742    26A    -11.202139    27A    -11.202118  
      28A    -11.202096    29A    -11.201784    30A    -11.201774  
      31A    -11.201757    32A    -11.201749    33A    -11.201626  
      34A    -11.201366    35A    -11.201148    36A    -11.201046  
      37A    -11.201027    38A    -11.200893    39A    -11.200864  
      40A    -11.200792    41A    -11.199368    42A    -11.199368  
      43A    -11.199305    44A    -11.199304    45A    -11.199303  
      46A    -11.199301    47A    -11.197944    48A    -11.197943  
      49A    -11.197881    50A    -11.197880    51A    -11.197877  
      52A    -11.197875    53A    -11.197338    54A    -11.197338  
      55A    -11.197305    56A    -11.197303    57A    -11.197286  
      58A    -11.197252    59A     -7.536247    60A     -1.407912  
      61A     -1.348502    62A     -1.348120    63A     -1.347723  
      64A     -1.188099    65A     -1.164578    66A     -1.164538  
      67A     -1.134732    68A     -1.134728    69A     -1.125560  
      70A     -1.103249    71A     -1.094273    72A     -1.080377  
      73A     -1.080350    74A     -1.058953    75A     -1.058952  
      76A     -1.027509    77A     -1.027506    78A     -1.023693  
      79A     -1.011879    80A     -1.011873    81A     -0.984996  
      82A     -0.968991    83A     -0.966511    84A     -0.966491  
      85A     -0.963542    86A     -0.958848    87A     -0.932259  
      88A     -0.932229    89A     -0.907623    90A     -0.907583  
      91A     -0.840105    92A     -0.840073    93A     -0.832775  
      94A     -0.830973    95A     -0.830896    96A     -0.826616  
      97A     -0.826562    98A     -0.807738    99A     -0.783878  
     100A     -0.763919   101A     -0.761707   102A     -0.757495  
     103A     -0.757468   104A     -0.740805   105A     -0.740796  
     106A     -0.691712   107A     -0.690140   108A     -0.678761  
     109A     -0.678730   110A     -0.678266   111A     -0.678234  
     112A     -0.662102   113A     -0.644827   114A     -0.644812  
     115A     -0.639218   116A     -0.639207   117A     -0.607418  
     118A     -0.599192   119A     -0.598760   120A     -0.596523  
     121A     -0.596521   122A     -0.596424   123A     -0.585317  
     124A     -0.585308   125A     -0.575244   126A     -0.573109  
     127A     -0.573093   128A     -0.553002   129A     -0.549704  
     130A     -0.546981   131A     -0.545790   132A     -0.545788  
     133A     -0.539044   134A     -0.536318   135A     -0.536306  
     136A     -0.531990   137A     -0.525502   138A     -0.525359  
     139A     -0.525222   140A     -0.520670   141A     -0.520615  
     142A     -0.513642   143A     -0.513636   144A     -0.511443  
     145A     -0.511407   146A     -0.504219   147A     -0.501181  
     148A     -0.501152   149A     -0.484819   150A     -0.484817  
     151A     -0.483135   152A     -0.483133   153A     -0.475528  
     154A     -0.472231   155A     -0.468697   156A     -0.468677  
     157A     -0.446836   158A     -0.444259   159A     -0.444211  
     160A     -0.441248   161A     -0.439369   162A     -0.433001  
     163A     -0.430488   164A     -0.427509   165A     -0.427496  
     166A     -0.414811   167A     -0.414781   168A     -0.405436  
     169A     -0.405387   170A     -0.405288   171A     -0.396083  
     172A     -0.395990   173A     -0.384856   174A     -0.384851  
     175A     -0.382102   176A     -0.381886   177A     -0.381703  
     178A     -0.349472   179A     -0.349457   180A     -0.348045  
     181A     -0.321422   182A     -0.321419   183A     -0.294460  
     184A     -0.281436   185A     -0.280435   186A     -0.280405  
     187A     -0.256676   188A     -0.244474   189A     -0.228945  
     190A     -0.228905   191A     -0.170292   192A     -0.170246  

    Virtual:                                                              

     193A      0.068451   194A      0.068535   195A      0.095920  
     196A      0.095987   197A      0.097977   198A      0.098548  
     199A      0.098559   200A      0.105717   201A      0.109683  
     202A      0.119696   203A      0.119761   204A      0.120639  
     205A      0.120645   206A      0.130457   207A      0.135421  
     208A      0.135424   209A      0.136137   210A      0.137369  
     211A      0.137441   212A      0.139901   213A      0.140004  
     214A      0.141309   215A      0.143433   216A      0.146075  
     217A      0.146462   218A      0.155074   219A      0.155210  
     220A      0.159359   221A      0.159362   222A      0.163765  
     223A      0.166150   224A      0.168838   225A      0.168838  
     226A      0.170078   227A      0.177155   228A      0.179112  
     229A      0.179136   230A      0.179747   231A      0.180984  
     232A      0.183992   233A      0.184066   234A      0.184499  
     235A      0.184509   236A      0.184855   237A      0.191280  
     238A      0.194856   239A      0.195244   240A      0.200797  
     241A      0.202062   242A      0.202066   243A      0.203846  
     244A      0.203955   245A      0.209000   246A      0.209001  
     247A      0.218832   248A      0.220375   249A      0.222809  
     250A      0.222875   251A      0.223389   252A      0.230602  
     253A      0.230679   254A      0.231636   255A      0.232003  
     256A      0.237841   257A      0.237898   258A      0.239153  
     259A      0.239971   260A      0.240017   261A      0.240031  
     262A      0.246123   263A      0.247392   264A      0.247415  
     265A      0.254437   266A      0.255247   267A      0.255262  
     268A      0.255958   269A      0.259945   270A      0.259987  
     271A      0.262250   272A      0.262947   273A      0.263029  
     274A      0.264550   275A      0.265163   276A      0.265644  
     277A      0.274124   278A      0.276554   279A      0.276804  
     280A      0.277018   281A      0.277674   282A      0.278404  
     283A      0.278721   284A      0.279927   285A      0.281531  
     286A      0.281608   287A      0.286355   288A      0.286415  
     289A      0.291095   290A      0.291345   291A      0.294812  
     292A      0.295509   293A      0.295529   294A      0.298815  
     295A      0.306966   296A      0.307079   297A      0.308820  
     298A      0.308846   299A      0.310892   300A      0.310913  
     301A      0.315616   302A      0.315641   303A      0.321453  
     304A      0.321459   305A      0.322179   306A      0.324640  
     307A      0.326039   308A      0.326356   309A      0.326475  
     310A      0.329196   311A      0.329528   312A      0.330600  
     313A      0.343406   314A      0.344396   315A      0.345241  
     316A      0.345587   317A      0.347028   318A      0.352181  
     319A      0.352890   320A      0.353013   321A      0.354932  
     322A      0.355063   323A      0.357291   324A      0.357464  
     325A      0.359041   326A      0.360344   327A      0.363465  
     328A      0.363512   329A      0.366450   330A      0.366531  
     331A      0.368003   332A      0.371962   333A      0.372329  
     334A      0.372415   335A      0.373680   336A      0.375005  
     337A      0.376093   338A      0.377354   339A      0.377524  
     340A      0.380626   341A      0.381972   342A      0.387289  
     343A      0.388368   344A      0.390842   345A      0.392744  
     346A      0.397098   347A      0.398255   348A      0.398484  
     349A      0.399715   350A      0.400127   351A      0.401066  
     352A      0.403639   353A      0.403797   354A      0.404553  
     355A      0.404750   356A      0.408286   357A      0.413663  
     358A      0.415828   359A      0.417147   360A      0.417173  
     361A      0.422808   362A      0.424315   363A      0.424930  
     364A      0.426925   365A      0.431818   366A      0.431839  
     367A      0.433423   368A      0.438354   369A      0.438926  
     370A      0.440612   371A      0.441652   372A      0.441876  
     373A      0.445091   374A      0.447029   375A      0.448251  
     376A      0.448327   377A      0.449102   378A      0.449125  
     379A      0.450622   380A      0.450639   381A      0.452065  
     382A      0.453709   383A      0.455924   384A      0.458979  
     385A      0.459686   386A      0.460674   387A      0.462085  
     388A      0.462180   389A      0.463087   390A      0.463108  
     391A      0.465309   392A      0.466568   393A      0.466646  
     394A      0.467985   395A      0.469503   396A      0.474369  
     397A      0.474635   398A      0.477348   399A      0.477363  
     400A      0.477574   401A      0.478281   402A      0.479322  
     403A      0.480052   404A      0.486144   405A      0.491583  
     406A      0.492593   407A      0.492634   408A      0.493891  
     409A      0.496082   410A      0.497099   411A      0.499223  
     412A      0.499553   413A      0.501258   414A      0.501837  
     415A      0.505388   416A      0.505590   417A      0.505689  
     418A      0.515782   419A      0.515874   420A      0.516298  
     421A      0.518940   422A      0.520482   423A      0.520751  
     424A      0.523064   425A      0.524555   426A      0.525665  
     427A      0.526621   428A      0.527126   429A      0.528671  
     430A      0.533708   431A      0.534539   432A      0.535536  
     433A      0.537882   434A      0.540174   435A      0.540716  
     436A      0.541002   437A      0.541079   438A      0.544170  
     439A      0.545278   440A      0.548867   441A      0.549309  
     442A      0.551518   443A      0.552722   444A      0.557313  
     445A      0.558694   446A      0.558739   447A      0.559416  
     448A      0.569143   449A      0.569254   450A      0.569376  
     451A      0.573727   452A      0.574201   453A      0.581934  
     454A      0.582130   455A      0.583028   456A      0.583503  
     457A      0.586847   458A      0.593608   459A      0.593696  
     460A      0.600430   461A      0.600477   462A      0.602768  
     463A      0.603027   464A      0.603654   465A      0.605441  
     466A      0.606153   467A      0.606223   468A      0.609439  
     469A      0.613963   470A      0.614033   471A      0.614730  
     472A      0.615192   473A      0.615696   474A      0.620034  
     475A      0.623942   476A      0.624133   477A      0.646052  
     478A      0.646243   479A      0.650046   480A      0.653409  
     481A      0.653578   482A      0.665755   483A      0.671767  
     484A      0.671881   485A      0.679950   486A      0.680231  
     487A      0.680610   488A      0.680715   489A      0.698851  
     490A      0.699137   491A      0.701242   492A      0.701477  
     493A      0.706231   494A      0.706303   495A      0.710427  
     496A      0.723172   497A      0.723331   498A      0.723829  
     499A      0.731794   500A      0.731802   501A      0.733010  
     502A      0.737303   503A      0.740982   504A      0.742771  
     505A      0.770272   506A      0.770432   507A      0.787732  
     508A      0.794601   509A      0.797479   510A      0.797618  
     511A      0.797684   512A      0.797776   513A      0.810984  
     514A      0.811017   515A      0.817646   516A      0.820516  
     517A      0.830305   518A      0.845088   519A      0.850761  
     520A      0.850896   521A      0.859558   522A      0.861692  
     523A      0.862393   524A      0.862534   525A      0.868016  
     526A      0.868603   527A      0.877608   528A      0.877935  
     529A      0.881103   530A      0.881377   531A      0.881824  
     532A      0.889631   533A      0.895131   534A      0.897284  
     535A      0.899158   536A      0.908865   537A      0.909026  
     538A      0.914431   539A      0.919103   540A      0.919211  
     541A      0.923602   542A      0.924990   543A      0.925989  
     544A      0.928536   545A      0.930089   546A      0.930147  
     547A      0.931021   548A      0.932106   549A      0.932846  
     550A      0.935862   551A      0.942503   552A      0.942630  
     553A      0.947573   554A      0.951215   555A      0.951468  
     556A      0.952144   557A      0.953699   558A      0.961550  
     559A      0.962065   560A      0.964624   561A      0.964981  
     562A      0.965619   563A      0.967011   564A      0.970948  
     565A      0.974878   566A      0.975012   567A      0.975464  
     568A      0.980810   569A      0.986373   570A      0.986545  
     571A      0.986993   572A      0.989748   573A      0.989844  
     574A      0.997983   575A      0.998123   576A      0.999348  
     577A      0.999494   578A      1.010860   579A      1.010986  
     580A      1.011758   581A      1.022363   582A      1.022554  
     583A      1.026085   584A      1.026446   585A      1.027457  
     586A      1.027528   587A      1.031768   588A      1.032829  
     589A      1.036319   590A      1.042370   591A      1.042419  
     592A      1.046369   593A      1.053536   594A      1.053586  
     595A      1.059913   596A      1.067736   597A      1.067846  
     598A      1.068406   599A      1.071060   600A      1.071099  
     601A      1.086031   602A      1.086169   603A      1.090643  
     604A      1.090857   605A      1.092437   606A      1.092526  
     607A      1.092602   608A      1.096899   609A      1.097024  
     610A      1.099097   611A      1.099204   612A      1.100457  
     613A      1.102110   614A      1.103829   615A      1.103851  
     616A      1.107328   617A      1.107373   618A      1.114354  
     619A      1.116405   620A      1.117934   621A      1.118547  
     622A      1.123846   623A      1.124188   624A      1.127758  
     625A      1.130315   626A      1.130432   627A      1.133693  
     628A      1.135498   629A      1.137229   630A      1.138887  
     631A      1.140960   632A      1.141170   633A      1.143230  
     634A      1.143507   635A      1.143885   636A      1.156840  
     637A      1.158105   638A      1.158165   639A      1.158502  
     640A      1.169843   641A      1.169880   642A      1.174110  
     643A      1.174706   644A      1.178170   645A      1.179550  
     646A      1.181923   647A      1.182026   648A      1.187686  
     649A      1.192161   650A      1.192265   651A      1.196758  
     652A      1.198077   653A      1.198120   654A      1.199696  
     655A      1.200169   656A      1.209132   657A      1.219007  
     658A      1.226621   659A      1.230124   660A      1.233418  
     661A      1.233598   662A      1.237691   663A      1.239728  
     664A      1.239905   665A      1.248580   666A      1.249205  
     667A      1.254719   668A      1.254832   669A      1.264753  
     670A      1.272112   671A      1.272120   672A      1.275527  
     673A      1.277174   674A      1.277221   675A      1.288935  
     676A      1.291155   677A      1.291406   678A      1.310444  
     679A      1.310753   680A      1.315656   681A      1.315750  
     682A      1.317445   683A      1.317570   684A      1.318546  
     685A      1.318712   686A      1.326494   687A      1.330662  
     688A      1.331417   689A      1.347357   690A      1.347982  
     691A      1.348299   692A      1.348500   693A      1.351547  
     694A      1.352473   695A      1.352720   696A      1.354326  
     697A      1.358689   698A      1.362530   699A      1.363274  
     700A      1.363674   701A      1.367190   702A      1.373005  
     703A      1.373331   704A      1.375940   705A      1.378109  
     706A      1.384653   707A      1.384758   708A      1.388289  
     709A      1.394306   710A      1.395585   711A      1.397040  
     712A      1.398274   713A      1.403159   714A      1.409978  
     715A      1.409996   716A      1.412852   717A      1.413876  
     718A      1.413941   719A      1.414528   720A      1.421345  
     721A      1.421632   722A      1.433336   723A      1.445835  
     724A      1.452134   725A      1.458457   726A      1.458514  
     727A      1.463238   728A      1.463324   729A      1.465957  
     730A      1.466167   731A      1.474984   732A      1.475287  
     733A      1.479650   734A      1.480250   735A      1.484182  
     736A      1.485186   737A      1.488314   738A      1.490390  
     739A      1.490439   740A      1.493708   741A      1.493765  
     742A      1.494118   743A      1.502139   744A      1.502469  
     745A      1.505057   746A      1.519084   747A      1.519367  
     748A      1.528386   749A      1.528756   750A      1.570808  
     751A      1.570889   752A      1.576362   753A      1.576372  
     754A      1.582431   755A      1.607519   756A      1.630021  
     757A      1.634203   758A      1.637265   759A      1.637631  
     760A      1.654561   761A      1.654858   762A      1.655434  
     763A      1.664419   764A      1.664458   765A      1.664513  
     766A      1.669561   767A      1.669763   768A      1.673882  
     769A      1.677380   770A      1.677607   771A      1.686322  
     772A      1.686641   773A      1.694767   774A      1.694842  
     775A      1.698904   776A      1.698959   777A      1.698993  
     778A      1.699640   779A      1.704551   780A      1.715675  
     781A      1.715736   782A      1.722057   783A      1.730922  
     784A      1.731024   785A      1.732221   786A      1.732299  
     787A      1.732340   788A      1.736474   789A      1.741705  
     790A      1.741762   791A      1.750564   792A      1.751502  
     793A      1.753610   794A      1.753687   795A      1.756211  
     796A      1.760607   797A      1.760688   798A      1.769943  
     799A      1.769979   800A      1.796473   801A      1.806675  
     802A      1.813875   803A      1.813917   804A      1.814174  
     805A      1.816156   806A      1.831306   807A      1.831322  
     808A      1.845991   809A      1.846005   810A      1.870477  
     811A      1.870581   812A      1.870707   813A      1.872900  
     814A      1.880000   815A      1.880088   816A      1.885403  
     817A      1.885510   818A      1.890897   819A      1.897641  
     820A      1.898002   821A      1.914540   822A      1.914611  
     823A      1.915120   824A      1.915401   825A      1.918152  
     826A      1.923116   827A      1.926776   828A      1.933684  
     829A      1.935279   830A      1.935307   831A      1.947720  
     832A      1.950897   833A      1.950975   834A      1.952918  
     835A      1.956435   836A      1.956530   837A      1.963631  
     838A      1.963773   839A      1.967993   840A      1.968310  
     841A      1.972443   842A      1.972589   843A      1.974131  
     844A      1.976773   845A      1.976853   846A      1.993401  
     847A      1.995930   848A      1.996104   849A      1.996602  
     850A      1.999338   851A      1.999363   852A      2.001034  
     853A      2.001774   854A      2.003735   855A      2.009127  
     856A      2.009187   857A      2.009374   858A      2.009876  
     859A      2.012735   860A      2.023864   861A      2.030506  
     862A      2.030991   863A      2.035906   864A      2.038793  
     865A      2.039318   866A      2.044476   867A      2.051636  
     868A      2.052670   869A      2.052740   870A      2.057277  
     871A      2.061446   872A      2.066601   873A      2.066762  
     874A      2.081676   875A      2.082989   876A      2.084586  
     877A      2.084681   878A      2.085105   879A      2.085814  
     880A      2.085911   881A      2.102474   882A      2.106130  
     883A      2.106512   884A      2.112394   885A      2.113035  
     886A      2.114258   887A      2.114690   888A      2.122651  
     889A      2.123353   890A      2.125506   891A      2.126167  
     892A      2.126490   893A      2.130659   894A      2.130778  
     895A      2.135290   896A      2.137311   897A      2.139553  
     898A      2.140554   899A      2.143810   900A      2.147017  
     901A      2.148210   902A      2.148674   903A      2.150923  
     904A      2.152129   905A      2.155016   906A      2.155121  
     907A      2.161227   908A      2.162765   909A      2.162857  
     910A      2.165032   911A      2.165268   912A      2.166960  
     913A      2.168708   914A      2.173356   915A      2.173487  
     916A      2.175424   917A      2.175669   918A      2.180338  
     919A      2.180576   920A      2.188136   921A      2.189083  
     922A      2.189772   923A      2.189839   924A      2.197303  
     925A      2.197318   926A      2.209903   927A      2.215018  
     928A      2.215044   929A      2.217507   930A      2.217564  
     931A      2.226807   932A      2.232608   933A      2.232682  
     934A      2.243750   935A      2.244080   936A      2.246905  
     937A      2.247568   938A      2.251796   939A      2.251891  
     940A      2.253960   941A      2.274151   942A      2.275742  
     943A      2.275782   944A      2.281920   945A      2.283482  
     946A      2.283713   947A      2.284928   948A      2.296171  
     949A      2.296471   950A      2.297375   951A      2.297805  
     952A      2.300467   953A      2.313439   954A      2.313567  
     955A      2.324376   956A      2.324393   957A      2.325825  
     958A      2.325878   959A      2.334063   960A      2.354101  
     961A      2.360738   962A      2.365398   963A      2.367140  
     964A      2.375205   965A      2.377442   966A      2.386090  
     967A      2.386830   968A      2.386918   969A      2.389233  
     970A      2.405781   971A      2.406393   972A      2.406929  
     973A      2.407079   974A      2.421428   975A      2.421526  
     976A      2.430600   977A      2.433739   978A      2.469708  
     979A      2.478711   980A      2.478899   981A      2.478901  
     982A      2.490455   983A      2.496101   984A      2.496170  
     985A      2.524754   986A      2.526792   987A      2.526973  
     988A      2.539579   989A      2.539665   990A      2.556838  
     991A      2.572961   992A      2.584140   993A      2.584615  
     994A      2.597028   995A      2.599191   996A      2.599338  
     997A      2.607471   998A      2.607514   999A      2.610306  
    1000A      2.614298  1001A      2.614306  1002A      2.627673  
    1003A      2.627708  1004A      2.627991  1005A      2.628540  
    1006A      2.640322  1007A      2.640470  1008A      2.642074  
    1009A      2.644172  1010A      2.644513  1011A      2.659975  
    1012A      2.677223  1013A      2.677263  1014A      2.679627  
    1015A      2.686309  1016A      2.686859  1017A      2.694943  
    1018A      2.695008  1019A      2.704384  1020A      2.704723  
    1021A      2.710911  1022A      2.736827  1023A      2.737943  
    1024A      2.738138  1025A      2.739955  1026A      2.757614  
    1027A      2.757933  1028A      2.768100  1029A      2.768141  
    1030A      2.773520  1031A      2.773562  1032A      2.777052  
    1033A      2.777289  1034A      2.792269  1035A      2.806011  
    1036A      2.806549  1037A      2.832275  1038A      2.849466  
    1039A      2.849598  1040A      2.870013  1041A      2.882005  
    1042A      2.882425  1043A      2.905824  1044A      2.905938  
    1045A      2.911893  1046A      2.914103  1047A      2.914458  
    1048A      2.914539  1049A      2.921057  1050A      2.945337  
    1051A      2.946882  1052A      2.949023  1053A      2.970461  
    1054A      2.970524  1055A      2.977511  1056A      2.987410  
    1057A      2.987519  1058A      3.003794  1059A      3.003848  
    1060A      3.016646  1061A      3.061198  1062A      3.061632  
    1063A      3.065140  1064A      3.082888  1065A      3.119398  
    1066A      3.119469  1067A      3.125194  1068A      3.125350  
    1069A      3.163338  1070A      3.164112  1071A      3.180946  
    1072A      3.183590  1073A      3.183954  1074A      3.191540  
    1075A      3.200116  1076A      3.200267  1077A      3.200315  
    1078A      3.202848  1079A      3.202855  1080A      3.211599  
    1081A      3.212039  1082A      3.219651  1083A      3.220095  
    1084A      3.245189  1085A      3.264704  1086A      3.268943  
    1087A      3.273365  1088A      3.291560  1089A      3.327517  
    1090A      3.331620  1091A      3.331746  1092A      3.336498  
    1093A      3.336755  1094A      3.471521  1095A      3.471952  
    1096A      3.500613  1097A      3.536905  1098A      3.539608  
    1099A      3.604897  1100A      3.632972  1101A      3.634901  
    1102A      3.649621  1103A      3.681240  1104A      3.683258  
    1105A      3.717463  1106A      3.721910  1107A      3.824297  
    1108A      3.838205  1109A      3.839145  1110A      3.924836  
    1111A      3.924842  1112A      3.967563  1113A      3.967698  
    1114A      4.032261  1115A      4.066277  1116A      4.089365  
    1117A      4.101292  1118A      4.137513  1119A      4.175269  
    1120A      4.175484  1121A      4.175773  1122A      4.203055  
    1123A      4.203316  1124A      4.203696  1125A      4.204054  
    1126A      4.204209  1127A      4.235842  1128A      4.235986  
    1129A      4.236382  1130A      4.450511  1131A      4.450860  
    1132A      4.451016  1133A      4.650143  1134A      4.651126  
    1135A      4.651323  1136A      4.751912  1137A      4.787494  
    1138A      4.787981  

    Final Occupation by Irrep:
              A 
    DOCC [   192 ]
    NA   [   192 ]
    NB   [   192 ]

  @DF-RHF Final Energy: -2478.65834177925535

   => Energetics <=

    Nuclear Repulsion Energy =           7447.3094236656834255
    One-Electron Energy =              -18244.8551145513774827
    Two-Electron Energy =                8318.8873491064387053
    Total Energy =                      -2478.6583417792553519

Computation Completed


Properties will be evaluated at   0.000000,   0.000000,   0.000000 [a0]

Properties computed using the SCF density matrix


 Multipole Moments:

 ------------------------------------------------------------------------------------
     Multipole            Electronic (a.u.)      Nuclear  (a.u.)        Total (a.u.)
 ------------------------------------------------------------------------------------

 L = 1.  Multiply by 2.5417464519 to convert [e a0] to [Debye]
 Dipole X            :         -0.0001754           -0.0000160           -0.0001914
 Dipole Y            :          0.0013113           -0.0001716            0.0011397
 Dipole Z            :         35.4510319          -47.8164270          -12.3653951
 Magnitude           :                                                   12.3653951

 ------------------------------------------------------------------------------------

*** tstop() called on d-16-5-1 at Mon Jan 22 12:15:47 2024
Module time:
	user time   =    3313.34 seconds =      55.22 minutes
	system time =      46.33 seconds =       0.77 minutes
	total time  =        365 seconds =       6.08 minutes
Total time:
	user time   =    3313.34 seconds =      55.22 minutes
	system time =      46.33 seconds =       0.77 minutes
	total time  =        365 seconds =       6.08 minutes

  //>>>>>>>>>>>>>>>>>>>>>>>>>>>>>>>>>>>//
  //            Monomer A HF           //
  //<<<<<<<<<<<<<<<<<<<<<<<<<<<<<<<<<<<//

   => Libint2 <=

    Primary   basis highest AM E, G, H:  7, 7, 4
    Auxiliary basis highest AM E, G, H:  7, 7, 5
    Onebody   basis highest AM E, G, H:  7, 7, 5
    Solid Harmonics ordering:            gaussian

*** tstart() called on d-16-5-1
*** at Mon Jan 22 12:15:47 2024

   => Loading Basis Set <=

    Name: JUN-CC-PVDZ
    Role: ORBITAL
    Keyword: BASIS
    atoms 1     entry B          line   130 file /home/gridsan/tfroembgen/.conda/envs/psi4test/share/psi4/basis/jun-cc-pvdz.gbs 
    atoms 2-5   entry F          line   266 file /home/gridsan/tfroembgen/.conda/envs/psi4test/share/psi4/basis/jun-cc-pvdz.gbs 
    atoms 6-59  entry C          line   164 file /home/gridsan/tfroembgen/.conda/envs/psi4test/share/psi4/basis/jun-cc-pvdz.gbs 
    atoms 60-77 entry H          line    36 file /home/gridsan/tfroembgen/.conda/envs/psi4test/share/psi4/basis/jun-cc-pvdz.gbs 


         ---------------------------------------------------------
                                   SCF
               by Justin Turney, Rob Parrish, Andy Simmonett
                          and Daniel G. A. Smith
                              RHF Reference
                       12 Threads,  30517 MiB Core
         ---------------------------------------------------------

  ==> Geometry <==

    Molecular point group: c1
    Full point group: C1

    Geometry (in Angstrom), charge = -1, multiplicity = 1:

       Center              X                  Y                   Z               Mass       
    ------------   -----------------  -----------------  -----------------  -----------------
         B           -0.000046449334     0.000336519434     6.898942856736    11.009305360000
         F           -1.153597449334     0.000047519434     7.714589856736    18.998403162730
         F            1.153660550666    -0.000581480566     7.714589856736    18.998403162730
         F           -0.000019449334    -1.153637480566     6.083308856736    18.998403162730
         F           -0.000019449334     1.153977519434     6.083308856736    18.998403162730
      Gh(C)           1.225311925931     0.707538180353    -0.894913515980    12.000000000000
      Gh(C)           1.225323886559    -0.707539003137    -0.907244325550    12.000000000000
      Gh(C)          -0.000006123424     1.414965805524    -0.907777949071    12.000000000000
      Gh(C)           2.456448784457     1.418327778612    -0.892026658580    12.000000000000
      Gh(C)           0.000010857787    -1.414976607201    -0.897578391747    12.000000000000
      Gh(C)          -1.225300918401     0.707545265418    -0.892661995658    12.000000000000
      Gh(C)           2.456437785828    -1.418323412447    -0.909489482407    12.000000000000
      Gh(C)          -0.000001302470     2.836800922715    -0.910181499205    12.000000000000
      Gh(C)           3.681826727978     0.709317847435    -0.909140692609    12.000000000000
      Gh(C)           2.455120079373     2.834223552923    -0.909243249570    12.000000000000
      Gh(C)           3.681821135726    -0.709333947995    -0.893068208591    12.000000000000
      Gh(C)          -1.225313568180    -0.707527624110    -0.906171564123    12.000000000000
      Gh(C)           1.226699611710     3.543469375428    -0.892884176660    12.000000000000
      Gh(C)           0.000004815365    -2.836782247802    -0.892730224125    12.000000000000
      Gh(C)          -2.456436002341     1.418316809719    -0.892626599812    12.000000000000
      Gh(C)           2.455123448287    -2.834230137155    -0.893220116959    12.000000000000
      Gh(C)          -1.226714334082     3.543468955184    -0.892780843441    12.000000000000
      Gh(C)           4.914517325709     1.427172763923    -0.902660009580    12.000000000000
      Gh(C)           3.693150221984     3.542795183979    -0.902610209944    12.000000000000
      Gh(C)          -2.456437569560    -1.418313389406    -0.909514520532    12.000000000000
      Gh(C)           1.226704872451    -3.543474350473    -0.908854307410    12.000000000000
      Gh(C)          -2.455125368000     2.834216554068    -0.909236873224    12.000000000000
      Gh(C)           4.914524411290    -1.427187018510    -0.899687266845    12.000000000000
      Gh(C)           1.221424644206     4.970133956694    -0.899548832586    12.000000000000
      Gh(C)           4.893008259828     2.825187891460    -0.901443341221    12.000000000000
      Gh(C)          -1.226696977981    -3.543471105643    -0.908587103000    12.000000000000
      Gh(C)          -3.681818946018     0.709324858166    -0.909128012129    12.000000000000
      Gh(C)           3.693147131658    -3.542801449957    -0.899569376284    12.000000000000
      Gh(C)          -1.221432221486     4.970128189296    -0.899365337213    12.000000000000
      Gh(C)           6.134771003434     0.680547838539    -0.901890235030    12.000000000000
      Gh(C)           3.656788911118     4.972953135001    -0.901701572161    12.000000000000
      Gh(C)          -2.455126877226    -2.834215201627    -0.893464474757    12.000000000000
      Gh(C)          -3.681819148553    -0.709325812035    -0.892950587012    12.000000000000
      Gh(C)           4.893012648421    -2.825200214198    -0.900832189326    12.000000000000
      Gh(C)          -0.000001042605     5.650447257466    -0.900596645920    12.000000000000
      Gh(C)           6.134775142840    -0.680554962641    -0.900624914514    12.000000000000
      Gh(C)           2.478131513363     5.653576642765    -0.900412792511    12.000000000000
      Gh(C)           1.221422435245    -4.970127163499    -0.902348329608    12.000000000000
      Gh(C)          -3.693162353457     3.542796845626    -0.902444702484    12.000000000000
      Gh(C)          -1.221428490437    -4.970118412162    -0.902461091441    12.000000000000
      Gh(C)          -4.914521777434     1.427175338429    -0.902583064572    12.000000000000
      Gh(C)           3.656787050187    -4.972955334806    -0.900251071627    12.000000000000
      Gh(C)          -2.478138499598     5.653574313962    -0.900128267503    12.000000000000
      Gh(C)          -3.693141708056    -3.542790327545    -0.899685502440    12.000000000000
      Gh(C)          -4.914512452545    -1.427181108594    -0.899652569672    12.000000000000
      Gh(C)          -0.000005978418    -5.650438395580    -0.900992150041    12.000000000000
      Gh(C)          -4.893020453593     2.825188490353    -0.901453423081    12.000000000000
      Gh(C)           2.478126023806    -5.653573652455    -0.901341672419    12.000000000000
      Gh(C)          -3.656798679750     4.972956073475    -0.901524891786    12.000000000000
      Gh(C)          -4.892999448349    -2.825191875626    -0.900986225023    12.000000000000
      Gh(C)          -2.478128467575    -5.653566278573    -0.901616860067    12.000000000000
      Gh(C)          -6.134770472823     0.680548657690    -0.901915786732    12.000000000000
      Gh(C)          -3.656788802681    -4.972944131537    -0.900465359444    12.000000000000
      Gh(C)          -6.134765012405    -0.680554024048    -0.900645390309    12.000000000000
      Gh(H)           5.835288526324     3.369275786388    -0.897084015558     1.007825032230
      Gh(H)           7.073859203255     1.228217140333    -0.901428591637     1.007825032230
      Gh(H)           4.600663294682     5.512380693887    -0.901196371409     1.007825032230
      Gh(H)           5.835283417813    -3.369306165295    -0.905286656640     1.007825032230
      Gh(H)          -0.000012120798     6.738530565570    -0.904945890928     1.007825032230
      Gh(H)           7.073861202338    -1.228227051310    -0.901133652609     1.007825032230
      Gh(H)           2.473313762307     6.740684182828    -0.900879513442     1.007825032230
      Gh(H)           4.600668521889    -5.512376237742    -0.900661068795     1.007825032230
      Gh(H)          -2.473318650030     6.740681611040    -0.900578166817     1.007825032230
      Gh(H)          -0.000010237720    -6.738528285018    -0.896462465056     1.007825032230
      Gh(H)          -5.835301883836     3.369270841730    -0.896947993410     1.007825032230
      Gh(H)           2.473307954339    -6.740685482995    -0.900771341994     1.007825032230
      Gh(H)          -4.600674810700     5.512377918037    -0.901031043085     1.007825032230
      Gh(H)          -5.835279476327    -3.369289072346    -0.905565962521     1.007825032230
      Gh(H)          -2.473300316932    -6.740679186706    -0.901220658539     1.007825032230
      Gh(H)          -7.073857736260     1.228220364274    -0.901512583118     1.007825032230
      Gh(H)          -4.600673755577    -5.512362778353    -0.900833376818     1.007825032230
      Gh(H)          -7.073856903901    -1.228220740543    -0.901228509075     1.007825032230

  Running in c1 symmetry.

  Rotational constants: A =      0.00136  B =      0.00136  C =      0.00110 [cm^-1]
  Rotational constants: A =     40.80970  B =     40.80572  C =     33.02250 [MHz]
  Nuclear repulsion =  178.879482610381331

  Charge       = -1
  Multiplicity = 1
  Electrons    = 42
  Nalpha       = 21
  Nbeta        = 21

  ==> Algorithm <==

  SCF Algorithm Type is DF.
  DIIS enabled.
  MOM disabled.
  Fractional occupation disabled.
  Guess Type is SAD.
  Energy threshold   = 1.00e-08
  Density threshold  = 1.00e-08
  Integral threshold = 1.00e-12

  ==> Primary Basis <==

  Basis Set: JUN-CC-PVDZ
    Blend: JUN-CC-PVDZ
    Number of shells: 526
    Number of basis functions: 1152
    Number of Cartesian functions: 1211
    Spherical Harmonics?: true
    Max angular momentum: 2

   => Loading Basis Set <=

    Name: (JUN-CC-PVDZ AUX)
    Role: JKFIT
    Keyword: DF_BASIS_SCF
    atoms 1     entry B          line    90 file /home/gridsan/tfroembgen/.conda/envs/psi4test/share/psi4/basis/jun-cc-pvdz-jkfit.gbs 
    atoms 2-5   entry F          line   314 file /home/gridsan/tfroembgen/.conda/envs/psi4test/share/psi4/basis/jun-cc-pvdz-jkfit.gbs 
    atoms 6-59  entry C          line   146 file /home/gridsan/tfroembgen/.conda/envs/psi4test/share/psi4/basis/jun-cc-pvdz-jkfit.gbs 
    atoms 60-77 entry H          line    70 file /home/gridsan/tfroembgen/.conda/envs/psi4test/share/psi4/basis/jun-cc-pvdz-jkfit.gbs 

  ==> Integral Setup <==

  ==> DiskDFJK: Density-Fitted J/K Matrices <==

    J tasked:                  Yes
    K tasked:                  Yes
    wK tasked:                  No
    OpenMP threads:             12
    Integrals threads:          12
    Memory [MiB]:            22888
    Algorithm:                Core
    Integral Cache:           LOAD
    Schwarz Cutoff:          1E-12
    Fitting Condition:       1E-10

   => Auxiliary Basis Set <=

  Basis Set: (JUN-CC-PVDZ AUX)
    Blend: JUN-CC-PVDZ-JKFIT
    Number of shells: 1755
    Number of basis functions: 5075
    Number of Cartesian functions: 5819
    Spherical Harmonics?: true
    Max angular momentum: 3

  Minimum eigenvalue in the overlap matrix is 8.3991930661E-10.
  Reciprocal condition number of the overlap matrix is 3.7563144597E-11.
    Using canonical orthogonalization.
  Overall, 14 of 1152 possible MOs eliminated.


  ==> Pre-Iterations <==

  SCF Guess: Superposition of Atomic Densities via on-the-fly atomic UHF (no occupation information).

   -------------------------
    Irrep   Nso     Nmo    
   -------------------------
     A       1152    1138 
   -------------------------
    Total    1152    1138
   -------------------------

  ==> Iterations <==

                           Total Energy        Delta E     RMS |[F,P]|

   @DF-RHF iter SAD:  -421.23044414100275   -4.21230e+02   0.00000e+00 
   @DF-RHF iter   1:  -422.64970586556115   -1.41926e+00   5.29779e-04 DIIS/ADIIS
   @DF-RHF iter   2:  -422.73247160373421   -8.27657e-02   3.22849e-04 DIIS/ADIIS
   @DF-RHF iter   3:  -422.77104309563379   -3.85715e-02   1.73765e-05 DIIS
   @DF-RHF iter   4:  -422.77140341615785   -3.60321e-04   2.74985e-06 DIIS
   @DF-RHF iter   5:  -422.77141204927597   -8.63312e-06   7.00210e-07 DIIS
   @DF-RHF iter   6:  -422.77141260438799   -5.55112e-07   1.44511e-07 DIIS
   @DF-RHF iter   7:  -422.77141262525117   -2.08632e-08   1.43263e-08 DIIS
   @DF-RHF iter   8:  -422.77141262546007   -2.08900e-10   4.73993e-09 DIIS
  Energy and wave function converged.


  ==> Post-Iterations <==

    Orbital Energies [Eh]
    ---------------------

    Doubly Occupied:                                                      

       1A    -26.067093     2A    -26.067027     3A    -26.066993  
       4A    -26.066912     5A     -7.539298     6A     -1.410959  
       7A     -1.351245     8A     -1.351193     9A     -1.351059  
      10A     -0.602241    11A     -0.528450    12A     -0.528420  
      13A     -0.528362    14A     -0.447304    15A     -0.447262  
      16A     -0.408464    17A     -0.408429    18A     -0.408369  
      19A     -0.384992    20A     -0.384953    21A     -0.384905  

    Virtual:                                                              

      22A      0.074269    23A      0.076825    24A      0.076956  
      25A      0.085484    26A      0.085487    27A      0.096200  
      28A      0.098535    29A      0.098634    30A      0.114080  
      31A      0.114182    32A      0.114825    33A      0.114831  
      34A      0.121176    35A      0.129618    36A      0.129939  
      37A      0.132359    38A      0.132372    39A      0.133450  
      40A      0.133465    41A      0.139887    42A      0.142725  
      43A      0.142735    44A      0.153008    45A      0.153950  
      46A      0.154337    47A      0.155023    48A      0.159879  
      49A      0.163298    50A      0.166492    51A      0.166741  
      52A      0.167014    53A      0.172379    54A      0.172918  
      55A      0.175893    56A      0.175897    57A      0.176870  
      58A      0.177271    59A      0.181456    60A      0.183757  
      61A      0.183841    62A      0.185812    63A      0.185835  
      64A      0.189491    65A      0.189498    66A      0.195272  
      67A      0.195301    68A      0.197590    69A      0.198267  
      70A      0.198706    71A      0.201646    72A      0.201707  
      73A      0.203865    74A      0.204778    75A      0.206428  
      76A      0.206464    77A      0.207985    78A      0.210553  
      79A      0.213320    80A      0.213324    81A      0.218867  
      82A      0.218931    83A      0.219187    84A      0.223121  
      85A      0.230432    86A      0.231700    87A      0.231832  
      88A      0.231881    89A      0.231924    90A      0.232556  
      91A      0.233189    92A      0.241771    93A      0.242177  
      94A      0.242265    95A      0.244716    96A      0.246377  
      97A      0.249845    98A      0.250002    99A      0.251124  
     100A      0.256196   101A      0.256217   102A      0.257158  
     103A      0.257235   104A      0.260167   105A      0.260207  
     106A      0.261266   107A      0.261375   108A      0.271341  
     109A      0.271396   110A      0.271938   111A      0.276535  
     112A      0.276584   113A      0.280040   114A      0.281052  
     115A      0.281182   116A      0.282462   117A      0.287128  
     118A      0.287191   119A      0.288278   120A      0.288329  
     121A      0.291461   122A      0.297815   123A      0.297943  
     124A      0.300766   125A      0.300780   126A      0.304593  
     127A      0.307971   128A      0.308023   129A      0.310784  
     130A      0.311156   131A      0.316566   132A      0.316740  
     133A      0.316783   134A      0.317181   135A      0.317203  
     136A      0.330263   137A      0.330285   138A      0.332948  
     139A      0.334166   140A      0.334190   141A      0.334424  
     142A      0.337547   143A      0.337595   144A      0.339246  
     145A      0.339273   146A      0.339969   147A      0.341697  
     148A      0.346396   149A      0.350985   150A      0.352891  
     151A      0.353161   152A      0.354569   153A      0.358007  
     154A      0.358728   155A      0.363683   156A      0.373144  
     157A      0.373262   158A      0.376630   159A      0.376652  
     160A      0.377223   161A      0.380853   162A      0.381112  
     163A      0.383106   164A      0.385070   165A      0.385525  
     166A      0.385556   167A      0.389020   168A      0.391114  
     169A      0.392388   170A      0.394782   171A      0.397381  
     172A      0.398011   173A      0.399020   174A      0.409945  
     175A      0.410113   176A      0.411139   177A      0.411647  
     178A      0.411998   179A      0.416178   180A      0.418670  
     181A      0.420890   182A      0.422121   183A      0.422487  
     184A      0.422565   185A      0.424923   186A      0.426260  
     187A      0.426368   188A      0.428331   189A      0.428564  
     190A      0.433900   191A      0.434510   192A      0.435510  
     193A      0.435671   194A      0.435983   195A      0.437163  
     196A      0.438357   197A      0.446138   198A      0.449598  
     199A      0.451212   200A      0.458032   201A      0.458400  
     202A      0.461302   203A      0.461523   204A      0.462131  
     205A      0.466580   206A      0.469266   207A      0.469608  
     208A      0.471413   209A      0.472284   210A      0.473017  
     211A      0.473984   212A      0.477097   213A      0.481619  
     214A      0.483614   215A      0.485618   216A      0.485645  
     217A      0.486494   218A      0.489137   219A      0.489207  
     220A      0.492634   221A      0.493448   222A      0.495512  
     223A      0.495976   224A      0.500794   225A      0.501554  
     226A      0.501707   227A      0.502214   228A      0.503312  
     229A      0.505173   230A      0.507187   231A      0.509826  
     232A      0.509903   233A      0.510753   234A      0.512035  
     235A      0.516241   236A      0.517224   237A      0.517831  
     238A      0.524229   239A      0.526783   240A      0.527475  
     241A      0.527576   242A      0.532040   243A      0.532933  
     244A      0.533937   245A      0.536356   246A      0.536383  
     247A      0.540511   248A      0.541919   249A      0.543199  
     250A      0.544562   251A      0.545083   252A      0.548525  
     253A      0.551275   254A      0.551808   255A      0.553841  
     256A      0.554402   257A      0.555091   258A      0.559901  
     259A      0.560100   260A      0.560842   261A      0.566423  
     262A      0.572219   263A      0.573574   264A      0.574191  
     265A      0.574356   266A      0.576264   267A      0.580153  
     268A      0.583601   269A      0.584396   270A      0.584811  
     271A      0.585639   272A      0.586120   273A      0.586826  
     274A      0.587012   275A      0.588410   276A      0.602829  
     277A      0.602974   278A      0.604484   279A      0.605480  
     280A      0.605642   281A      0.607509   282A      0.612442  
     283A      0.623524   284A      0.623714   285A      0.626219  
     286A      0.626706   287A      0.626723   288A      0.627001  
     289A      0.634536   290A      0.636066   291A      0.636689  
     292A      0.637066   293A      0.637903   294A      0.643176  
     295A      0.648404   296A      0.653178   297A      0.653345  
     298A      0.662993   299A      0.663067   300A      0.665424  
     301A      0.666262   302A      0.666306   303A      0.667344  
     304A      0.668886   305A      0.670402   306A      0.670426  
     307A      0.675732   308A      0.676007   309A      0.683812  
     310A      0.691204   311A      0.693538   312A      0.696082  
     313A      0.696513   314A      0.696599   315A      0.700810  
     316A      0.700966   317A      0.701046   318A      0.701838  
     319A      0.702914   320A      0.703912   321A      0.705377  
     322A      0.716938   323A      0.718125   324A      0.721823  
     325A      0.728630   326A      0.733213   327A      0.734217  
     328A      0.734619   329A      0.734661   330A      0.735683  
     331A      0.738918   332A      0.741679   333A      0.742018  
     334A      0.743387   335A      0.749781   336A      0.749831  
     337A      0.754041   338A      0.756240   339A      0.756346  
     340A      0.765124   341A      0.765501   342A      0.767605  
     343A      0.769394   344A      0.769781   345A      0.770978  
     346A      0.771207   347A      0.776724   348A      0.783529  
     349A      0.783566   350A      0.785897   351A      0.786553  
     352A      0.798077   353A      0.800984   354A      0.801044  
     355A      0.815081   356A      0.815107   357A      0.816903  
     358A      0.821727   359A      0.824921   360A      0.826175  
     361A      0.826219   362A      0.827784   363A      0.829183  
     364A      0.829348   365A      0.834336   366A      0.834647  
     367A      0.834688   368A      0.839844   369A      0.839916  
     370A      0.842041   371A      0.846390   372A      0.850170  
     373A      0.850201   374A      0.852337   375A      0.855171  
     376A      0.855235   377A      0.859568   378A      0.859694  
     379A      0.861426   380A      0.863984   381A      0.870604  
     382A      0.893488   383A      0.893530   384A      0.904252  
     385A      0.904305   386A      0.922162   387A      0.923234  
     388A      0.925346   389A      0.926877   390A      0.928209  
     391A      0.931000   392A      0.937629   393A      0.937682  
     394A      0.939004   395A      0.945470   396A      0.945712  
     397A      0.953550   398A      0.954276   399A      0.954309  
     400A      0.959935   401A      0.984045   402A      0.988124  
     403A      0.988140   404A      1.005009   405A      1.014639  
     406A      1.014675   407A      1.024713   408A      1.024745  
     409A      1.032788   410A      1.041192   411A      1.049636  
     412A      1.049677   413A      1.062735   414A      1.067515  
     415A      1.089574   416A      1.089617   417A      1.108786  
     418A      1.108838   419A      1.116259   420A      1.119151  
     421A      1.119165   422A      1.127589   423A      1.127595  
     424A      1.153135   425A      1.156275   426A      1.156340  
     427A      1.163016   428A      1.214838   429A      1.214872  
     430A      1.219594   431A      1.219740   432A      1.226396  
     433A      1.233545   434A      1.237316   435A      1.237375  
     436A      1.255064   437A      1.255112   438A      1.270342  
     439A      1.277533   440A      1.277575   441A      1.283798  
     442A      1.290466   443A      1.344348   444A      1.344439  
     445A      1.348309   446A      1.355362   447A      1.355381  
     448A      1.357065   449A      1.364481   450A      1.364508  
     451A      1.365729   452A      1.378660   453A      1.378750  
     454A      1.387016   455A      1.389556   456A      1.419593  
     457A      1.429979   458A      1.429996   459A      1.477658  
     460A      1.504094   461A      1.504578   462A      1.522245  
     463A      1.522285   464A      1.526703   465A      1.528658  
     466A      1.528783   467A      1.531990   468A      1.542409  
     469A      1.543295   470A      1.606345   471A      1.615152  
     472A      1.615291   473A      1.618171   474A      1.619341  
     475A      1.627592   476A      1.630786   477A      1.633285  
     478A      1.635265   479A      1.683907   480A      1.696677  
     481A      1.699226   482A      1.709522   483A      1.712322  
     484A      1.720476   485A      1.724599   486A      1.725301  
     487A      1.744632   488A      1.745419   489A      1.746198  
     490A      1.749067   491A      1.760382   492A      1.801358  
     493A      1.802582   494A      1.802833   495A      1.803688  
     496A      1.804889   497A      1.811915   498A      1.815088  
     499A      1.815966   500A      1.816930   501A      1.824317  
     502A      1.826561   503A      1.839102   504A      1.848411  
     505A      1.849170   506A      1.854044   507A      1.854167  
     508A      1.859468   509A      1.866560   510A      1.872488  
     511A      1.883699   512A      1.884402   513A      1.887406  
     514A      1.887534   515A      1.887833   516A      1.889196  
     517A      1.892628   518A      1.892899   519A      1.897198  
     520A      1.898186   521A      1.900326   522A      1.902559  
     523A      1.910174   524A      1.917745   525A      1.918333  
     526A      1.929718   527A      1.932447   528A      1.932760  
     529A      1.934326   530A      1.935377   531A      1.941835  
     532A      1.946340   533A      1.947357   534A      1.947926  
     535A      1.949173   536A      1.949447   537A      1.964839  
     538A      1.966050   539A      1.966285   540A      1.967596  
     541A      1.967922   542A      1.971288   543A      1.978514  
     544A      1.978784   545A      1.986083   546A      1.986840  
     547A      1.989575   548A      1.991315   549A      1.991704  
     550A      1.993451   551A      1.995562   552A      1.998355  
     553A      2.001301   554A      2.001833   555A      2.005785  
     556A      2.008823   557A      2.027017   558A      2.027882  
     559A      2.027992   560A      2.028993   561A      2.029676  
     562A      2.032387   563A      2.034282   564A      2.037512  
     565A      2.045887   566A      2.046014   567A      2.051563  
     568A      2.054519   569A      2.056502   570A      2.056625  
     571A      2.060818   572A      2.061051   573A      2.061096  
     574A      2.067281   575A      2.078894   576A      2.079205  
     577A      2.088713   578A      2.088945   579A      2.117219  
     580A      2.125375   581A      2.125531   582A      2.130513  
     583A      2.135030   584A      2.136764   585A      2.137394  
     586A      2.138980   587A      2.140627   588A      2.141319  
     589A      2.147055   590A      2.153357   591A      2.153712  
     592A      2.157596   593A      2.158531   594A      2.174131  
     595A      2.174204   596A      2.178021   597A      2.179637  
     598A      2.180254   599A      2.187227   600A      2.187296  
     601A      2.197471   602A      2.197962   603A      2.198051  
     604A      2.200903   605A      2.201056   606A      2.205164  
     607A      2.205270   608A      2.207027   609A      2.207698  
     610A      2.208204   611A      2.208430   612A      2.208638  
     613A      2.213142   614A      2.213240   615A      2.219289  
     616A      2.219772   617A      2.219797   618A      2.222311  
     619A      2.223558   620A      2.223650   621A      2.228074  
     622A      2.228473   623A      2.228781   624A      2.228814  
     625A      2.231267   626A      2.233633   627A      2.233798  
     628A      2.234587   629A      2.235039   630A      2.237752  
     631A      2.237902   632A      2.241113   633A      2.241386  
     634A      2.243722   635A      2.245976   636A      2.246263  
     637A      2.249391   638A      2.250877   639A      2.251021  
     640A      2.251124   641A      2.253069   642A      2.274366  
     643A      2.274438   644A      2.296353   645A      2.298197  
     646A      2.301661   647A      2.301703   648A      2.306252  
     649A      2.306432   650A      2.307176   651A      2.310995  
     652A      2.311078   653A      2.325438   654A      2.326213  
     655A      2.326423   656A      2.333218   657A      2.333330  
     658A      2.334260   659A      2.345181   660A      2.345226  
     661A      2.351560   662A      2.351668   663A      2.356871  
     664A      2.368912   665A      2.369006   666A      2.376495  
     667A      2.384600   668A      2.384730   669A      2.387784  
     670A      2.387900   671A      2.393204   672A      2.400002  
     673A      2.403044   674A      2.403276   675A      2.403309  
     676A      2.417792   677A      2.418947   678A      2.422239  
     679A      2.422759   680A      2.426490   681A      2.426651  
     682A      2.428718   683A      2.428783   684A      2.429441  
     685A      2.431599   686A      2.438129   687A      2.439058  
     688A      2.439250   689A      2.439385   690A      2.440604  
     691A      2.446539   692A      2.453841   693A      2.454056  
     694A      2.458643   695A      2.466305   696A      2.466883  
     697A      2.469620   698A      2.469641   699A      2.476653  
     700A      2.476958   701A      2.477011   702A      2.482070  
     703A      2.482118   704A      2.491464   705A      2.493089  
     706A      2.494232   707A      2.494792   708A      2.507401  
     709A      2.507423   710A      2.514126   711A      2.514227  
     712A      2.523436   713A      2.525705   714A      2.529447  
     715A      2.529501   716A      2.535294   717A      2.544596  
     718A      2.545768   719A      2.545954   720A      2.560725  
     721A      2.560835   722A      2.565279   723A      2.565306  
     724A      2.574038   725A      2.583914   726A      2.586606  
     727A      2.594663   728A      2.594712   729A      2.599185  
     730A      2.602048   731A      2.606616   732A      2.606736  
     733A      2.606944   734A      2.607012   735A      2.613654  
     736A      2.619799   737A      2.619862   738A      2.624441  
     739A      2.632767   740A      2.637710   741A      2.639437  
     742A      2.639535   743A      2.664500   744A      2.664538  
     745A      2.680446   746A      2.684299   747A      2.684334  
     748A      2.691020   749A      2.691079   750A      2.692364  
     751A      2.692425   752A      2.693411   753A      2.706983  
     754A      2.707321   755A      2.708487   756A      2.712856  
     757A      2.716664   758A      2.717064   759A      2.717436  
     760A      2.717541   761A      2.735912   762A      2.735998  
     763A      2.752259   764A      2.752387   765A      2.760631  
     766A      2.760945   767A      2.767691   768A      2.768363  
     769A      2.771798   770A      2.772869   771A      2.773060  
     772A      2.779042   773A      2.779107   774A      2.784180  
     775A      2.784287   776A      2.801962   777A      2.802120  
     778A      2.803799   779A      2.803878   780A      2.806061  
     781A      2.810356   782A      2.816966   783A      2.817106  
     784A      2.819360   785A      2.819602   786A      2.824507  
     787A      2.825067   788A      2.828112   789A      2.843333  
[...]
     709A      1.366021   710A      1.380069   711A      1.391341  
     712A      1.397705   713A      1.403990   714A      1.404085  
     715A      1.407869   716A      1.407989   717A      1.412186  
     718A      1.412251   719A      1.420044   720A      1.421430  
     721A      1.425002   722A      1.425576   723A      1.429305  
     724A      1.429564   725A      1.430808   726A      1.436309  
     727A      1.436356   728A      1.439337   729A      1.439565  
     730A      1.439858   731A      1.447889   732A      1.448086  
     733A      1.450498   734A      1.463416   735A      1.463527  
     736A      1.472694   737A      1.472887   738A      1.516468  
     739A      1.516536   740A      1.521207   741A      1.521211  
     742A      1.528518   743A      1.552340   744A      1.569809  
     745A      1.581663   746A      1.598178   747A      1.599519  
     748A      1.600131   749A      1.608571   750A      1.608618  
     751A      1.609169   752A      1.612883   753A      1.613064  
     754A      1.617085   755A      1.621468   756A      1.621794  
     757A      1.629903   758A      1.630396   759A      1.631060  
     760A      1.631441   761A      1.636237   762A      1.640041  
     763A      1.640480   764A      1.643516   765A      1.643601  
     766A      1.643676   767A      1.644029   768A      1.649953  
     769A      1.660986   770A      1.661103   771A      1.667407  
     772A      1.676259   773A      1.676332   774A      1.676737  
     775A      1.676760   776A      1.677009   777A      1.682229  
     778A      1.686597   779A      1.686655   780A      1.696035  
     781A      1.697300   782A      1.699333   783A      1.699382  
     784A      1.700676   785A      1.704742   786A      1.704808  
     787A      1.715708   788A      1.715740   789A      1.738138  
     790A      1.741189   791A      1.741668   792A      1.751381  
     793A      1.760263   794A      1.760272   795A      1.761059  
     796A      1.761732   797A      1.776728   798A      1.776747  
     799A      1.791471   800A      1.791485   801A      1.816480  
     802A      1.816538   803A      1.816644   804A      1.818043  
     805A      1.822939   806A      1.824647   807A      1.824741  
     808A      1.830747   809A      1.831032   810A      1.836753  
     811A      1.842394   812A      1.842687   813A      1.860733  
     814A      1.860757   815A      1.860786   816A      1.860991  
     817A      1.864023   818A      1.868740   819A      1.872170  
     820A      1.880143   821A      1.880194   822A      1.896131  
     823A      1.896212   824A      1.899388   825A      1.902938  
     826A      1.903060   827A      1.908532   828A      1.908678  
     829A      1.913762   830A      1.914131   831A      1.917634  
     832A      1.917781   833A      1.919217   834A      1.921959  
     835A      1.922039   836A      1.940429   837A      1.941003  
     838A      1.941835   839A      1.941934   840A      1.946376  
     841A      1.946404   842A      1.953979   843A      1.954065  
     844A      1.954260   845A      1.954464   846A      1.957981  
     847A      1.970191   848A      1.982876   849A      1.983100  
     850A      1.989817   851A      1.997088   852A      1.998508  
     853A      1.998527   854A      2.003898   855A      2.008016  
     856A      2.012223   857A      2.012449   858A      2.026973  
     859A      2.027815   860A      2.029929   861A      2.030055  
     862A      2.030481   863A      2.031211   864A      2.031328  
     865A      2.047819   866A      2.051717   867A      2.052180  
     868A      2.057379   869A      2.058070   870A      2.059241  
     871A      2.060041   872A      2.068201   873A      2.070003  
     874A      2.071148   875A      2.071605   876A      2.075286  
     877A      2.075642   878A      2.080570   879A      2.084137  
     880A      2.084584   881A      2.092733   882A      2.094312  
     883A      2.095388   884A      2.096843   885A      2.100477  
     886A      2.100558   887A      2.106043   888A      2.108189  
     889A      2.108291   890A      2.109337   891A      2.109408  
     892A      2.110718   893A      2.114237   894A      2.119183  
     895A      2.119263   896A      2.120273   897A      2.120449  
     898A      2.126031   899A      2.126177   900A      2.133427  
     901A      2.134552   902A      2.135750   903A      2.135818  
     904A      2.143154   905A      2.143172   906A      2.155433  
     907A      2.159561   908A      2.159579   909A      2.162696  
     910A      2.162764   911A      2.171224   912A      2.178198  
     913A      2.178267   914A      2.190323   915A      2.190704  
     916A      2.192481   917A      2.193744   918A      2.195757  
     919A      2.195864   920A      2.198264   921A      2.219648  
     922A      2.220249   923A      2.220273   924A      2.227802  
     925A      2.228107   926A      2.228449   927A      2.228915  
     928A      2.243210   929A      2.243560   930A      2.243767  
     931A      2.244155   932A      2.247057   933A      2.260017  
     934A      2.260154   935A      2.270107   936A      2.270125  
     937A      2.272001   938A      2.272050   939A      2.281037  
     940A      2.300168   941A      2.306656   942A      2.310276  
     943A      2.312085   944A      2.319806   945A      2.322263  
     946A      2.330903   947A      2.330965   948A      2.331066  
     949A      2.333798   950A      2.350645   951A      2.351347  
     952A      2.352327   953A      2.352420   954A      2.366226  
     955A      2.366333   956A      2.374564   957A      2.379353  
     958A      2.415815   959A      2.423986   960A      2.424356  
     961A      2.424379   962A      2.436437   963A      2.441063  
     964A      2.441115   965A      2.469867   966A      2.472597  
     967A      2.472780   968A      2.485304   969A      2.485381  
     970A      2.502282   971A      2.519087   972A      2.529679  
     973A      2.529824   974A      2.543252   975A      2.545228  
     976A      2.545374   977A      2.554165   978A      2.554208  
     979A      2.554777   980A      2.559804   981A      2.559812  
     982A      2.572949   983A      2.572986   984A      2.574637  
     985A      2.575189   986A      2.586203   987A      2.586324  
     988A      2.587195   989A      2.589686   990A      2.591377  
     991A      2.605938   992A      2.623383   993A      2.623419  
     994A      2.624927   995A      2.631271   996A      2.631839  
     997A      2.641131   998A      2.641193   999A      2.650739  
    1000A      2.651092  1001A      2.656828  1002A      2.681802  
    1003A      2.682988  1004A      2.683950  1005A      2.686700  
    1006A      2.701893  1007A      2.702195  1008A      2.712987  
    1009A      2.712994  1010A      2.718633  1011A      2.718648  
    1012A      2.722449  1013A      2.722717  1014A      2.737142  
    1015A      2.751976  1016A      2.752484  1017A      2.776816  
    1018A      2.794378  1019A      2.794463  1020A      2.808659  
    1021A      2.808956  1022A      2.809856  1023A      2.815368  
    1024A      2.827070  1025A      2.827386  1026A      2.851327  
    1027A      2.851505  1028A      2.855997  1029A      2.858286  
    1030A      2.859259  1031A      2.859326  1032A      2.866920  
    1033A      2.916606  1034A      2.916673  1035A      2.923550  
    1036A      2.933471  1037A      2.933527  1038A      2.949524  
    1039A      2.949561  1040A      2.962680  1041A      3.006313  
    1042A      3.006660  1043A      3.011846  1044A      3.029251  
    1045A      3.064015  1046A      3.064091  1047A      3.070332  
    1048A      3.070485  1049A      3.109314  1050A      3.110107  
    1051A      3.127359  1052A      3.129336  1053A      3.129724  
    1054A      3.137433  1055A      3.145930  1056A      3.146177  
    1057A      3.146215  1058A      3.148887  1059A      3.148900  
    1060A      3.157520  1061A      3.157945  1062A      3.165504  
    1063A      3.165951  1064A      3.191579  1065A      3.211126  
    1066A      3.218254  1067A      3.237245  1068A      3.272033  
    1069A      3.276869  1070A      3.277005  1071A      3.281670  
    1072A      3.281895  1073A      3.416168  1074A      3.416622  
    1075A      3.442742  1076A      3.481219  1077A      3.483955  
    1078A      3.548971  1079A      3.576971  1080A      3.578944  
    1081A      3.593790  1082A      3.626436  1083A      3.628432  
    1084A      3.662711  1085A      3.667192  1086A      3.769202  
    1087A      3.782611  1088A      3.783565  1089A      3.870659  
    1090A      3.870688  1091A      3.913034  1092A      3.913152  
    1093A      3.976883  1094A      4.010837  1095A      4.032603  
    1096A      4.044503  1097A      4.080595  1098A      4.178389  
    1099A      4.181214  1100A      4.182109  1101A      4.318151  
    1102A      5.745842  1103A      5.746091  1104A      5.746933  
    1105A      5.750118  1106A      5.750317  1107A      5.755795  
    1108A      5.756362  1109A      5.757123  1110A      5.775196  
    1111A      5.775979  1112A      5.776238  1113A      6.016894  
    1114A      6.017535  1115A      6.017890  1116A      6.189604  
    1117A      6.324020  1118A      6.324335  1119A      6.369650  
    1120A      6.370890  1121A      6.371744  1122A      7.138282  
    1123A      7.150117  1124A      7.219188  1125A      7.220761  
    1126A      7.223075  1127A      7.238547  1128A      7.239448  
    1129A      7.243941  1130A      7.449573  1131A      7.450381  
    1132A      7.455005  1133A      7.583484  1134A     12.588236  
    1135A     42.904352  1136A     42.905814  1137A     42.906743  
    1138A     42.934258  

    Final Occupation by Irrep:
              A 
    DOCC [   171 ]
    NA   [   171 ]
    NB   [   171 ]

  @DF-RHF Final Energy: -2055.89161183634587

   => Energetics <=

    Nuclear Repulsion Energy =           6452.5568002797781446
    One-Electron Energy =              -15636.4241439165671181
    Two-Electron Energy =                7127.9757318004440094
    Total Energy =                      -2055.8916118363458736

Computation Completed


Properties will be evaluated at   0.000000,   0.000000,   0.000000 [a0]

Properties computed using the SCF density matrix


 Multipole Moments:

 ------------------------------------------------------------------------------------
     Multipole            Electronic (a.u.)      Nuclear  (a.u.)        Total (a.u.)
 ------------------------------------------------------------------------------------

 L = 1.  Multiply by 2.5417464519 to convert [e a0] to [Debye]
 Dipole X            :          0.0000829            0.0000112            0.0000941
 Dipole Y            :          0.0000314           -0.0000531           -0.0000217
 Dipole Z            :        582.3380229         -582.3384839           -0.0004610
 Magnitude           :                                                    0.0004710

 ------------------------------------------------------------------------------------

*** tstop() called on d-16-5-1 at Mon Jan 22 12:24:18 2024
Module time:
	user time   =    2366.94 seconds =      39.45 minutes
	system time =      46.08 seconds =       0.77 minutes
	total time  =        273 seconds =       4.55 minutes
Total time:
	user time   =    6676.24 seconds =     111.27 minutes
	system time =     114.05 seconds =       1.90 minutes
	total time  =        876 seconds =      14.60 minutes
  Constructing Basis Sets for SAPT...

   => Loading Basis Set <=

    Name: (JUN-CC-PVDZ AUX)
    Role: RIFIT
    Keyword: DF_BASIS_SAPT
    atoms 1     entry B          line    56 file /home/gridsan/tfroembgen/.conda/envs/psi4test/share/psi4/basis/jun-cc-pvdz-ri.gbs 
    atoms 2-5   entry F          line   232 file /home/gridsan/tfroembgen/.conda/envs/psi4test/share/psi4/basis/jun-cc-pvdz-ri.gbs 
    atoms 6-59  entry C          line   100 file /home/gridsan/tfroembgen/.conda/envs/psi4test/share/psi4/basis/jun-cc-pvdz-ri.gbs 
    atoms 60-77 entry H          line    30 file /home/gridsan/tfroembgen/.conda/envs/psi4test/share/psi4/basis/jun-cc-pvdz-ri.gbs 

   => Loading Basis Set <=

    Name: (JUN-CC-PVDZ AUX)
    Role: JKFIT
    Keyword: DF_BASIS_ELST
    atoms 1     entry B          line    90 file /home/gridsan/tfroembgen/.conda/envs/psi4test/share/psi4/basis/jun-cc-pvdz-jkfit.gbs 
    atoms 2-5   entry F          line   314 file /home/gridsan/tfroembgen/.conda/envs/psi4test/share/psi4/basis/jun-cc-pvdz-jkfit.gbs 
    atoms 6-59  entry C          line   146 file /home/gridsan/tfroembgen/.conda/envs/psi4test/share/psi4/basis/jun-cc-pvdz-jkfit.gbs 
    atoms 60-77 entry H          line    70 file /home/gridsan/tfroembgen/.conda/envs/psi4test/share/psi4/basis/jun-cc-pvdz-jkfit.gbs 


  //>>>>>>>>>>>>>>>>>>>>>>>>>>>>>>>>>>>//
  //               SSAPT0              //
  //<<<<<<<<<<<<<<<<<<<<<<<<<<<<<<<<<<<//


*** tstart() called on d-16-5-1
*** at Mon Jan 22 12:24:19 2024

        SAPT0  
    Ed Hohenstein
     6 June 2009

      Orbital Information
  --------------------------
    NSO        =      1152
    NMO        =      1138
    NRI        =      4087
    NRI (Elst) =      5075
    NOCC A     =        21
    NOCC B     =       171
    FOCC A     =         5
    FOCC B     =        54
    NVIR A     =      1117
    NVIR B     =       967

    Elst10,r            =     0.006323092494 [Eh]
    Exch10              =    -0.000000095897 [Eh]
    Exch10 (S^2)        =    -0.000000095897 [Eh]

    Iter     Energy [mEh]          dE [mEh]         Residual      Time [s]
       1      -0.00336894       0.003368944       0.426998294            96
       2      -0.00396939       0.000600441       0.223307780           118
       3      -0.00421387       0.000244490       0.042462585           133
       4      -0.00421930       0.000005426       0.008870015           148
       5      -0.00421220      -0.000007102       0.001197941           166
       6      -0.00421304       0.000000838       0.000229073           182
       7      -0.00421301      -0.000000028       0.000055946           200
       8      -0.00421300      -0.000000012       0.000014233           216
       9      -0.00421300      -0.000000001       0.000002795           239
      10      -0.00421300       0.000000001       0.000000405           251

    CHF Iterations converged


    Iter     Energy [mEh]          dE [mEh]         Residual      Time [s]
       1      -2.35277699       2.352776992      25.332072824           264
       2      -1.60249268      -0.750284315       3.129826609           606
       3      -1.60555262       0.003059943       1.149518108           869
       4      -1.64398833       0.038435712       0.257401348          1099
       5      -1.64565443       0.001666093       0.071723324          1116
       6      -1.64489549      -0.000758934       0.033389405          1136
       7      -1.64464466      -0.000250829       0.015789697          1156
       8      -1.64478909       0.000144432       0.011169845          1174
       9      -1.64483430       0.000045210       0.006872527          1193
      10      -1.64479019      -0.000044112       0.003373872          1211
      11      -1.64478484      -0.000005357       0.001515687          1228
      12      -1.64478889       0.000004049       0.000677426          1243
      13      -1.64479145       0.000002562       0.000254623          1259
      14      -1.64479118      -0.000000266       0.000089408          1274
      15      -1.64479069      -0.000000489       0.000033589          1290
      16      -1.64479079       0.000000098       0.000021921          1306
      17      -1.64479086       0.000000066       0.000009761          1322
      18      -1.64479085      -0.000000011       0.000003554          1339
      19      -1.64479083      -0.000000012       0.000001820          1362
      20      -1.64479083      -0.000000001       0.000000788          1381

    CHF Iterations converged

    Ind20,r (A<-B)      =    -0.000004212996 [Eh]
    Ind20,r (B<-A)      =    -0.001644790833 [Eh]
    Ind20,r             =    -0.001649003828 [Eh]
    Exch-Ind20,r (A<-B) =     0.000000012762 [Eh]
    Exch-Ind20,r (B<-A) =     0.000000017812 [Eh]
    Exch-Ind20,r        =     0.000000030574 [Eh]
    Disp20              =    -0.000227543554 [Eh]
    Disp20 (SS)         =    -0.000113771777 [Eh]
    Disp20 (OS)         =    -0.000113771777 [Eh]
    Exch-Disp20         =     0.000000019344 [Eh]
    Exch-Disp20 (SS)    =     0.000000014973 [Eh]
    Exch-Disp20 (OS)    =     0.000000004371 [Eh]

    SAPT Results 
  --------------------------------------------------------------------------------------------------------
    Electrostatics                  6.32309249 [mEh]       3.96780044 [kcal/mol]      16.60127706 [kJ/mol]
      Elst10,r                      6.32309249 [mEh]       3.96780044 [kcal/mol]      16.60127706 [kJ/mol]

    Exchange                       -0.00009590 [mEh]      -0.00006018 [kcal/mol]      -0.00025178 [kJ/mol]
      Exch10                       -0.00009590 [mEh]      -0.00006018 [kcal/mol]      -0.00025178 [kJ/mol]
      Exch10(S^2)                  -0.00009590 [mEh]      -0.00006018 [kcal/mol]      -0.00025178 [kJ/mol]

    Induction                      -1.64031405 [mEh]      -1.02931260 [kcal/mol]      -4.30664393 [kJ/mol]
      Ind20,r                      -1.64900383 [mEh]      -1.03476552 [kcal/mol]      -4.32945896 [kJ/mol]
      Exch-Ind20,r                  0.00003057 [mEh]       0.00001919 [kcal/mol]       0.00008027 [kJ/mol]
      delta HF,r (2)                0.00865921 [mEh]       0.00543374 [kcal/mol]       0.02273475 [kJ/mol]

    Dispersion                     -0.22752421 [mEh]      -0.14277360 [kcal/mol]      -0.59736473 [kJ/mol]
      Disp20                       -0.22754355 [mEh]      -0.14278574 [kcal/mol]      -0.59741552 [kJ/mol]
      Exch-Disp20                   0.00001934 [mEh]       0.00001214 [kcal/mol]       0.00005079 [kJ/mol]
      Disp20 (SS)                  -0.11377178 [mEh]      -0.07139287 [kcal/mol]      -0.29870776 [kJ/mol]
      Disp20 (OS)                  -0.11377178 [mEh]      -0.07139287 [kcal/mol]      -0.29870776 [kJ/mol]
      Exch-Disp20 (SS)              0.00001497 [mEh]       0.00000940 [kcal/mol]       0.00003931 [kJ/mol]
      Exch-Disp20 (OS)              0.00000437 [mEh]       0.00000274 [kcal/mol]       0.00001147 [kJ/mol]

  Total HF                          4.68268255 [mEh]       2.93842766 [kcal/mol]      12.29438134 [kJ/mol]
  Total SAPT0                       4.45515834 [mEh]       2.79565407 [kcal/mol]      11.69701661 [kJ/mol]

  Special recipe for scaled SAPT0 (see Manual):
    Electrostatics sSAPT0           6.32309249 [mEh]       3.96780044 [kcal/mol]      16.60127706 [kJ/mol]
    Exchange sSAPT0                -0.00009590 [mEh]      -0.00006018 [kcal/mol]      -0.00025178 [kJ/mol]
    Induction sSAPT0               -1.64031405 [mEh]      -1.02931260 [kcal/mol]      -4.30664393 [kJ/mol]
    Dispersion sSAPT0              -0.22752421 [mEh]      -0.14277360 [kcal/mol]      -0.59736473 [kJ/mol]
  Total sSAPT0                      4.45515834 [mEh]       2.79565407 [kcal/mol]      11.69701661 [kJ/mol]
  --------------------------------------------------------------------------------------------------------

*** tstop() called on d-16-5-1 at Mon Jan 22 13:25:51 2024
Module time:
	user time   =    6878.91 seconds =     114.65 minutes
	system time =     697.05 seconds =      11.62 minutes
	total time  =       3692 seconds =      61.53 minutes
Total time:
	user time   =   13556.17 seconds =     225.94 minutes
	system time =     811.10 seconds =      13.52 minutes
	total time  =       4569 seconds =      76.15 minutes

    Psi4 stopped on: Monday, 22 January 2024 01:25PM
    Psi4 wall time for execution: 1:16:11.04

*** Psi4 exiting successfully. Buy a developer a beer!
