
    -----------------------------------------------------------------------
          Psi4: An Open-Source Ab Initio Electronic Structure Package
                               Psi4 1.9 release

                         Git: Rev {} zzzzzzz 


    D. G. A. Smith, L. A. Burns, A. C. Simmonett, R. M. Parrish,
    M. C. Schieber, R. Galvelis, P. Kraus, H. Kruse, R. Di Remigio,
    A. Alenaizan, A. M. James, S. Lehtola, J. P. Misiewicz, M. Scheurer,
    R. A. Shaw, J. B. Schriber, Y. Xie, Z. L. Glick, D. A. Sirianni,
    J. S. O'Brien, J. M. Waldrop, A. Kumar, E. G. Hohenstein,
    B. P. Pritchard, B. R. Brooks, H. F. Schaefer III, A. Yu. Sokolov,
    K. Patkowski, A. E. DePrince III, U. Bozkaya, R. A. King,
    F. A. Evangelista, J. M. Turney, T. D. Crawford, C. D. Sherrill,
    J. Chem. Phys. 152(18) 184108 (2020). https://doi.org/10.1063/5.0006002

                            Additional Code Authors
    E. T. Seidl, C. L. Janssen, E. F. Valeev, M. L. Leininger,
    J. F. Gonthier, R. M. Richard, H. R. McAlexander, M. Saitow, X. Wang,
    P. Verma, M. H. Lechner, A. Jiang, S. Behnle, A. G. Heide,
    M. F. Herbst, and D. L. Poole

             Previous Authors, Complete List of Code Contributors,
                       and Citations for Specific Modules
    https://github.com/psi4/psi4/blob/master/codemeta.json
    https://github.com/psi4/psi4/graphs/contributors
    http://psicode.org/psi4manual/master/introduction.html#citing-psifour

    -----------------------------------------------------------------------


    Psi4 started on: Saturday, 27 January 2024 10:41AM

    Process ID: 2680890
    Host:       n2cn0572
    PSIDATADIR: /opt/software/pc2/EB-SW/software/PSI4/1.9-foss-2022a/share/psi4
    Memory:     500.0 MiB
    Threads:    16
    
  ==> Input File <==

--------------------------------------------------------------------------
memory 64 GB # how much memory is available ! Depends on the nodes/cores !

molecule dimer {
# monomer A
-1 1    # Charge and multiplicity
B -1.977592e-04  2.742729e-04 -2.999966
F  1.123153e-16  1.430594e-17 -1.587181
F  1.147860e+00  6.757812e-01 -3.471107
F  1.191806e-02 -1.332011e+00 -3.470905
F -1.159666e+00  6.560735e-01 -3.470826
--
# monomer B
0 1     # Charge and multiplicity
C   -3.66844126402057      7.80375217008252      0.00190004133558
C   -4.84759871934653      7.13124183134024     -0.00046653359696
C   -4.89495929917518      5.69633040353158     -0.00103944469517
C   -3.65374067877320      4.98073034095895      0.00662099703436
C   -2.40942512149445      7.11398103667468      0.00209438359570
C   -2.42547734410473      5.68112195090346     -0.00491050527438
C   -1.19474401643570      7.78614419430947      0.00356656413763
C   0.03795902893699      7.09942164575698      0.00139585983271
C   0.03033258741920      5.66948955970466     -0.00408752508301
C   -1.20098450790502      4.96927034791531      0.00488220885047
C   1.27795782581485      7.77285944319479      0.00277170839332
C   2.48535808472416      7.08769688523756      0.00049722048857
C   2.48612868491717      5.65477081024076     -0.00644052849921
C   1.25408291964399      4.95607811366431      0.00518741308898
C   3.75171459140595      7.76391215098033      0.00062407186893
C   4.92356605618520      7.07878077698995     -0.00143240883900
C   4.95560727132542      5.64344746336949     -0.00159282164606
C   3.70680153420475      4.94121020833308      0.00349873852374
H   -3.65852113775815      8.89082741913536      0.00358502958574
H   -1.18921332975660      8.87412108735996      0.00753844057883
H   1.28429423888630      8.86083343548850      0.00693053253426
H   3.75354208679975      8.85103527897216      0.00214659618464
H   5.86995870320703      7.61379483465560     -0.00235777588134
H   -5.78823170750226      7.67630221293400     -0.00202638095293
C   -6.09197395869619      4.99326001364347     -0.00291168518608
C   -6.12866148031747      3.58258016879823     -0.00171050815740
C   -3.66457974004527      3.56418217974434     -0.00463560277484
C   -4.89429820469869      2.86108077590057      0.00453338221034
C   -2.43733499489796      2.84761165708481      0.00719617576166
C   -1.20922785759670      3.54788693497833     -0.00648285103018
C   1.24714157216223      3.53468075142962     -0.00729145743546
C   0.01517603956900      2.83311183930540      0.00439272578912
C   2.46764517244071      2.82128997725533      0.00449278391269
C   3.70254947457969      3.52466015442405     -0.00899517692985
C   6.14498038638375      4.92757236613191     -0.00282626685777
C   6.16658835886151      3.51658447594213     -0.00065971342101
C   4.92460995845939      2.80840792535402      0.00587903281610
H   7.08990550964105      5.46688776622306     -0.00658814770723
H   -7.03104175110130      5.54268795285765     -0.00714490013730
C   -7.33969804112295      2.85841153457957     -0.00333767559888
C   -7.36488195805880      1.47032337158330     -0.00157213747140
C   -4.90350460894690      1.44442681216000     -0.00628840166334
C   -6.13225715261081      0.73993935705394      0.00600164231964
C   -3.67687480051673      0.72669714267312      0.00433931473643
C   -2.44565658606518      1.42964113326212     -0.00597039546461
C   -1.22360068130162      0.71532450163492      0.00545886906656
C   0.00763786931376      1.41738314923765      0.00392452278437
C   1.23121980774686      0.70211669058719     -0.01490206287210
C   2.46082110053113      1.40329203612573      0.00460244601878
C   3.68443025419614      0.68719842821222      0.00377365974158
C   4.91870890153864      1.39173456118907     -0.00862816189375
C   7.36980207796101      2.77948220318441     -0.00242013321349
C   7.38016266612146      1.39121750785509     -0.00087345036788
C   6.13979953912259      0.67411862320065      0.00545489144369
H   -8.27919079934664      3.40711804112415     -0.00763522772059
H   8.31511347147953      3.31811809662368     -0.00663070901292
C   -8.59175593758115      0.72483255304480     -0.00123170985383
C   -8.59902460370342     -0.63263980622873      0.00089141472904
C   -6.13981313911873     -0.67413663715361     -0.00609792660607
C   -7.38018411213749     -1.39126618958160      0.00131813493501
C   -4.91868448025621     -1.39175501803000      0.00624257154343
C   -3.68443829568458     -0.68723731573599     -0.00478966852105
C   -2.46081704024768     -1.40334517882457      0.00575341766833
C   -1.23116201232071     -0.70217386488055     -0.00636696112346
C   -0.00756962538737     -1.41741884941102      0.00108956317991
C   1.22364771588843     -0.71527537726392      0.01109518512883
C   2.44567064933149     -1.42964328900682     -0.00065482763106
C   3.67686670284649     -0.72670743155550     -0.00479541202602
C   6.13224884641929     -0.73997883984993     -0.00632338623858
C   4.90351914550401     -1.44445752054090      0.00751768830159
C   8.59901484869081      0.63260386666793     -0.00101133422380
C   8.59174548810050     -0.72485086719319      0.00072504603735
C   7.36486276438985     -1.47033266560598      0.00049486934466
H   -9.52830597181814      1.27684744919284     -0.00270163681798
H   9.54141097460619      1.17457248844457     -0.00206336648518
C   -7.36983790976868     -2.77954514593389      0.00312634335708
C   -4.92459910905015     -2.80843725734101     -0.00460528907921
C   -6.16662249566744     -3.51665219282533      0.00169655107992
C   -3.70251035970491     -3.52468154912026      0.00571878010666
C   -2.46764698511392     -2.82132596280400     -0.00632585824990
C   -0.01513347410770     -2.83314164539971     -0.00604426974092
C   -1.24712184122656     -3.53473217556300      0.00551968366725
C   1.20924506964357     -3.54791467864352      0.00805871345849
C   2.43733602215464     -2.84764173817541     -0.00608104485234
C   4.89430234377080     -2.86112296828604     -0.00526030478103
C   3.66461525504104     -3.56421984553201      0.00761911515957
C   6.12863901474565     -3.58258405771778      0.00096495711699
C   7.33967266469532     -2.85841330737039      0.00248018319869
H   -9.54144911125902     -1.17456346666430      0.00226083090216
H   9.52826186807155     -1.27691907390448      0.00197485379837
H   -8.31516504384864     -3.31814985321231      0.00729857188773
H   8.27915514249207     -3.40714078989363      0.00681973918158
C   -6.14499418870218     -4.92764727278338      0.00302254913999
C   -3.70678334799751     -4.94126171411716     -0.00679841894792
C   -4.95559005800169     -5.64349397349412      0.00116871569699
C   -2.48612132622665     -5.65478557440947      0.00614125209662
C   -1.25405833548005     -4.95612205000132     -0.00503435388927
C   1.20101257386816     -4.96928038819302     -0.00385322963129
C   -0.03033667441341     -5.66952030313900      0.00398997003238
C   3.65375010132847     -4.98074377541453     -0.00309522988330
C   2.42549269587528     -5.68117463552727      0.00628170066869
C   6.09196561781097     -4.99325796338655      0.00325918379042
C   4.89497644461045     -5.69634842095790      0.00202298796027
H   -7.08989238804069     -5.46699984223871      0.00742531082125
H   7.03105520920009     -5.54265853633254      0.00683896355417
C   -4.92354532219813     -7.07882109967734      0.00061394679214
C   -2.48534208823777     -7.08772807792913     -0.00189594564379
C   -3.75168589177895     -7.76394715763627     -0.00170126671874
C   -0.03794895698805     -7.09946487446944     -0.00168022049625
C   -1.27795610040136     -7.77290438466689     -0.00366491325785
C   2.40944432072629     -7.11402201200282     -0.00081701968533
C   1.19474993715296     -7.78618536556242     -0.00296931056689
C   4.84762105249800     -7.13126211057943      0.00168979497423
C   3.66847160587561     -7.80378799294376     -0.00065863938960
H   -5.86994035041618     -7.61383059804164      0.00215798365757
H   5.78824962538815     -7.67633218931421      0.00281691445618
H   -3.75352693944918     -8.85107156923607     -0.00353718114765
H   -1.28430440589466     -8.86087539249706     -0.00809229711623
H   1.18922157469537     -8.87416062058945     -0.00706194725726
H   3.65854661482387     -8.89086063405326     -0.00231318081200

    units angstrom      # Angstroms are the default
    no_reorient         # Geometry fixed, default
    symmetry c1         # C1 symmetry, default
}

set {
    scf_type DF         # Density fitting, faster than exact integrals
    freeze_core True    # Freeze core electrons
    basis jun-cc-pVDZ   # Jun-cc-pVDZ basis set, recommended for sSAPT0 in https://doi.org/10.1063/1.4867135
}

energy('ssapt0')        # Compute sSAPT0 energy, includes also SAPT0
--------------------------------------------------------------------------

  Memory set to  59.605 GiB by Python driver.

Scratch directory: /tmp/
   => Loading Basis Set <=

    Name: JUN-CC-PVDZ
    Role: ORBITAL
    Keyword: BASIS
    atoms 1                                                   entry B          line   130 file /opt/software/pc2/EB-SW/software/PSI4/1.9-foss-2022a/share/psi4/basis/jun-cc-pvdz.gbs 
    atoms 2-5                                                 entry F          line   266 file /opt/software/pc2/EB-SW/software/PSI4/1.9-foss-2022a/share/psi4/basis/jun-cc-pvdz.gbs 
    atoms 6-23, 30-42, 45-59, 62-78, 81-93, 98-108, 111-119   entry C          line   164 file /opt/software/pc2/EB-SW/software/PSI4/1.9-foss-2022a/share/psi4/basis/jun-cc-pvdz.gbs 
    atoms 24-29, 43-44, 60-61, 79-80, 94-97, 109-110, 120-125 entry H          line    36 file /opt/software/pc2/EB-SW/software/PSI4/1.9-foss-2022a/share/psi4/basis/jun-cc-pvdz.gbs 

   => Loading Basis Set <=

    Name: JUN-CC-PVDZ
    Role: ORBITAL
    Keyword: BASIS
    atoms 1                                                   entry B          line   130 file /opt/software/pc2/EB-SW/software/PSI4/1.9-foss-2022a/share/psi4/basis/jun-cc-pvdz.gbs 
    atoms 2-5                                                 entry F          line   266 file /opt/software/pc2/EB-SW/software/PSI4/1.9-foss-2022a/share/psi4/basis/jun-cc-pvdz.gbs 
    atoms 6-23, 30-42, 45-59, 62-78, 81-93, 98-108, 111-119   entry C          line   164 file /opt/software/pc2/EB-SW/software/PSI4/1.9-foss-2022a/share/psi4/basis/jun-cc-pvdz.gbs 
    atoms 24-29, 43-44, 60-61, 79-80, 94-97, 109-110, 120-125 entry H          line    36 file /opt/software/pc2/EB-SW/software/PSI4/1.9-foss-2022a/share/psi4/basis/jun-cc-pvdz.gbs 


  //>>>>>>>>>>>>>>>>>>>>>>>>>>>>>>>>>>>//
  //              Dimer HF             //
  //<<<<<<<<<<<<<<<<<<<<<<<<<<<<<<<<<<<//

   => Libint2 <=

    Primary   basis highest AM E, G, H:  5, 4, 3
    Auxiliary basis highest AM E, G, H:  6, 5, 4
    Onebody   basis highest AM E, G, H:  6, 5, 4
    Solid Harmonics ordering:            gaussian

*** tstart() called on n2cn0572
*** at Sat Jan 27 10:41:44 2024

   => Loading Basis Set <=

    Name: JUN-CC-PVDZ
    Role: ORBITAL
    Keyword: BASIS
    atoms 1                                                   entry B          line   130 file /opt/software/pc2/EB-SW/software/PSI4/1.9-foss-2022a/share/psi4/basis/jun-cc-pvdz.gbs 
    atoms 2-5                                                 entry F          line   266 file /opt/software/pc2/EB-SW/software/PSI4/1.9-foss-2022a/share/psi4/basis/jun-cc-pvdz.gbs 
    atoms 6-23, 30-42, 45-59, 62-78, 81-93, 98-108, 111-119   entry C          line   164 file /opt/software/pc2/EB-SW/software/PSI4/1.9-foss-2022a/share/psi4/basis/jun-cc-pvdz.gbs 
    atoms 24-29, 43-44, 60-61, 79-80, 94-97, 109-110, 120-125 entry H          line    36 file /opt/software/pc2/EB-SW/software/PSI4/1.9-foss-2022a/share/psi4/basis/jun-cc-pvdz.gbs 


         ---------------------------------------------------------
                                   SCF
               by Justin Turney, Rob Parrish, Andy Simmonett
                          and Daniel G. A. Smith
                              RHF Reference
                       16 Threads,  61035 MiB Core
         ---------------------------------------------------------

  ==> Geometry <==

    Molecular point group: c1
    Full point group: C1

    Geometry (in Angstrom), charge = -1, multiplicity = 1:

       Center              X                  Y                   Z               Mass       
    ------------   -----------------  -----------------  -----------------  -----------------
         B           -0.000201921932     0.000288800891    -2.793342573473    11.009305360000
         F           -0.000004162732     0.000014527991    -1.380557573473    18.998403162730
         F            1.147855837268     0.675795727991    -3.264483573473    18.998403162730
         F            0.011913897268    -1.331996472009    -3.264281573473    18.998403162730
         F           -1.159670162732     0.656088027991    -3.264202573473    18.998403162730
         C           -3.668445426752     7.803766698073     0.208523467862    12.000000000000
         C           -4.847602882078     7.131256359331     0.206156892930    12.000000000000
         C           -4.894963461907     5.696344931522     0.205583981832    12.000000000000
         C           -3.653744841505     4.980744868950     0.213244423561    12.000000000000
         C           -2.409429284226     7.113995564665     0.208717810123    12.000000000000
         C           -2.425481506836     5.681136478894     0.201712921252    12.000000000000
         C           -1.194748179167     7.786158722300     0.210189990664    12.000000000000
         C            0.037954866205     7.099436173748     0.208019286360    12.000000000000
         C            0.030328424687     5.669504087695     0.202535901444    12.000000000000
         C           -1.200988670637     4.969284875906     0.211505635377    12.000000000000
         C            1.277953663083     7.772873971185     0.209395134920    12.000000000000
         C            2.485353921992     7.087711413228     0.207120647015    12.000000000000
         C            2.486124522185     5.654785338231     0.200182898028    12.000000000000
         C            1.254078756912     4.956092641655     0.211810839616    12.000000000000
         C            3.751710428674     7.763926678971     0.207247498396    12.000000000000
         C            4.923561893453     7.078795304981     0.205191017688    12.000000000000
         C            4.955603108594     5.643461991360     0.205030604881    12.000000000000
         C            3.706797371473     4.941224736324     0.210122165051    12.000000000000
         H           -3.658525300490     8.890841947126     0.210208456113     1.007825032230
         H           -1.189217492488     8.874135615351     0.214161867106     1.007825032230
         H            1.284290076155     8.860847963479     0.213553959061     1.007825032230
         H            3.753537924068     8.851049806963     0.208770022711     1.007825032230
         H            5.869954540475     7.613809362646     0.204265650645     1.007825032230
         H           -5.788235870234     7.676316740925     0.204597045574     1.007825032230
         C           -6.091978121428     4.993274541634     0.203711741341    12.000000000000
         C           -6.128665643049     3.582594696789     0.204912918369    12.000000000000
         C           -3.664583902777     3.564196707735     0.201987823752    12.000000000000
         C           -4.894302367430     2.861095303891     0.211156808737    12.000000000000
         C           -2.437339157630     2.847626185075     0.213819602288    12.000000000000
         C           -1.209232020328     3.547901462969     0.200140575497    12.000000000000
         C            1.247137409430     3.534695279420     0.199331969091    12.000000000000
         C            0.015171876837     2.833126367296     0.211016152316    12.000000000000
         C            2.467641009709     2.821304505246     0.211116210440    12.000000000000
         C            3.702545311848     3.524674682415     0.197628249597    12.000000000000
         C            6.144976223652     4.927586894122     0.203797159669    12.000000000000
         C            6.166584196130     3.516599003933     0.205963713106    12.000000000000
         C            4.924605795728     2.808422453345     0.212502459343    12.000000000000
         H            7.089901346909     5.466902294214     0.200035278820     1.007825032230
         H           -7.031045913833     5.542702480848     0.199478526390     1.007825032230
         C           -7.339702203855     2.858426062570     0.203285750928    12.000000000000
         C           -7.364886120791     1.470337899574     0.205051289055    12.000000000000
         C           -4.903508771679     1.444441340151     0.200335024863    12.000000000000
         C           -6.132261315343     0.739953885044     0.212625068846    12.000000000000
         C           -3.676878963248     0.726711670664     0.210962741263    12.000000000000
         C           -2.445660748797     1.429655661253     0.200653031062    12.000000000000
         C           -1.223604844033     0.715339029625     0.212082295593    12.000000000000
         C            0.007633706582     1.417397677228     0.210547949311    12.000000000000
         C            1.231215645015     0.702131218578     0.191721363655    12.000000000000
         C            2.460816937799     1.403306564116     0.211225872546    12.000000000000
         C            3.684426091464     0.687212956203     0.210397086268    12.000000000000
         C            4.918704738807     1.391749089180     0.197995264633    12.000000000000
         C            7.369797915229     2.779496731175     0.204203293313    12.000000000000
         C            7.380158503390     1.391232035846     0.205749976159    12.000000000000
         C            6.139795376391     0.674133151191     0.212078317971    12.000000000000
         H           -8.279194962078     3.407132569115     0.198988198806     1.007825032230
         H            8.315109308748     3.318132624614     0.199992717514     1.007825032230
         C           -8.591760100313     0.724847081035     0.205391716673    12.000000000000
         C           -8.599028766435    -0.632625278238     0.207514841256    12.000000000000
         C           -6.139817301850    -0.674122109163     0.200525499921    12.000000000000
         C           -7.380188274869    -1.391251661591     0.207941561462    12.000000000000
         C           -4.918688642988    -1.391740490039     0.212865998070    12.000000000000
         C           -3.684442458416    -0.687222787745     0.201833758006    12.000000000000
         C           -2.460821202979    -1.403330650834     0.212376844195    12.000000000000
         C           -1.231166175052    -0.702159336890     0.200256465403    12.000000000000
         C           -0.007573788119    -1.417404321420     0.207712989707    12.000000000000
         C            1.223643553157    -0.715260849273     0.217718611656    12.000000000000
         C            2.445666486600    -1.429628761016     0.205968598896    12.000000000000
         C            3.676862540115    -0.726692903565     0.201828014501    12.000000000000
         C            6.132244683688    -0.739964311859     0.200300040288    12.000000000000
         C            4.903514982772    -1.444442992550     0.214141114828    12.000000000000
         C            8.599010685959     0.632618394658     0.205612092303    12.000000000000
         C            8.591741325369    -0.724836339203     0.207348472564    12.000000000000
         C            7.364858601658    -1.470318137615     0.207118295871    12.000000000000
         H           -9.528310134550     1.276861977183     0.203921789709     1.007825032230
         H            9.541406811874     1.174587016435     0.204560060042     1.007825032230
         C           -7.369842072500    -2.779530617943     0.209749769884    12.000000000000
         C           -4.924603271782    -2.808422729350     0.202018137448    12.000000000000
         C           -6.166626658399    -3.516637664835     0.208319977607    12.000000000000
         C           -3.702514522437    -3.524667021130     0.212342206633    12.000000000000
         C           -2.467651147846    -2.821311434813     0.200297568277    12.000000000000
         C           -0.015137636839    -2.833127117409     0.200579156786    12.000000000000
         C           -1.247126003958    -3.534717647572     0.212143110194    12.000000000000
         C            1.209240906912    -3.547900150653     0.214682139985    12.000000000000
         C            2.437331859423    -2.847627210185     0.200542381674    12.000000000000
         C            4.894298181039    -2.861108440295     0.201363121746    12.000000000000
         C            3.664611092309    -3.564205317541     0.214242541686    12.000000000000
         C            6.128634852014    -3.582569529727     0.207588383644    12.000000000000
         C            7.339668501964    -2.858398779380     0.209103609726    12.000000000000
         H           -9.541453273991    -1.174548938674     0.208884257429     1.007825032230
         H            9.528257705340    -1.276904545914     0.208598280325     1.007825032230
         H           -8.315169206580    -3.318135325222     0.213921998415     1.007825032230
         H            8.279150979760    -3.407126261903     0.213443165708     1.007825032230
         C           -6.144998351434    -4.927632744793     0.209645975667    12.000000000000
         C           -3.706787510729    -4.941247186127     0.199825007579    12.000000000000
         C           -4.955594220733    -5.643479445504     0.207792142224    12.000000000000
         C           -2.486125488958    -5.654771046419     0.212764678623    12.000000000000
         C           -1.254062498212    -4.956107522011     0.201589072638    12.000000000000
         C            1.201008411136    -4.969265860202     0.202770196896    12.000000000000
         C           -0.030340837145    -5.669505775148     0.210613396559    12.000000000000
         C            3.653745938597    -4.980729247424     0.203528196644    12.000000000000
         C            2.425488533144    -5.681160107537     0.212905127196    12.000000000000
         C            6.091961455079    -4.993243435396     0.209882610317    12.000000000000
         C            4.894972281879    -5.696333892967     0.208646414487    12.000000000000
         H           -7.089896550772    -5.466985314248     0.214048737348     1.007825032230
         H            7.031051046468    -5.542644008342     0.213462390081     1.007825032230
         C           -4.923549484930    -7.078806571687     0.207237373319    12.000000000000
         C           -2.485346250970    -7.087713549939     0.204727480883    12.000000000000
         C           -3.751690054511    -7.763932629646     0.204922159808    12.000000000000
         C           -0.037953119720    -7.099450346479     0.204943206031    12.000000000000
         C           -1.277960263133    -7.772889856676     0.202958513269    12.000000000000
         C            2.409440157995    -7.114007484012     0.205806406842    12.000000000000
         C            1.194745774421    -7.786170837572     0.203654115960    12.000000000000
         C            4.847616889766    -7.131247582589     0.208313221501    12.000000000000
         C            3.668467443144    -7.803773464953     0.205964787137    12.000000000000
         H           -5.869944513148    -7.613816070051     0.208781410184     1.007825032230
         H            5.788245462656    -7.676317661324     0.209440340983     1.007825032230
         H           -3.753531102181    -8.851057041246     0.203086245379     1.007825032230
         H           -1.284308568626    -8.860860864507     0.198531129411     1.007825032230
         H            1.189217411964    -8.874146092599     0.199561479270     1.007825032230
         H            3.658542452092    -8.890846106063     0.204310245715     1.007825032230

  Running in c1 symmetry.

  Rotational constants: A =      0.00068  B =      0.00068  C =      0.00035 [cm^-1]
  Rotational constants: A =     20.43876  B =     20.43522  C =     10.55117 [MHz]
  Nuclear repulsion = 17857.604380780543579

  Charge       = -1
  Multiplicity = 1
  Electrons    = 642
  Nalpha       = 321
  Nbeta        = 321

  ==> Algorithm <==

  SCF Algorithm Type is DF.
  DIIS enabled.
  MOM disabled.
  Fractional occupation disabled.
  Guess Type is SAD.
  Energy threshold   = 1.00e-08
  Density threshold  = 1.00e-08
  Integral threshold = 1.00e-12

  ==> Primary Basis <==

  Basis Set: JUN-CC-PVDZ
    Blend: JUN-CC-PVDZ
    Number of shells: 880
    Number of basis functions: 1938
    Number of Cartesian functions: 2039
    Spherical Harmonics?: true
    Max angular momentum: 2

   => Loading Basis Set <=

    Name: (JUN-CC-PVDZ AUX)
    Role: JKFIT
    Keyword: DF_BASIS_SCF
    atoms 1                                                   entry B          line    90 file /opt/software/pc2/EB-SW/software/PSI4/1.9-foss-2022a/share/psi4/basis/jun-cc-pvdz-jkfit.gbs 
    atoms 2-5                                                 entry F          line   314 file /opt/software/pc2/EB-SW/software/PSI4/1.9-foss-2022a/share/psi4/basis/jun-cc-pvdz-jkfit.gbs 
    atoms 6-23, 30-42, 45-59, 62-78, 81-93, 98-108, 111-119   entry C          line   146 file /opt/software/pc2/EB-SW/software/PSI4/1.9-foss-2022a/share/psi4/basis/jun-cc-pvdz-jkfit.gbs 
    atoms 24-29, 43-44, 60-61, 79-80, 94-97, 109-110, 120-125 entry H          line    70 file /opt/software/pc2/EB-SW/software/PSI4/1.9-foss-2022a/share/psi4/basis/jun-cc-pvdz-jkfit.gbs 

  ==> Integral Setup <==

  ==> DiskDFJK: Density-Fitted J/K Matrices <==

    J tasked:                  Yes
    K tasked:                  Yes
    wK tasked:                  No
    OpenMP threads:             16
    Integrals threads:          16
    Memory [MiB]:            45776
    Algorithm:                Disk
    Integral Cache:           SAVE
    Schwarz Cutoff:          1E-12
    Fitting Condition:       1E-10

   => Auxiliary Basis Set <=

  Basis Set: (JUN-CC-PVDZ AUX)
    Blend: JUN-CC-PVDZ-JKFIT
    Number of shells: 2943
    Number of basis functions: 8531
    Number of Cartesian functions: 9791
    Spherical Harmonics?: true
    Max angular momentum: 3

  Minimum eigenvalue in the overlap matrix is 5.9350100395E-11.
  Reciprocal condition number of the overlap matrix is 2.4179300682E-12.
    Using canonical orthogonalization.
  Overall, 39 of 1938 possible MOs eliminated.


  ==> Pre-Iterations <==

  SCF Guess: Superposition of Atomic Densities via on-the-fly atomic UHF (no occupation information).

   -------------------------
    Irrep   Nso     Nmo    
   -------------------------
     A       1938    1899 
   -------------------------
    Total    1938    1899
   -------------------------

  ==> Iterations <==

                           Total Energy        Delta E     RMS |[F,P]|

   @DF-RHF iter SAD: -4085.82041801252217   -4.08582e+03   0.00000e+00 
   @DF-RHF iter   1: -4071.38224751083999    1.44382e+01   7.92533e-04 DIIS/ADIIS
   @DF-RHF iter   2: -4072.79358310214320   -1.41134e+00   3.14132e-04 DIIS/ADIIS
   @DF-RHF iter   3: -4072.96641743648161   -1.72834e-01   1.16805e-04 DIIS/ADIIS
   @DF-RHF iter   4: -4072.99286753363003   -2.64501e-02   5.40539e-05 DIIS
   @DF-RHF iter   5: -4072.99955636173581   -6.68883e-03   1.57814e-05 DIIS
   @DF-RHF iter   6: -4073.00031222297366   -7.55861e-04   5.44317e-06 DIIS
   @DF-RHF iter   7: -4073.00053778878464   -2.25566e-04   2.93236e-06 DIIS
   @DF-RHF iter   8: -4073.00062458453976   -8.67958e-05   1.34505e-06 DIIS
   @DF-RHF iter   9: -4073.00065043418635   -2.58496e-05   5.27818e-07 DIIS
   @DF-RHF iter  10: -4073.00065223819502   -1.80401e-06   1.87944e-07 DIIS
   @DF-RHF iter  11: -4073.00065248350256   -2.45308e-07   6.77317e-08 DIIS
   @DF-RHF iter  12: -4073.00065251998876   -3.64862e-08   3.63382e-08 DIIS
   @DF-RHF iter  13: -4073.00065253053845   -1.05497e-08   1.17059e-08 DIIS
   @DF-RHF iter  14: -4073.00065253128469   -7.46240e-10   4.35892e-09 DIIS
  Energy and wave function converged.


  ==> Post-Iterations <==

    Orbital Energies [Eh]
    ---------------------

    Doubly Occupied:                                                      

       1A    -26.129505     2A    -26.108607     3A    -26.108547  
       4A    -26.108433     5A    -11.194300     6A    -11.194288  
       7A    -11.194280     8A    -11.194280     9A    -11.194276  
      10A    -11.194262    11A    -11.194254    12A    -11.194235  
      13A    -11.194231    14A    -11.194228    15A    -11.194226  
      16A    -11.194208    17A    -11.193172    18A    -11.193156  
      19A    -11.193147    20A    -11.193103    21A    -11.193082  
      22A    -11.193068    23A    -11.191558    24A    -11.191556  
      25A    -11.191541    26A    -11.191538    27A    -11.191537  
      28A    -11.191535    29A    -11.190113    30A    -11.190110  
      31A    -11.190095    32A    -11.190092    33A    -11.190091  
      34A    -11.190089    35A    -11.189619    36A    -11.189610  
      37A    -11.189598    38A    -11.189512    39A    -11.189504  
      40A    -11.189440    41A    -11.189414    42A    -11.189321  
      43A    -11.189320    44A    -11.189201    45A    -11.189192  
      46A    -11.189147    47A    -11.188588    48A    -11.188533  
      49A    -11.188527    50A    -11.188430    51A    -11.188403  
      52A    -11.188354    53A    -11.187826    54A    -11.187772  
      55A    -11.187764    56A    -11.187650    57A    -11.187638  
      58A    -11.187556    59A    -11.187481    60A    -11.187431  
      61A    -11.187418    62A    -11.187319    63A    -11.187313  
      64A    -11.187296    65A    -11.185886    66A    -11.185860  
      67A    -11.185852    68A    -11.185831    69A    -11.185829  
      70A    -11.185793    71A    -11.185790    72A    -11.185753  
      73A    -11.185742    74A    -11.185727    75A    -11.185716  
      76A    -11.185691    77A    -11.183769    78A    -11.183763  
      79A    -11.183713    80A    -11.183682    81A    -11.183649  
      82A    -11.183627    83A    -11.182717    84A    -11.182700  
      85A    -11.182631    86A    -11.182595    87A    -11.182568  
      88A    -11.182549    89A    -11.179241    90A    -11.179151  
      91A    -11.179056    92A    -11.178990    93A    -11.178936  
      94A    -11.178829    95A    -11.177767    96A    -11.177487  
      97A    -11.177087    98A    -11.176406    99A    -11.176027  
     100A    -11.175688   101A     -7.589484   102A     -1.488165  
     103A     -1.426200   104A     -1.392582   105A     -1.392422  
     106A     -1.175538   107A     -1.165078   108A     -1.165068  
     109A     -1.148763   110A     -1.148742   111A     -1.138022  
     112A     -1.131165   113A     -1.124783   114A     -1.113215  
     115A     -1.113207   116A     -1.104353   117A     -1.104348  
     118A     -1.081735   119A     -1.081717   120A     -1.078041  
     121A     -1.075777   122A     -1.075772   123A     -1.056729  
     124A     -1.044059   125A     -1.043237   126A     -1.041407  
     127A     -1.039209   128A     -1.039169   129A     -1.016965  
     130A     -1.016952   131A     -1.008291   132A     -1.008284  
     133A     -0.995002   134A     -0.994974   135A     -0.991891  
     136A     -0.976459   137A     -0.976440   138A     -0.969838  
     139A     -0.969834   140A     -0.969381   141A     -0.952073  
     142A     -0.946690   143A     -0.946623   144A     -0.937778  
     145A     -0.935073   146A     -0.932197   147A     -0.927885  
     148A     -0.927838   149A     -0.922873   150A     -0.899780  
     151A     -0.899732   152A     -0.885959   153A     -0.885905  
     154A     -0.838002   155A     -0.837961   156A     -0.831811  
     157A     -0.831605   158A     -0.831561   159A     -0.818304  
     160A     -0.818245   161A     -0.817105   162A     -0.816264  
     163A     -0.816206   164A     -0.804163   165A     -0.802897  
     166A     -0.782823   167A     -0.776148   168A     -0.776096  
     169A     -0.771593   170A     -0.771076   171A     -0.764250  
     172A     -0.764237   173A     -0.760519   174A     -0.760500  
     175A     -0.716986   176A     -0.716969   177A     -0.716062  
     178A     -0.711661   179A     -0.711633   180A     -0.709820  
     181A     -0.709783   182A     -0.696758   183A     -0.693646  
     184A     -0.677806   185A     -0.665602   186A     -0.665240  
     187A     -0.657256   188A     -0.657235   189A     -0.654083  
     190A     -0.654060   191A     -0.653908   192A     -0.644117  
     193A     -0.643731   194A     -0.643619   195A     -0.630085  
     196A     -0.630067   197A     -0.617103   198A     -0.617092  
     199A     -0.614168   200A     -0.612464   201A     -0.612453  
     202A     -0.608423   203A     -0.592913   204A     -0.592598  
     205A     -0.591774   206A     -0.584290   207A     -0.579761  
     208A     -0.579738   209A     -0.579088   210A     -0.577560  
     211A     -0.577528   212A     -0.570714   213A     -0.570349  
     214A     -0.567491   215A     -0.567445   216A     -0.564671  
     217A     -0.564640   218A     -0.558358   219A     -0.546598  
     220A     -0.546573   221A     -0.540175   222A     -0.540172  
     223A     -0.536273   224A     -0.528728   225A     -0.528718  
     226A     -0.527385   227A     -0.526971   228A     -0.526960  
     229A     -0.526337   230A     -0.526314   231A     -0.526305  
     232A     -0.525181   233A     -0.521744   234A     -0.521613  
     235A     -0.518474   236A     -0.514533   237A     -0.514398  
     238A     -0.513150   239A     -0.511081   240A     -0.511069  
     241A     -0.504528   242A     -0.504518   243A     -0.504194  
     244A     -0.497707   245A     -0.497696   246A     -0.493962  
     247A     -0.491738   248A     -0.491030   249A     -0.491008  
     250A     -0.490903   251A     -0.486879   252A     -0.486854  
     253A     -0.482907   254A     -0.481499   255A     -0.481484  
     256A     -0.474088   257A     -0.466763   258A     -0.466716  
     259A     -0.464471   260A     -0.464464   261A     -0.458884  
     262A     -0.458749   263A     -0.456125   264A     -0.454318  
     265A     -0.449939   266A     -0.449680   267A     -0.446814  
     268A     -0.446791   269A     -0.446111   270A     -0.446065  
     271A     -0.441034   272A     -0.441006   273A     -0.435776  
     274A     -0.435684   275A     -0.427467   276A     -0.425324  
     277A     -0.425286   278A     -0.425204   279A     -0.420259  
     280A     -0.420228   281A     -0.412819   282A     -0.409146  
     283A     -0.409142   284A     -0.404170   285A     -0.396689  
     286A     -0.394810   287A     -0.394796   288A     -0.393155  
     289A     -0.387873   290A     -0.371454   291A     -0.371372  
     292A     -0.367863   293A     -0.367526   294A     -0.362287  
     295A     -0.359400   296A     -0.359162   297A     -0.336350  
     298A     -0.336318   299A     -0.317523   300A     -0.317493  
     301A     -0.313724   302A     -0.313678   303A     -0.296337  
     304A     -0.283180   305A     -0.283161   306A     -0.280223  
     307A     -0.265533   308A     -0.265529   309A     -0.261450  
     310A     -0.247551   311A     -0.247098   312A     -0.234128  
     313A     -0.229051   314A     -0.228965   315A     -0.227572  
     316A     -0.216501   317A     -0.191115   318A     -0.173487  
     319A     -0.173071   320A     -0.135597   321A     -0.135499  

    Virtual:                                                              

     322A      0.060672   323A      0.060788   324A      0.095466  
     325A      0.095481   326A      0.096232   327A      0.097810  
     328A      0.097831   329A      0.103180   330A      0.104501  
     331A      0.105650   332A      0.106982   333A      0.107045  
     334A      0.111165   335A      0.111171   336A      0.122516  
     337A      0.122519   338A      0.131450   339A      0.132660  
     340A      0.137377   341A      0.138236   342A      0.138281  
     343A      0.139748   344A      0.141146   345A      0.141798  
     346A      0.142617   347A      0.143076   348A      0.143098  
     349A      0.144355   350A      0.144710   351A      0.144776  
     352A      0.149910   353A      0.150163   354A      0.150424  
     355A      0.150632   356A      0.150665   357A      0.151588  
     358A      0.155788   359A      0.158647   360A      0.162965  
     361A      0.163044   362A      0.163079   363A      0.164382  
     364A      0.164421   365A      0.165458   366A      0.172130  
     367A      0.172429   368A      0.172749   369A      0.172823  
     370A      0.174206   371A      0.175037   372A      0.176953  
     373A      0.177243   374A      0.177502   375A      0.178583  
     376A      0.178692   377A      0.178833   378A      0.180632  
     379A      0.180679   380A      0.188958   381A      0.188962  
     382A      0.190845   383A      0.196923   384A      0.197298  
     385A      0.197483   386A      0.199294   387A      0.199324  
     388A      0.204283   389A      0.204434   390A      0.204975  
     391A      0.205424   392A      0.205695   393A      0.214608  
     394A      0.215550   395A      0.215714   396A      0.216046  
     397A      0.216931   398A      0.218939   399A      0.220899  
     400A      0.222326   401A      0.222435   402A      0.223221  
     403A      0.224187   404A      0.224218   405A      0.224881  
     406A      0.226799   407A      0.226883   408A      0.228700  
     409A      0.228980   410A      0.229425   411A      0.229468  
     412A      0.233822   413A      0.235664   414A      0.240495  
     415A      0.240503   416A      0.242320   417A      0.243342  
     418A      0.243863   419A      0.243952   420A      0.244528  
     421A      0.244559   422A      0.251160   423A      0.252131  
     424A      0.253004   425A      0.253530   426A      0.254675  
     427A      0.257868   428A      0.258355   429A      0.258576  
     430A      0.260854   431A      0.260984   432A      0.261669  
     433A      0.262794   434A      0.263817   435A      0.264446  
     436A      0.268943   437A      0.269622   438A      0.272289  
     439A      0.272705   440A      0.272982   441A      0.273061  
     442A      0.274114   443A      0.274179   444A      0.274268  
     445A      0.274925   446A      0.275956   447A      0.276520  
     448A      0.276685   449A      0.277101   450A      0.278966  
     451A      0.279137   452A      0.279239   453A      0.279971  
     454A      0.285130   455A      0.285786   456A      0.289848  
     457A      0.290200   458A      0.291429   459A      0.292658  
     460A      0.292696   461A      0.293291   462A      0.294186  
     463A      0.294214   464A      0.295197   465A      0.295257  
     466A      0.297613   467A      0.300308   468A      0.300338  
     469A      0.302149   470A      0.305096   471A      0.306377  
     472A      0.308793   473A      0.309997   474A      0.310872  
     475A      0.314717   476A      0.316112   477A      0.316592  
     478A      0.316611   479A      0.320022   480A      0.320069  
     481A      0.321577   482A      0.321736   483A      0.322573  
     484A      0.322700   485A      0.324505   486A      0.325321  
     487A      0.325617   488A      0.327933   489A      0.328051  
     490A      0.329727   491A      0.330975   492A      0.331141  
     493A      0.339179   494A      0.339322   495A      0.339463  
     496A      0.339566   497A      0.339740   498A      0.341463  
     499A      0.341595   500A      0.343390   501A      0.344160  
     502A      0.344220   503A      0.344579   504A      0.346887  
     505A      0.347012   506A      0.348723   507A      0.349782  
     508A      0.350783   509A      0.353729   510A      0.353885  
     511A      0.359992   512A      0.360050   513A      0.360763  
     514A      0.362149   515A      0.363137   516A      0.366831  
     517A      0.366882   518A      0.367491   519A      0.367538  
     520A      0.368984   521A      0.369239   522A      0.370695  
     523A      0.370816   524A      0.372955   525A      0.373183  
     526A      0.374248   527A      0.374499   528A      0.375699  
     529A      0.375836   530A      0.375858   531A      0.378637  
     532A      0.378866   533A      0.379396   534A      0.379532  
     535A      0.382057   536A      0.382838   537A      0.385450  
     538A      0.385598   539A      0.387557   540A      0.387772  
     541A      0.389311   542A      0.389415   543A      0.390332  
     544A      0.390776   545A      0.391689   546A      0.393067  
     547A      0.394170   548A      0.396236   549A      0.397083  
     550A      0.398076   551A      0.398256   552A      0.398757  
     553A      0.398890   554A      0.402725   555A      0.403474  
     556A      0.403505   557A      0.404677   558A      0.407544  
     559A      0.408154   560A      0.408189   561A      0.408923  
     562A      0.412587   563A      0.416425   564A      0.416839  
     565A      0.417838   566A      0.419191   567A      0.423851  
     568A      0.424096   569A      0.424664   570A      0.424775  
     571A      0.425563   572A      0.426392   573A      0.426818  
     574A      0.430388   575A      0.431713   576A      0.432046  
     577A      0.434800   578A      0.435362   579A      0.436414  
     580A      0.436506   581A      0.438824   582A      0.439340  
     583A      0.439797   584A      0.439869   585A      0.444761  
     586A      0.444914   587A      0.445390   588A      0.446656  
     589A      0.448177   590A      0.450501   591A      0.450538  
     592A      0.453234   593A      0.453980   594A      0.455458  
     595A      0.456020   596A      0.457289   597A      0.457865  
     598A      0.458483   599A      0.458842   600A      0.460980  
     601A      0.461909   602A      0.462157   603A      0.463121  
     604A      0.464425   605A      0.464446   606A      0.465790  
     607A      0.465900   608A      0.466852   609A      0.467528  
     610A      0.467628   611A      0.469830   612A      0.470220  
     613A      0.470921   614A      0.471059   615A      0.471358  
     616A      0.471643   617A      0.473300   618A      0.474599  
     619A      0.475793   620A      0.475822   621A      0.477687  
     622A      0.478015   623A      0.478144   624A      0.478439  
     625A      0.478877   626A      0.480116   627A      0.481135  
     628A      0.482305   629A      0.482329   630A      0.484987  
     631A      0.485030   632A      0.485978   633A      0.486847  
     634A      0.487608   635A      0.488087   636A      0.491218  
     637A      0.492956   638A      0.493091   639A      0.494800  
     640A      0.495371   641A      0.498800   642A      0.499276  
     643A      0.500972   644A      0.501005   645A      0.502003  
     646A      0.502098   647A      0.504010   648A      0.504201  
     649A      0.504849   650A      0.505649   651A      0.505794  
     652A      0.505834   653A      0.505876   654A      0.509202  
     655A      0.511054   656A      0.512151   657A      0.512865  
     658A      0.513021   659A      0.514371   660A      0.517461  
     661A      0.518037   662A      0.518257   663A      0.519458  
     664A      0.519675   665A      0.519840   666A      0.521647  
     667A      0.521824   668A      0.522194   669A      0.523199  
     670A      0.525001   671A      0.525090   672A      0.525157  
     673A      0.527713   674A      0.527860   675A      0.528274  
     676A      0.528913   677A      0.529054   678A      0.532168  
     679A      0.532746   680A      0.532903   681A      0.537528  
     682A      0.537717   683A      0.539488   684A      0.539915  
     685A      0.541277   686A      0.541380   687A      0.543092  
     688A      0.544270   689A      0.544879   690A      0.545214  
     691A      0.548172   692A      0.548289   693A      0.549297  
     694A      0.551510   695A      0.551616   696A      0.551774  
     697A      0.552964   698A      0.552988   699A      0.556685  
     700A      0.556740   701A      0.558468   702A      0.558856  
     703A      0.559592   704A      0.562788   705A      0.562908  
     706A      0.563478   707A      0.564578   708A      0.565100  
     709A      0.566104   710A      0.567331   711A      0.567737  
     712A      0.568264   713A      0.568360   714A      0.570595  
     715A      0.571915   716A      0.573460   717A      0.576021  
     718A      0.577427   719A      0.577706   720A      0.579904  
     721A      0.581844   722A      0.582016   723A      0.583764  
     724A      0.584183   725A      0.585142   726A      0.585910  
     727A      0.586749   728A      0.586826   729A      0.589751  
     730A      0.592964   731A      0.592997   732A      0.593183  
     733A      0.596745   734A      0.598040   735A      0.600679  
     736A      0.601162   737A      0.602929   738A      0.604077  
     739A      0.604152   740A      0.609180   741A      0.610634  
     742A      0.615253   743A      0.615960   744A      0.616543  
     745A      0.616838   746A      0.621634   747A      0.626370  
     748A      0.627380   749A      0.627438   750A      0.629829  
     751A      0.630213   752A      0.630985   753A      0.631715  
     754A      0.633283   755A      0.633512   756A      0.633716  
     757A      0.633932   758A      0.637438   759A      0.638403  
     760A      0.640290   761A      0.640460   762A      0.641580  
     763A      0.641764   764A      0.642630   765A      0.644720  
     766A      0.649825   767A      0.650884   768A      0.651318  
     769A      0.653686   770A      0.654733   771A      0.654883  
     772A      0.657023   773A      0.658721   774A      0.659497  
     775A      0.663741   776A      0.667182   777A      0.668538  
     778A      0.670063   779A      0.671130   780A      0.673215  
     781A      0.673369   782A      0.674214   783A      0.674647  
     784A      0.676363   785A      0.676552   786A      0.678018  
     787A      0.681693   788A      0.683450   789A      0.687524  
     790A      0.688044   791A      0.688555   792A      0.694067  
     793A      0.698074   794A      0.698354   795A      0.703264  
     796A      0.703273   797A      0.705841   798A      0.708306  
     799A      0.713504   800A      0.713775   801A      0.714476  
     802A      0.715844   803A      0.717379   804A      0.717659  
     805A      0.729102   806A      0.729876   807A      0.729980  
     808A      0.733101   809A      0.733445   810A      0.737052  
     811A      0.737447   812A      0.738465   813A      0.744814  
     814A      0.745186   815A      0.749448   816A      0.751622  
     817A      0.754051   818A      0.754170   819A      0.759517  
     820A      0.759539   821A      0.760917   822A      0.762634  
     823A      0.762782   824A      0.766547   825A      0.768141  
     826A      0.774125   827A      0.775369   828A      0.779134  
     829A      0.783333   830A      0.783773   831A      0.786937  
     832A      0.793124   833A      0.796525   834A      0.797670  
     835A      0.799253   836A      0.802163   837A      0.802956  
     838A      0.805853   839A      0.809942   840A      0.810951  
     841A      0.814917   842A      0.815605   843A      0.819977  
     844A      0.823662   845A      0.823974   846A      0.825438  
     847A      0.829284   848A      0.845888   849A      0.846094  
     850A      0.846216   851A      0.848916   852A      0.855710  
     853A      0.857822   854A      0.857996   855A      0.858973  
     856A      0.859097   857A      0.864670   858A      0.865314  
     859A      0.867690   860A      0.870173   861A      0.870443  
     862A      0.872070   863A      0.875521   864A      0.876577  
     865A      0.881130   866A      0.882282   867A      0.882705  
     868A      0.883428   869A      0.884142   870A      0.884872  
     871A      0.886404   872A      0.888194   873A      0.889065  
     874A      0.895279   875A      0.895899   876A      0.897153  
     877A      0.908766   878A      0.909066   879A      0.910003  
     880A      0.910938   881A      0.913868   882A      0.914206  
     883A      0.916359   884A      0.917433   885A      0.918481  
     886A      0.920114   887A      0.921921   888A      0.925477  
     889A      0.927770   890A      0.931858   891A      0.931972  
     892A      0.933725   893A      0.934800   894A      0.936571  
     895A      0.937379   896A      0.939604   897A      0.940373  
     898A      0.940856   899A      0.945319   900A      0.945473  
     901A      0.949069   902A      0.950327   903A      0.951618  
     904A      0.952350   905A      0.953219   906A      0.955061  
     907A      0.955685   908A      0.956883   909A      0.957064  
     910A      0.963256   911A      0.965288   912A      0.967185  
     913A      0.967294   914A      0.971713   915A      0.971989  
     916A      0.975185   917A      0.976050   918A      0.978480  
     919A      0.979865   920A      0.983592   921A      0.984420  
     922A      0.985368   923A      0.985831   924A      0.986568  
     925A      0.987865   926A      0.988146   927A      0.990409  
     928A      0.992269   929A      0.993287   930A      0.994034  
     931A      0.995628   932A      0.995971   933A      0.998414  
     934A      1.002553   935A      1.002961   936A      1.003518  
     937A      1.010058   938A      1.010741   939A      1.011454  
     940A      1.013184   941A      1.013953   942A      1.014355  
     943A      1.017529   944A      1.018371   945A      1.018809  
     946A      1.019201   947A      1.019576   948A      1.019912  
     949A      1.022511   950A      1.022664   951A      1.023608  
     952A      1.026241   953A      1.027269   954A      1.027972  
     955A      1.031376   956A      1.031842   957A      1.036734  
     958A      1.038215   959A      1.042105   960A      1.042976  
     961A      1.044654   962A      1.054270   963A      1.054393  
     964A      1.059411   965A      1.060617   966A      1.061141  
     967A      1.061811   968A      1.063660   969A      1.063916  
     970A      1.065578   971A      1.072228   972A      1.072495  
     973A      1.072838   974A      1.073011   975A      1.074614  
     976A      1.074903   977A      1.081425   978A      1.082413  
     979A      1.082748   980A      1.083099   981A      1.084447  
     982A      1.086982   983A      1.089703   984A      1.093164  
     985A      1.094309   986A      1.094838   987A      1.096110  
     988A      1.096662   989A      1.102209   990A      1.107647  
     991A      1.107980   992A      1.113825   993A      1.113974  
     994A      1.115765   995A      1.115991   996A      1.116561  
     997A      1.117587   998A      1.118886   999A      1.119488  
    1000A      1.119996  1001A      1.122063  1002A      1.122264  
    1003A      1.123473  1004A      1.125423  1005A      1.127235  
    1006A      1.129357  1007A      1.130558  1008A      1.131109  
    1009A      1.132095  1010A      1.132918  1011A      1.133534  
    1012A      1.135006  1013A      1.136064  1014A      1.138546  
    1015A      1.138775  1016A      1.139910  1017A      1.140326  
    1018A      1.141380  1019A      1.142553  1020A      1.142670  
    1021A      1.144203  1022A      1.144681  1023A      1.146798  
    1024A      1.146897  1025A      1.148166  1026A      1.148974  
    1027A      1.149361  1028A      1.150613  1029A      1.150840  
    1030A      1.150950  1031A      1.151311  1032A      1.151702  
    1033A      1.153509  1034A      1.154469  1035A      1.154608  
    1036A      1.156067  1037A      1.157208  1038A      1.159228  
    1039A      1.159664  1040A      1.159968  1041A      1.160540  
    1042A      1.165980  1043A      1.166135  1044A      1.167835  
    1045A      1.172952  1046A      1.173261  1047A      1.173635  
    1048A      1.174191  1049A      1.174300  1050A      1.176717  
    1051A      1.178575  1052A      1.179106  1053A      1.179783  
    1054A      1.180521  1055A      1.184626  1056A      1.184849  
    1057A      1.188939  1058A      1.189451  1059A      1.190642  
    1060A      1.191920  1061A      1.193506  1062A      1.195344  
    1063A      1.198119  1064A      1.199975  1065A      1.201033  
    1066A      1.203666  1067A      1.204583  1068A      1.205910  
    1069A      1.207524  1070A      1.209418  1071A      1.210043  
    1072A      1.211036  1073A      1.214581  1074A      1.215753  
    1075A      1.216688  1076A      1.221332  1077A      1.222053  
    1078A      1.224620  1079A      1.226525  1080A      1.227980  
    1081A      1.228302  1082A      1.228767  1083A      1.229242  
    1084A      1.232442  1085A      1.234405  1086A      1.237301  
    1087A      1.238527  1088A      1.239077  1089A      1.242022  
    1090A      1.242129  1091A      1.243288  1092A      1.243869  
    1093A      1.244772  1094A      1.252578  1095A      1.253387  
    1096A      1.254764  1097A      1.255707  1098A      1.258243  
    1099A      1.259331  1100A      1.261150  1101A      1.264185  
    1102A      1.265350  1103A      1.270471  1104A      1.275056  
    1105A      1.275359  1106A      1.276770  1107A      1.278113  
    1108A      1.278613  1109A      1.279322  1110A      1.281036  
    1111A      1.281270  1112A      1.283575  1113A      1.288084  
    1114A      1.288498  1115A      1.289092  1116A      1.289580  
    1117A      1.293134  1118A      1.294165  1119A      1.304505  
    1120A      1.305205  1121A      1.311813  1122A      1.315127  
    1123A      1.318354  1124A      1.318803  1125A      1.320881  
    1126A      1.321113  1127A      1.321311  1128A      1.327571  
    1129A      1.327782  1130A      1.329137  1131A      1.331590  
    1132A      1.332294  1133A      1.335676  1134A      1.336857  
    1135A      1.337143  1136A      1.342066  1137A      1.342624  
    1138A      1.349619  1139A      1.349698  1140A      1.354581  
    1141A      1.357087  1142A      1.361155  1143A      1.361996  
    1144A      1.362304  1145A      1.362401  1146A      1.366120  
    1147A      1.368100  1148A      1.371947  1149A      1.372496  
    1150A      1.374900  1151A      1.376540  1152A      1.382258  
    1153A      1.383490  1154A      1.384029  1155A      1.384117  
    1156A      1.384307  1157A      1.387427  1158A      1.388198  
    1159A      1.390603  1160A      1.393884  1161A      1.394652  
    1162A      1.396148  1163A      1.397578  1164A      1.397761  
    1165A      1.398463  1166A      1.402574  1167A      1.402841  
    1168A      1.404255  1169A      1.404569  1170A      1.410014  
    1171A      1.410250  1172A      1.410729  1173A      1.423579  
    1174A      1.424416  1175A      1.426924  1176A      1.427092  
    1177A      1.431130  1178A      1.431167  1179A      1.431698  
    1180A      1.432742  1181A      1.432871  1182A      1.434158  
    1183A      1.435506  1184A      1.435865  1185A      1.444897  
    1186A      1.446671  1187A      1.449790  1188A      1.451123  
    1189A      1.451370  1190A      1.456497  1191A      1.457325  
    1192A      1.457733  1193A      1.460767  1194A      1.460810  
    1195A      1.473266  1196A      1.474412  1197A      1.474841  
    1198A      1.474988  1199A      1.478411  1200A      1.478445  
    1201A      1.478490  1202A      1.479286  1203A      1.479314  
    1204A      1.479769  1205A      1.489984  1206A      1.490096  
    1207A      1.491419  1208A      1.491595  1209A      1.493028  
    1210A      1.498880  1211A      1.499458  1212A      1.501618  
    1213A      1.503770  1214A      1.504042  1215A      1.504606  
    1216A      1.508874  1217A      1.509173  1218A      1.510703  
    1219A      1.511695  1220A      1.512461  1221A      1.515221  
    1222A      1.516167  1223A      1.521371  1224A      1.524367  
    1225A      1.525573  1226A      1.526224  1227A      1.530938  
    1228A      1.535879  1229A      1.536537  1230A      1.537674  
    1231A      1.544180  1232A      1.544724  1233A      1.544952  
    1234A      1.545134  1235A      1.553404  1236A      1.553651  
    1237A      1.554669  1238A      1.556545  1239A      1.563990  
    1240A      1.566371  1241A      1.566825  1242A      1.567766  
    1243A      1.570151  1244A      1.572274  1245A      1.573559  
    1246A      1.575861  1247A      1.576249  1248A      1.590523  
    1249A      1.590894  1250A      1.610906  1251A      1.611073  
    1252A      1.611593  1253A      1.619757  1254A      1.622771  
    1255A      1.631777  1256A      1.631933  1257A      1.657921  
    1258A      1.664797  1259A      1.665545  1260A      1.666291  
    1261A      1.671812  1262A      1.677907  1263A      1.679667  
    1264A      1.680571  1265A      1.682269  1266A      1.682404  
    1267A      1.685453  1268A      1.685773  1269A      1.688833  
    1270A      1.689043  1271A      1.689379  1272A      1.689793  
    1273A      1.690271  1274A      1.692385  1275A      1.694787  
    1276A      1.697470  1277A      1.697758  1278A      1.698803  
    1279A      1.700544  1280A      1.700932  1281A      1.703430  
    1282A      1.704406  1283A      1.706387  1284A      1.708573  
    1285A      1.709219  1286A      1.710518  1287A      1.710623  
    1288A      1.710853  1289A      1.711703  1290A      1.712198  
    1291A      1.715856  1292A      1.716939  1293A      1.717487  
    1294A      1.718463  1295A      1.723611  1296A      1.724115  
    1297A      1.725036  1298A      1.725713  1299A      1.725988  
    1300A      1.729604  1301A      1.730352  1302A      1.738635  
    1303A      1.738721  1304A      1.742222  1305A      1.743053  
    1306A      1.743683  1307A      1.743933  1308A      1.745042  
    1309A      1.745864  1310A      1.747940  1311A      1.749434  
    1312A      1.750416  1313A      1.750817  1314A      1.757428  
    1315A      1.757594  1316A      1.758667  1317A      1.760260  
    1318A      1.761999  1319A      1.763737  1320A      1.771418  
    1321A      1.771564  1322A      1.777897  1323A      1.778253  
    1324A      1.782924  1325A      1.783858  1326A      1.784087  
    1327A      1.786018  1328A      1.786355  1329A      1.786827  
    1330A      1.787375  1331A      1.791506  1332A      1.792515  
    1333A      1.795062  1334A      1.795478  1335A      1.798558  
    1336A      1.799167  1337A      1.799475  1338A      1.808185  
    1339A      1.815080  1340A      1.820666  1341A      1.820778  
    1342A      1.821618  1343A      1.821781  1344A      1.835078  
    1345A      1.835415  1346A      1.836944  1347A      1.850047  
    1348A      1.851200  1349A      1.853420  1350A      1.853796  
    1351A      1.859768  1352A      1.871603  1353A      1.871853  
    1354A      1.883244  1355A      1.889332  1356A      1.895320  
    1357A      1.896398  1358A      1.898356  1359A      1.899607  
    1360A      1.899860  1361A      1.900456  1362A      1.902847  
    1363A      1.903052  1364A      1.904845  1365A      1.908747  
    1366A      1.916976  1367A      1.920964  1368A      1.921456  
    1369A      1.922930  1370A      1.923206  1371A      1.923552  
    1372A      1.928352  1373A      1.933387  1374A      1.933877  
    1375A      1.934878  1376A      1.935277  1377A      1.936142  
    1378A      1.936824  1379A      1.938509  1380A      1.939448  
    1381A      1.942138  1382A      1.943785  1383A      1.943864  
    1384A      1.948309  1385A      1.948643  1386A      1.952221  
    1387A      1.953321  1388A      1.954184  1389A      1.955728  
    1390A      1.961367  1391A      1.964242  1392A      1.964762  
    1393A      1.964965  1394A      1.971496  1395A      1.971560  
    1396A      1.977378  1397A      1.977617  1398A      1.978282  
    1399A      1.984834  1400A      1.985545  1401A      1.987366  
    1402A      1.993670  1403A      1.994254  1404A      1.994959  
    1405A      1.997246  1406A      1.997284  1407A      1.997687  
    1408A      2.004187  1409A      2.004465  1410A      2.005538  
    1411A      2.008737  1412A      2.011038  1413A      2.011536  
    1414A      2.013133  1415A      2.014931  1416A      2.015223  
    1417A      2.017794  1418A      2.018512  1419A      2.023726  
    1420A      2.026057  1421A      2.026233  1422A      2.028229  
    1423A      2.028404  1424A      2.031262  1425A      2.035432  
    1426A      2.036285  1427A      2.036527  1428A      2.037998  
    1429A      2.039318  1430A      2.040432  1431A      2.043439  
    1432A      2.046951  1433A      2.051892  1434A      2.053640  
    1435A      2.056454  1436A      2.060115  1437A      2.061890  
    1438A      2.062848  1439A      2.066655  1440A      2.068352  
    1441A      2.069313  1442A      2.072237  1443A      2.074424  
    1444A      2.079608  1445A      2.084995  1446A      2.085424  
    1447A      2.086100  1448A      2.087012  1449A      2.090579  
    1450A      2.090962  1451A      2.091613  1452A      2.091971  
    1453A      2.092610  1454A      2.097906  1455A      2.099442  
    1456A      2.100745  1457A      2.101635  1458A      2.102667  
    1459A      2.103892  1460A      2.106067  1461A      2.106316  
    1462A      2.106596  1463A      2.110002  1464A      2.111148  
    1465A      2.111752  1466A      2.112912  1467A      2.121689  
    1468A      2.124625  1469A      2.125864  1470A      2.126931  
    1471A      2.128631  1472A      2.130195  1473A      2.134086  
    1474A      2.135001  1475A      2.136718  1476A      2.139072  
    1477A      2.141396  1478A      2.143330  1479A      2.144334  
    1480A      2.147393  1481A      2.149742  1482A      2.151188  
    1483A      2.153029  1484A      2.153579  1485A      2.153950  
    1486A      2.154356  1487A      2.156585  1488A      2.157711  
    1489A      2.158131  1490A      2.158763  1491A      2.159317  
    1492A      2.159771  1493A      2.160613  1494A      2.161925  
    1495A      2.163086  1496A      2.164168  1497A      2.166103  
    1498A      2.166271  1499A      2.170080  1500A      2.170395  
    1501A      2.173294  1502A      2.173947  1503A      2.176124  
    1504A      2.179505  1505A      2.180419  1506A      2.181952  
    1507A      2.182315  1508A      2.184239  1509A      2.186354  
    1510A      2.187325  1511A      2.187814  1512A      2.188199  
    1513A      2.189503  1514A      2.189985  1515A      2.193760  
    1516A      2.196305  1517A      2.196615  1518A      2.197942  
    1519A      2.198438  1520A      2.200581  1521A      2.201527  
    1522A      2.201645  1523A      2.205392  1524A      2.206207  
    1525A      2.209312  1526A      2.209519  1527A      2.211587  
    1528A      2.213050  1529A      2.215465  1530A      2.216368  
    1531A      2.216965  1532A      2.217188  1533A      2.224001  
    1534A      2.227483  1535A      2.230102  1536A      2.231322  
    1537A      2.232249  1538A      2.232336  1539A      2.233332  
    1540A      2.234174  1541A      2.235307  1542A      2.237772  
    1543A      2.238469  1544A      2.243247  1545A      2.244716  
    1546A      2.246346  1547A      2.250197  1548A      2.253406  
    1549A      2.253867  1550A      2.258387  1551A      2.259621  
    1552A      2.263443  1553A      2.265859  1554A      2.267355  
    1555A      2.268285  1556A      2.270932  1557A      2.271180  
    1558A      2.271721  1559A      2.272336  1560A      2.272772  
    1561A      2.275918  1562A      2.276381  1563A      2.279734  
    1564A      2.280246  1565A      2.280804  1566A      2.287935  
    1567A      2.290447  1568A      2.291292  1569A      2.291639  
    1570A      2.292846  1571A      2.294264  1572A      2.297023  
    1573A      2.297336  1574A      2.298456  1575A      2.299550  
    1576A      2.301767  1577A      2.302157  1578A      2.302455  
    1579A      2.305439  1580A      2.312939  1581A      2.313386  
    1582A      2.315500  1583A      2.315751  1584A      2.316029  
    1585A      2.319902  1586A      2.320714  1587A      2.324128  
    1588A      2.329699  1589A      2.335080  1590A      2.344035  
    1591A      2.344679  1592A      2.350831  1593A      2.351110  
    1594A      2.353304  1595A      2.353530  1596A      2.354379  
    1597A      2.361619  1598A      2.363870  1599A      2.365870  
    1600A      2.369506  1601A      2.370147  1602A      2.371163  
    1603A      2.381334  1604A      2.387954  1605A      2.388731  
    1606A      2.392528  1607A      2.395318  1608A      2.396353  
    1609A      2.397181  1610A      2.398744  1611A      2.399477  
    1612A      2.404036  1613A      2.405616  1614A      2.406656  
    1615A      2.406903  1616A      2.410658  1617A      2.412193  
    1618A      2.413458  1619A      2.414348  1620A      2.415682  
    1621A      2.415867  1622A      2.416341  1623A      2.419755  
    1624A      2.427518  1625A      2.428844  1626A      2.449045  
    1627A      2.451306  1628A      2.452400  1629A      2.457861  
    1630A      2.459557  1631A      2.460898  1632A      2.461614  
    1633A      2.467927  1634A      2.483937  1635A      2.486977  
    1636A      2.487859  1637A      2.489166  1638A      2.490634  
    1639A      2.493749  1640A      2.508828  1641A      2.511497  
    1642A      2.512017  1643A      2.525793  1644A      2.527004  
    1645A      2.534731  1646A      2.535758  1647A      2.537826  
    1648A      2.538254  1649A      2.541164  1650A      2.541469  
    1651A      2.559285  1652A      2.559969  1653A      2.566936  
    1654A      2.569233  1655A      2.575616  1656A      2.575969  
    1657A      2.578557  1658A      2.586330  1659A      2.587126  
    1660A      2.589710  1661A      2.609820  1662A      2.613863  
    1663A      2.614940  1664A      2.615293  1665A      2.615920  
    1666A      2.618347  1667A      2.619625  1668A      2.630380  
    1669A      2.630638  1670A      2.634826  1671A      2.635781  
    1672A      2.637520  1673A      2.638174  1674A      2.639841  
    1675A      2.648309  1676A      2.650324  1677A      2.651146  
    1678A      2.654674  1679A      2.654696  1680A      2.654743  
    1681A      2.656041  1682A      2.658293  1683A      2.660318  
    1684A      2.662704  1685A      2.672382  1686A      2.673817  
    1687A      2.683166  1688A      2.683734  1689A      2.684433  
    1690A      2.684645  1691A      2.688424  1692A      2.689196  
    1693A      2.703218  1694A      2.713438  1695A      2.714519  
    1696A      2.716668  1697A      2.718973  1698A      2.719996  
    1699A      2.720648  1700A      2.723545  1701A      2.724534  
    1702A      2.724817  1703A      2.725937  1704A      2.735561  
    1705A      2.739225  1706A      2.740232  1707A      2.741316  
    1708A      2.747650  1709A      2.747693  1710A      2.748153  
    1711A      2.751678  1712A      2.759572  1713A      2.760888  
    1714A      2.762632  1715A      2.762995  1716A      2.763881  
    1717A      2.764400  1718A      2.767055  1719A      2.769406  
    1720A      2.770847  1721A      2.780295  1722A      2.795633  
    1723A      2.798448  1724A      2.799012  1725A      2.799732  
    1726A      2.804200  1727A      2.804459  1728A      2.826218  
    1729A      2.832627  1730A      2.836147  1731A      2.837228  
    1732A      2.853583  1733A      2.857376  1734A      2.859359  
    1735A      2.874545  1736A      2.874620  1737A      2.874843  
    1738A      2.875225  1739A      2.881438  1740A      2.881808  
    1741A      2.883938  1742A      2.889664  1743A      2.890066  
    1744A      2.890611  1745A      2.894984  1746A      2.896564  
    1747A      2.910490  1748A      2.910752  1749A      2.913082  
    1750A      2.913884  1751A      2.914087  1752A      2.918666  
    1753A      2.926304  1754A      2.938338  1755A      2.938382  
    1756A      2.942800  1757A      2.943575  1758A      2.946631  
    1759A      2.973578  1760A      2.973611  1761A      2.985298  
    1762A      2.985483  1763A      2.994072  1764A      2.994179  
    1765A      2.997655  1766A      3.003223  1767A      3.003243  
    1768A      3.033823  1769A      3.033962  1770A      3.034280  
    1771A      3.045008  1772A      3.061896  1773A      3.062095  
    1774A      3.098960  1775A      3.099829  1776A      3.105280  
    1777A      3.106415  1778A      3.108865  1779A      3.116013  
    1780A      3.118719  1781A      3.119014  1782A      3.129782  
    1783A      3.130007  1784A      3.131883  1785A      3.143598  
    1786A      3.162736  1787A      3.163387  1788A      3.177444  
    1789A      3.182035  1790A      3.182629  1791A      3.196057  
    1792A      3.200581  1793A      3.200618  1794A      3.209480  
    1795A      3.211403  1796A      3.212325  1797A      3.213009  
    1798A      3.219030  1799A      3.219363  1800A      3.220322  
    1801A      3.226944  1802A      3.227426  1803A      3.228503  
    1804A      3.239767  1805A      3.242725  1806A      3.248344  
    1807A      3.248945  1808A      3.261390  1809A      3.261959  
    1810A      3.285803  1811A      3.321718  1812A      3.326649  
    1813A      3.328749  1814A      3.331717  1815A      3.332467  
    1816A      3.334675  1817A      3.343399  1818A      3.345121  
    1819A      3.346626  1820A      3.347744  1821A      3.362417  
    1822A      3.373966  1823A      3.375226  1824A      3.381642  
    1825A      3.389024  1826A      3.435900  1827A      3.436633  
    1828A      3.453719  1829A      3.485165  1830A      3.511845  
    1831A      3.516807  1832A      3.535534  1833A      3.536773  
    1834A      3.542477  1835A      3.543788  1836A      3.548376  
    1837A      3.550643  1838A      3.556623  1839A      3.563062  
    1840A      3.564873  1841A      3.582763  1842A      3.589807  
    1843A      3.621106  1844A      3.621497  1845A      3.642689  
    1846A      3.652741  1847A      3.654776  1848A      3.664632  
    1849A      3.686030  1850A      3.725951  1851A      3.733675  
    1852A      3.740211  1853A      3.742874  1854A      3.780386  
    1855A      3.829454  1856A      3.831771  1857A      3.837047  
    1858A      3.847811  1859A      3.849941  1860A      3.874062  
    1861A      3.913346  1862A      3.923725  1863A      3.945215  
    1864A      3.948694  1865A      3.991861  1866A      3.993608  
    1867A      4.020483  1868A      4.020974  1869A      4.029503  
    1870A      4.042275  1871A      4.048568  1872A      4.058833  
    1873A      4.081211  1874A      4.100001  1875A      4.103722  
    1876A      4.138253  1877A      4.157801  1878A      4.166844  
    1879A      4.180961  1880A      4.181107  1881A      4.185532  
    1882A      4.194787  1883A      4.221656  1884A      4.227106  
    1885A      4.290104  1886A      4.346591  1887A      4.363237  
    1888A      4.376348  1889A      4.425191  1890A      4.431364  
    1891A      4.437003  1892A      4.530871  1893A      4.585883  
    1894A      4.625355  1895A      4.640116  1896A      4.640338  
    1897A      4.725104  1898A      4.745047  1899A      4.746600  

    Final Occupation by Irrep:
              A 
    DOCC [   321 ]
    NA   [   321 ]
    NB   [   321 ]

  @DF-RHF Final Energy: -4073.00065253128469

   => Energetics <=

    Nuclear Repulsion Energy =          17857.6043807805435790
    One-Electron Energy =              -41205.0890672563909902
    Two-Electron Energy =               19274.4840339445618156
    Total Energy =                      -4073.0006525312855956

Computation Completed


Properties will be evaluated at   0.000000,   0.000000,   0.000000 [a0]

Properties computed using the SCF density matrix


 Multipole Moments:

 ------------------------------------------------------------------------------------
     Multipole            Electronic (a.u.)      Nuclear  (a.u.)        Total (a.u.)
 ------------------------------------------------------------------------------------

 L = 1.  Multiply by 2.5417464519 to convert [e a0] to [Debye]
 Dipole X            :          0.0006489           -0.0000548            0.0005941
 Dipole Y            :          0.0002924           -0.0002464            0.0000461
 Dipole Z            :        -14.3936035           17.8530181            3.4594146
 Magnitude           :                                                    3.4594147

 ------------------------------------------------------------------------------------

*** tstop() called on n2cn0572 at Sat Jan 27 13:33:28 2024
Module time:
	user time   =   24516.18 seconds =     408.60 minutes
	system time =    1545.85 seconds =      25.76 minutes
	total time  =      10304 seconds =     171.73 minutes
Total time:
	user time   =   24516.18 seconds =     408.60 minutes
	system time =    1545.85 seconds =      25.76 minutes
	total time  =      10304 seconds =     171.73 minutes

  //>>>>>>>>>>>>>>>>>>>>>>>>>>>>>>>>>>>//
  //            Monomer A HF           //
  //<<<<<<<<<<<<<<<<<<<<<<<<<<<<<<<<<<<//

   => Libint2 <=

    Primary   basis highest AM E, G, H:  5, 4, 3
    Auxiliary basis highest AM E, G, H:  6, 5, 4
    Onebody   basis highest AM E, G, H:  6, 5, 4
    Solid Harmonics ordering:            gaussian

*** tstart() called on n2cn0572
*** at Sat Jan 27 13:33:29 2024

   => Loading Basis Set <=

    Name: JUN-CC-PVDZ
    Role: ORBITAL
    Keyword: BASIS
    atoms 1                                                   entry B          line   130 file /opt/software/pc2/EB-SW/software/PSI4/1.9-foss-2022a/share/psi4/basis/jun-cc-pvdz.gbs 
    atoms 2-5                                                 entry F          line   266 file /opt/software/pc2/EB-SW/software/PSI4/1.9-foss-2022a/share/psi4/basis/jun-cc-pvdz.gbs 
    atoms 6-23, 30-42, 45-59, 62-78, 81-93, 98-108, 111-119   entry C          line   164 file /opt/software/pc2/EB-SW/software/PSI4/1.9-foss-2022a/share/psi4/basis/jun-cc-pvdz.gbs 
    atoms 24-29, 43-44, 60-61, 79-80, 94-97, 109-110, 120-125 entry H          line    36 file /opt/software/pc2/EB-SW/software/PSI4/1.9-foss-2022a/share/psi4/basis/jun-cc-pvdz.gbs 


         ---------------------------------------------------------
                                   SCF
               by Justin Turney, Rob Parrish, Andy Simmonett
                          and Daniel G. A. Smith
                              RHF Reference
                       16 Threads,  61035 MiB Core
         ---------------------------------------------------------

  ==> Geometry <==

    Molecular point group: c1
    Full point group: C1

    Geometry (in Angstrom), charge = -1, multiplicity = 1:

       Center              X                  Y                   Z               Mass       
    ------------   -----------------  -----------------  -----------------  -----------------
         B           -0.000201921932     0.000288800891    -2.793342573473    11.009305360000
         F           -0.000004162732     0.000014527991    -1.380557573473    18.998403162730
         F            1.147855837268     0.675795727991    -3.264483573473    18.998403162730
         F            0.011913897268    -1.331996472009    -3.264281573473    18.998403162730
         F           -1.159670162732     0.656088027991    -3.264202573473    18.998403162730
      Gh(C)          -3.668445426752     7.803766698073     0.208523467862    12.000000000000
      Gh(C)          -4.847602882078     7.131256359331     0.206156892930    12.000000000000
      Gh(C)          -4.894963461907     5.696344931522     0.205583981832    12.000000000000
      Gh(C)          -3.653744841505     4.980744868950     0.213244423561    12.000000000000
      Gh(C)          -2.409429284226     7.113995564665     0.208717810123    12.000000000000
      Gh(C)          -2.425481506836     5.681136478894     0.201712921252    12.000000000000
      Gh(C)          -1.194748179167     7.786158722300     0.210189990664    12.000000000000
      Gh(C)           0.037954866205     7.099436173748     0.208019286360    12.000000000000
      Gh(C)           0.030328424687     5.669504087695     0.202535901444    12.000000000000
      Gh(C)          -1.200988670637     4.969284875906     0.211505635377    12.000000000000
      Gh(C)           1.277953663083     7.772873971185     0.209395134920    12.000000000000
      Gh(C)           2.485353921992     7.087711413228     0.207120647015    12.000000000000
      Gh(C)           2.486124522185     5.654785338231     0.200182898028    12.000000000000
      Gh(C)           1.254078756912     4.956092641655     0.211810839616    12.000000000000
      Gh(C)           3.751710428674     7.763926678971     0.207247498396    12.000000000000
      Gh(C)           4.923561893453     7.078795304981     0.205191017688    12.000000000000
      Gh(C)           4.955603108594     5.643461991360     0.205030604881    12.000000000000
      Gh(C)           3.706797371473     4.941224736324     0.210122165051    12.000000000000
      Gh(H)          -3.658525300490     8.890841947126     0.210208456113     1.007825032230
      Gh(H)          -1.189217492488     8.874135615351     0.214161867106     1.007825032230
      Gh(H)           1.284290076155     8.860847963479     0.213553959061     1.007825032230
      Gh(H)           3.753537924068     8.851049806963     0.208770022711     1.007825032230
      Gh(H)           5.869954540475     7.613809362646     0.204265650645     1.007825032230
      Gh(H)          -5.788235870234     7.676316740925     0.204597045574     1.007825032230
      Gh(C)          -6.091978121428     4.993274541634     0.203711741341    12.000000000000
[...]
    1519A      2.158303  1520A      2.159624  1521A      2.159881  
    1522A      2.160724  1523A      2.161220  1524A      2.163191  
    1525A      2.164251  1526A      2.164573  1527A      2.169003  
    1528A      2.169323  1529A      2.175730  1530A      2.179218  
    1531A      2.180621  1532A      2.183201  1533A      2.183685  
    1534A      2.183816  1535A      2.185705  1536A      2.193179  
    1537A      2.193216  1538A      2.196051  1539A      2.197368  
    1540A      2.199689  1541A      2.200649  1542A      2.202029  
    1543A      2.202533  1544A      2.204746  1545A      2.205125  
    1546A      2.207324  1547A      2.208777  1548A      2.213187  
    1549A      2.218462  1550A      2.218745  1551A      2.219825  
    1552A      2.220307  1553A      2.222869  1554A      2.227565  
    1555A      2.229277  1556A      2.230371  1557A      2.231326  
    1558A      2.231948  1559A      2.232435  1560A      2.233412  
    1561A      2.235341  1562A      2.239593  1563A      2.240109  
    1564A      2.240997  1565A      2.243086  1566A      2.246254  
    1567A      2.247812  1568A      2.253661  1569A      2.259978  
    1570A      2.264152  1571A      2.267851  1572A      2.269858  
    1573A      2.271074  1574A      2.279316  1575A      2.279799  
    1576A      2.280381  1577A      2.283366  1578A      2.283870  
    1579A      2.286456  1580A      2.290573  1581A      2.292880  
    1582A      2.295905  1583A      2.297138  1584A      2.297539  
    1585A      2.304520  1586A      2.306481  1587A      2.306875  
    1588A      2.317614  1589A      2.325277  1590A      2.326148  
    1591A      2.327319  1592A      2.328031  1593A      2.331375  
    1594A      2.332096  1595A      2.333276  1596A      2.335231  
    1597A      2.335996  1598A      2.336054  1599A      2.340961  
    1600A      2.342252  1601A      2.342511  1602A      2.342974  
    1603A      2.345551  1604A      2.346431  1605A      2.346624  
    1606A      2.350784  1607A      2.355211  1608A      2.355783  
    1609A      2.376525  1610A      2.384114  1611A      2.388175  
    1612A      2.390184  1613A      2.391927  1614A      2.401959  
    1615A      2.406248  1616A      2.416747  1617A      2.417865  
    1618A      2.419374  1619A      2.421824  1620A      2.424716  
    1621A      2.433560  1622A      2.434166  1623A      2.443179  
    1624A      2.453251  1625A      2.453500  1626A      2.455109  
    1627A      2.466491  1628A      2.467584  1629A      2.467802  
    1630A      2.468643  1631A      2.472039  1632A      2.472287  
    1633A      2.489725  1634A      2.491675  1635A      2.493097  
    1636A      2.504085  1637A      2.507974  1638A      2.508254  
    1639A      2.512087  1640A      2.516674  1641A      2.525067  
    1642A      2.540441  1643A      2.542919  1644A      2.543316  
    1645A      2.545638  1646A      2.546463  1647A      2.549287  
    1648A      2.549932  1649A      2.553912  1650A      2.554712  
    1651A      2.556613  1652A      2.556743  1653A      2.564401  
    1654A      2.571563  1655A      2.572366  1656A      2.582841  
    1657A      2.584869  1658A      2.585498  1659A      2.586126  
    1660A      2.587879  1661A      2.589208  1662A      2.589764  
    1663A      2.590429  1664A      2.593309  1665A      2.593788  
    1666A      2.603126  1667A      2.603621  1668A      2.614630  
    1669A      2.614891  1670A      2.615212  1671A      2.615392  
    1672A      2.619124  1673A      2.619774  1674A      2.632860  
    1675A      2.643583  1676A      2.645061  1677A      2.647136  
    1678A      2.648982  1679A      2.649966  1680A      2.651285  
    1681A      2.652912  1682A      2.653999  1683A      2.657322  
    1684A      2.657542  1685A      2.666270  1686A      2.668455  
    1687A      2.672552  1688A      2.673396  1689A      2.674391  
    1690A      2.680998  1691A      2.681217  1692A      2.684396  
    1693A      2.688116  1694A      2.689417  1695A      2.691700  
    1696A      2.691993  1697A      2.693358  1698A      2.694536  
    1699A      2.695838  1700A      2.699749  1701A      2.702578  
    1702A      2.709502  1703A      2.727158  1704A      2.730966  
    1705A      2.732142  1706A      2.732583  1707A      2.732826  
    1708A      2.732924  1709A      2.760133  1710A      2.761956  
    1711A      2.762960  1712A      2.777485  1713A      2.787605  
    1714A      2.790147  1715A      2.801420  1716A      2.801821  
    1717A      2.802305  1718A      2.802464  1719A      2.810035  
    1720A      2.812383  1721A      2.813300  1722A      2.815121  
    1723A      2.817129  1724A      2.817868  1725A      2.819147  
    1726A      2.819959  1727A      2.833545  1728A      2.834391  
    1729A      2.840593  1730A      2.843430  1731A      2.843493  
    1732A      2.847382  1733A      2.853896  1734A      2.865253  
    1735A      2.865306  1736A      2.872271  1737A      2.873161  
    1738A      2.875643  1739A      2.893563  1740A      2.894248  
    1741A      2.896184  1742A      2.897032  1743A      2.918679  
    1744A      2.918845  1745A      2.920267  1746A      2.925587  
    1747A      2.927794  1748A      2.936133  1749A      2.936153  
    1750A      2.964245  1751A      2.966272  1752A      2.966781  
    1753A      2.976527  1754A      2.986008  1755A      2.993503  
    1756A      2.993607  1757A      3.030541  1758A      3.030939  
    1759A      3.038461  1760A      3.041296  1761A      3.048315  
    1762A      3.048795  1763A      3.049071  1764A      3.058042  
    1765A      3.058203  1766A      3.068681  1767A      3.073185  
    1768A      3.077690  1769A      3.111535  1770A      3.114430  
    1771A      3.115047  1772A      3.127734  1773A      3.130398  
    1774A      3.130557  1775A      3.140516  1776A      3.142571  
    1777A      3.143604  1778A      3.144393  1779A      3.150925  
    1780A      3.151494  1781A      3.152087  1782A      3.152459  
    1783A      3.154693  1784A      3.162204  1785A      3.168992  
    1786A      3.173333  1787A      3.179920  1788A      3.179999  
    1789A      3.193695  1790A      3.194466  1791A      3.220888  
    1792A      3.258659  1793A      3.260751  1794A      3.262690  
    1795A      3.263031  1796A      3.264404  1797A      3.265561  
    1798A      3.272526  1799A      3.275161  1800A      3.276503  
    1801A      3.277124  1802A      3.300793  1803A      3.302501  
    1804A      3.309023  1805A      3.317331  1806A      3.362421  
    1807A      3.363205  1808A      3.398219  1809A      3.418892  
    1810A      3.437749  1811A      3.441848  1812A      3.458353  
    1813A      3.458795  1814A      3.460935  1815A      3.467125  
    1816A      3.474380  1817A      3.476814  1818A      3.477646  
    1819A      3.488113  1820A      3.490255  1821A      3.509296  
    1822A      3.518954  1823A      3.546399  1824A      3.561621  
    1825A      3.580234  1826A      3.582227  1827A      3.592420  
    1828A      3.596188  1829A      3.653207  1830A      3.658641  
    1831A      3.668408  1832A      3.670973  1833A      3.707121  
    1834A      3.759858  1835A      3.762054  1836A      3.764478  
    1837A      3.776598  1838A      3.778719  1839A      3.801232  
    1840A      3.843827  1841A      3.851576  1842A      3.874327  
    1843A      3.877862  1844A      3.922635  1845A      3.923358  
    1846A      3.949286  1847A      3.949904  1848A      3.964227  
    1849A      3.968679  1850A      3.972874  1851A      3.978806  
    1852A      3.992261  1853A      4.024868  1854A      4.027687  
    1855A      4.083384  1856A      4.261911  1857A      4.414186  
    1858A      4.418450  1859A      4.435179  1860A      4.468788  
    1861A      4.512780  1862A      4.788588  1863A      5.759872  
    1864A      5.768420  1865A      5.772898  1866A      5.773137  
    1867A      5.791874  1868A      5.792387  1869A      5.824270  
    1870A      5.833143  1871A      5.864844  1872A      5.945469  
    1873A      5.956080  1874A      6.031938  1875A      6.055489  
    1876A      6.064830  1877A      6.216028  1878A      6.339397  
    1879A      6.340913  1880A      6.398886  1881A      6.399221  
    1882A      6.400032  1883A      7.336576  1884A      7.340972  
    1885A      7.347946  1886A      7.440488  1887A      7.444534  
    1888A      7.508373  1889A      7.650366  1890A      7.650838  
    1891A      7.761552  1892A      7.767662  1893A      7.788997  
    1894A      8.091464  1895A     12.899647  1896A     42.954946  
    1897A     42.955144  1898A     42.967918  1899A     42.996932  

    Final Occupation by Irrep:
              A 
    DOCC [   300 ]
    NA   [   300 ]
    NB   [   300 ]

  @DF-RHF Final Energy: -3650.34048737322200

   => Energetics <=

    Nuclear Repulsion Energy =          15611.4211649754324753
    One-Electron Energy =              -36072.1599142682098318
    Two-Electron Energy =               16810.3982619195558073
    Total Energy =                      -3650.3404873732215492

Computation Completed


Properties will be evaluated at   0.000000,   0.000000,   0.000000 [a0]

Properties computed using the SCF density matrix


 Multipole Moments:

 ------------------------------------------------------------------------------------
     Multipole            Electronic (a.u.)      Nuclear  (a.u.)        Total (a.u.)
 ------------------------------------------------------------------------------------

 L = 1.  Multiply by 2.5417464519 to convert [e a0] to [Debye]
 Dipole X            :          0.0003780            0.0002304            0.0006085
 Dipole Y            :          0.0014192           -0.0013052            0.0001140
 Dipole Z            :       -234.2801152          234.2804042            0.0002891
 Magnitude           :                                                    0.0006832

 ------------------------------------------------------------------------------------

*** tstop() called on n2cn0572 at Sat Jan 27 16:13:36 2024
Module time:
	user time   =   17608.44 seconds =     293.47 minutes
	system time =     960.59 seconds =      16.01 minutes
	total time  =       6091 seconds =     101.52 minutes
Total time:
	user time   =   46702.17 seconds =     778.37 minutes
	system time =    2804.14 seconds =      46.74 minutes
	total time  =      19912 seconds =     331.87 minutes
  Constructing Basis Sets for SAPT...

   => Loading Basis Set <=

    Name: (JUN-CC-PVDZ AUX)
    Role: RIFIT
    Keyword: DF_BASIS_SAPT
    atoms 1                                                   entry B          line    56 file /opt/software/pc2/EB-SW/software/PSI4/1.9-foss-2022a/share/psi4/basis/jun-cc-pvdz-ri.gbs 
    atoms 2-5                                                 entry F          line   232 file /opt/software/pc2/EB-SW/software/PSI4/1.9-foss-2022a/share/psi4/basis/jun-cc-pvdz-ri.gbs 
    atoms 6-23, 30-42, 45-59, 62-78, 81-93, 98-108, 111-119   entry C          line   100 file /opt/software/pc2/EB-SW/software/PSI4/1.9-foss-2022a/share/psi4/basis/jun-cc-pvdz-ri.gbs 
    atoms 24-29, 43-44, 60-61, 79-80, 94-97, 109-110, 120-125 entry H          line    30 file /opt/software/pc2/EB-SW/software/PSI4/1.9-foss-2022a/share/psi4/basis/jun-cc-pvdz-ri.gbs 

   => Loading Basis Set <=

    Name: (JUN-CC-PVDZ AUX)
    Role: JKFIT
    Keyword: DF_BASIS_ELST
    atoms 1                                                   entry B          line    90 file /opt/software/pc2/EB-SW/software/PSI4/1.9-foss-2022a/share/psi4/basis/jun-cc-pvdz-jkfit.gbs 
    atoms 2-5                                                 entry F          line   314 file /opt/software/pc2/EB-SW/software/PSI4/1.9-foss-2022a/share/psi4/basis/jun-cc-pvdz-jkfit.gbs 
    atoms 6-23, 30-42, 45-59, 62-78, 81-93, 98-108, 111-119   entry C          line   146 file /opt/software/pc2/EB-SW/software/PSI4/1.9-foss-2022a/share/psi4/basis/jun-cc-pvdz-jkfit.gbs 
    atoms 24-29, 43-44, 60-61, 79-80, 94-97, 109-110, 120-125 entry H          line    70 file /opt/software/pc2/EB-SW/software/PSI4/1.9-foss-2022a/share/psi4/basis/jun-cc-pvdz-jkfit.gbs 


  //>>>>>>>>>>>>>>>>>>>>>>>>>>>>>>>>>>>//
  //               SSAPT0              //
  //<<<<<<<<<<<<<<<<<<<<<<<<<<<<<<<<<<<//


*** tstart() called on n2cn0572
*** at Sat Jan 27 16:13:38 2024

        SAPT0  
    Ed Hohenstein
     6 June 2009

      Orbital Information
  --------------------------
    NSO        =      1938
    NMO        =      1899
    NRI        =      6901
    NRI (Elst) =      8531
    NOCC A     =        21
    NOCC B     =       300
    FOCC A     =         5
    FOCC B     =        96
    NVIR A     =      1878
    NVIR B     =      1599

    Elst10,r            =    -0.091468141404 [Eh]
    Exch10              =     0.244315916403 [Eh]
    Exch10 (S^2)        =     0.238102277230 [Eh]

    Iter     Energy [mEh]          dE [mEh]         Residual      Time [s]
       1     -40.75268034      40.752680336      50.797953860           687
       2     -48.17016914       7.417488809      22.192095171          1348
       3     -51.67666098       3.506491836       3.310311402          2231
       4     -51.60656839      -0.070092592       1.000271444          2824
       5     -51.55352171      -0.053046681       0.216795099          3379
       6     -51.55368567       0.000163960       0.063903084          3989
       7     -51.55674080       0.003055138       0.012343541          4656
       8     -51.55643895      -0.000301853       0.002767073          5328
       9     -51.55641930      -0.000019653       0.000405214          6019
      10     -51.55642953       0.000010235       0.000069306          6563
      11     -51.55642814      -0.000001398       0.000016156          7087
      12     -51.55642821       0.000000079       0.000003589          7890
      13     -51.55642825       0.000000034       0.000001188          8501
      14     -51.55642825       0.000000005       0.000000214          9083

    CHF Iterations converged


    Iter     Energy [mEh]          dE [mEh]         Residual      Time [s]
       1     -94.01794384      94.017943840     123.279827630           758
       2     -80.62503123     -13.392912613      23.209256981          1393
       3     -85.93993084       5.314899613       9.266695378          2064
       4     -87.50885951       1.568928666       2.113649992          2792
       5     -87.43001135      -0.078848154       0.880691845          3461
       6     -87.33370302      -0.096308328       0.354343900          4063
       7     -87.33852172       0.004818692       0.169113429          4736
       8     -87.35466026       0.016138549       0.073937766          5395
       9     -87.35537446       0.000714193       0.031121800          6220
      10     -87.35295002      -0.002424434       0.012114977          6935
      11     -87.35286977      -0.000080250       0.006383834          7582
      12     -87.35332077       0.000450998       0.005619177          8258
      13     -87.35335615       0.000035376       0.003895221          8898
      14     -87.35314596      -0.000210183       0.001657115          9550
      15     -87.35314890       0.000002936       0.000921247         10224
      16     -87.35318398       0.000035081       0.000407085         10756
      17     -87.35318395      -0.000000031       0.000186408         11306
      18     -87.35317912      -0.000004833       0.000087481         11852
      19     -87.35317826      -0.000000854       0.000053618         12554
      20     -87.35317906       0.000000793       0.000028621         13127
      21     -87.35317963       0.000000569       0.000013598         14073
      22     -87.35317943      -0.000000198       0.000006337         14758
      23     -87.35317929      -0.000000141       0.000002953         15276
      24     -87.35317933       0.000000049       0.000001208         15892
      25     -87.35317936       0.000000022       0.000000581         16650

    CHF Iterations converged

    Ind20,r (A<-B)      =    -0.051556428253 [Eh]
    Ind20,r (B<-A)      =    -0.087353179356 [Eh]
    Ind20,r             =    -0.138909607609 [Eh]
    Exch-Ind20,r (A<-B) =     0.043530225336 [Eh]
    Exch-Ind20,r (B<-A) =     0.056132058416 [Eh]
    Exch-Ind20,r        =     0.099662283752 [Eh]
    Disp20              =    -0.053393944385 [Eh]
    Disp20 (SS)         =    -0.026696972193 [Eh]
    Disp20 (OS)         =    -0.026696972193 [Eh]
    Exch-Disp20         =     0.016900899615 [Eh]
    Exch-Disp20 (SS)    =     0.008761027846 [Eh]
    Exch-Disp20 (OS)    =     0.008139871768 [Eh]

    SAPT Results 
  --------------------------------------------------------------------------------------------------------
    Electrostatics                -91.46814140 [mEh]     -57.39712528 [kcal/mol]    -240.14957217 [kJ/mol]
      Elst10,r                    -91.46814140 [mEh]     -57.39712528 [kcal/mol]    -240.14957217 [kJ/mol]

    Exchange                      244.31591640 [mEh]     153.31055214 [kcal/mol]     641.45135014 [kJ/mol]
      Exch10                      244.31591640 [mEh]     153.31055214 [kcal/mol]     641.45135014 [kJ/mol]
      Exch10(S^2)                 238.10227723 [mEh]     149.41143469 [kcal/mol]     625.13744274 [kJ/mol]

    Induction                     -37.66486752 [mEh]     -23.63506120 [kcal/mol]     -98.88909606 [kJ/mol]
      Ind20,r                    -138.90960761 [mEh]     -87.16709477 [kcal/mol]    -364.70712453 [kJ/mol]
      Exch-Ind20,r                 99.66228375 [mEh]      62.53902723 [kcal/mol]     261.66328994 [kJ/mol]
      delta HF,r (2)                1.58245633 [mEh]       0.99300634 [kcal/mol]       4.15473853 [kJ/mol]

    Dispersion                    -36.49304477 [mEh]     -22.89973132 [kcal/mol]     -95.81247585 [kJ/mol]
      Disp20                      -53.39394439 [mEh]     -33.50520594 [kcal/mol]    -140.18578167 [kJ/mol]
      Exch-Disp20                  16.90089961 [mEh]      10.60547462 [kcal/mol]      44.37330583 [kJ/mol]
      Disp20 (SS)                 -26.69697219 [mEh]     -16.75260297 [kcal/mol]     -70.09289084 [kJ/mol]
      Disp20 (OS)                 -26.69697219 [mEh]     -16.75260297 [kcal/mol]     -70.09289084 [kJ/mol]
      Exch-Disp20 (SS)              8.76102785 [mEh]       5.49762797 [kcal/mol]      23.00207544 [kJ/mol]
      Exch-Disp20 (OS)              8.13987177 [mEh]       5.10784665 [kcal/mol]      21.37123038 [kJ/mol]

  Total HF                        115.18290747 [mEh]      72.27836566 [kcal/mol]     302.41268191 [kJ/mol]
  Total SAPT0                      78.68986270 [mEh]      49.37863434 [kcal/mol]     206.60020606 [kJ/mol]

  Special recipe for scaled SAPT0 (see Manual):
    Electrostatics sSAPT0         -91.46814140 [mEh]     -57.39712528 [kcal/mol]    -240.14957217 [kJ/mol]
    Exchange sSAPT0               244.31591640 [mEh]     153.31055214 [kcal/mol]     641.45135014 [kJ/mol]
    Induction sSAPT0              -29.65696362 [mEh]     -18.61002563 [kcal/mol]     -77.86434725 [kJ/mol]
    Dispersion sSAPT0             -35.13505080 [mEh]     -22.04757724 [kcal/mol]     -92.24706318 [kJ/mol]
  Total sSAPT0                     88.05576058 [mEh]      55.25582398 [kcal/mol]     231.19036755 [kJ/mol]
  --------------------------------------------------------------------------------------------------------

*** tstop() called on n2cn0572 at Sun Jan 28 23:51:45 2024
Module time:
	user time   =   69391.94 seconds =    1156.53 minutes
	system time =    3529.76 seconds =      58.83 minutes
	total time  =     113887 seconds =    1898.12 minutes
Total time:
	user time   =  116095.52 seconds =    1934.93 minutes
	system time =    6333.91 seconds =     105.57 minutes
	total time  =     133801 seconds =    2230.02 minutes

    Psi4 stopped on: Sunday, 28 January 2024 11:51PM
    Psi4 wall time for execution: 1 day, 13:10:08.06

*** Psi4 exiting successfully. Buy a developer a beer!
