
    -----------------------------------------------------------------------
          Psi4: An Open-Source Ab Initio Electronic Structure Package
                               Psi4 1.9 release

                         Git: Rev {} zzzzzzz 


    D. G. A. Smith, L. A. Burns, A. C. Simmonett, R. M. Parrish,
    M. C. Schieber, R. Galvelis, P. Kraus, H. Kruse, R. Di Remigio,
    A. Alenaizan, A. M. James, S. Lehtola, J. P. Misiewicz, M. Scheurer,
    R. A. Shaw, J. B. Schriber, Y. Xie, Z. L. Glick, D. A. Sirianni,
    J. S. O'Brien, J. M. Waldrop, A. Kumar, E. G. Hohenstein,
    B. P. Pritchard, B. R. Brooks, H. F. Schaefer III, A. Yu. Sokolov,
    K. Patkowski, A. E. DePrince III, U. Bozkaya, R. A. King,
    F. A. Evangelista, J. M. Turney, T. D. Crawford, C. D. Sherrill,
    J. Chem. Phys. 152(18) 184108 (2020). https://doi.org/10.1063/5.0006002

                            Additional Code Authors
    E. T. Seidl, C. L. Janssen, E. F. Valeev, M. L. Leininger,
    J. F. Gonthier, R. M. Richard, H. R. McAlexander, M. Saitow, X. Wang,
    P. Verma, M. H. Lechner, A. Jiang, S. Behnle, A. G. Heide,
    M. F. Herbst, and D. L. Poole

             Previous Authors, Complete List of Code Contributors,
                       and Citations for Specific Modules
    https://github.com/psi4/psi4/blob/master/codemeta.json
    https://github.com/psi4/psi4/graphs/contributors
    http://psicode.org/psi4manual/master/introduction.html#citing-psifour

    -----------------------------------------------------------------------


    Psi4 started on: Saturday, 27 January 2024 12:13AM

    Process ID: 319877
    Host:       n2cn1169.ab2021.local
    PSIDATADIR: /opt/software/pc2/EB-SW/software/PSI4/1.9-foss-2022a/share/psi4
    Memory:     500.0 MiB
    Threads:    16
    
  ==> Input File <==

--------------------------------------------------------------------------
memory 64 GB # how much memory is available ! Depends on the nodes/cores !

molecule dimer {
# monomer A
+1 1    # Charge and multiplicity
C  0.680067 1.417258 -7.415929
C -0.680504 1.419286 -7.415545
N -1.085635 1.420284 -6.097221
C  0.000108 1.423560 -5.315820
C -2.477365 1.469690 -5.629242
N  1.085222 1.420284 -6.097221
H  1.385146 1.409430 -8.233368
H -1.385302 1.419096 -8.233214
H -0.000009 1.425307 -4.234731
C  2.478117 1.403392 -5.632123
H  2.490592 1.430737 -4.541870
H  2.967028 0.489946 -5.979299
H  3.001428 2.278875 -6.023595
H -2.857359 2.491761 -5.709201
H -3.082679 0.799606 -6.242306
H -2.518128 1.142706 -4.589294
--
# monomer B
0 1     # Charge and multiplicity
C   -3.66844126402057      7.80375217008252      0.00190004133558
C   -4.84759871934653      7.13124183134024     -0.00046653359696
C   -4.89495929917518      5.69633040353158     -0.00103944469517
C   -3.65374067877320      4.98073034095895      0.00662099703436
C   -2.40942512149445      7.11398103667468      0.00209438359570
C   -2.42547734410473      5.68112195090346     -0.00491050527438
C   -1.19474401643570      7.78614419430947      0.00356656413763
C   0.03795902893699      7.09942164575698      0.00139585983271
C   0.03033258741920      5.66948955970466     -0.00408752508301
C   -1.20098450790502      4.96927034791531      0.00488220885047
C   1.27795782581485      7.77285944319479      0.00277170839332
C   2.48535808472416      7.08769688523756      0.00049722048857
C   2.48612868491717      5.65477081024076     -0.00644052849921
C   1.25408291964399      4.95607811366431      0.00518741308898
C   3.75171459140595      7.76391215098033      0.00062407186893
C   4.92356605618520      7.07878077698995     -0.00143240883900
C   4.95560727132542      5.64344746336949     -0.00159282164606
C   3.70680153420475      4.94121020833308      0.00349873852374
H   -3.65852113775815      8.89082741913536      0.00358502958574
H   -1.18921332975660      8.87412108735996      0.00753844057883
H   1.28429423888630      8.86083343548850      0.00693053253426
H   3.75354208679975      8.85103527897216      0.00214659618464
H   5.86995870320703      7.61379483465560     -0.00235777588134
H   -5.78823170750226      7.67630221293400     -0.00202638095293
C   -6.09197395869619      4.99326001364347     -0.00291168518608
C   -6.12866148031747      3.58258016879823     -0.00171050815740
C   -3.66457974004527      3.56418217974434     -0.00463560277484
C   -4.89429820469869      2.86108077590057      0.00453338221034
C   -2.43733499489796      2.84761165708481      0.00719617576166
C   -1.20922785759670      3.54788693497833     -0.00648285103018
C   1.24714157216223      3.53468075142962     -0.00729145743546
C   0.01517603956900      2.83311183930540      0.00439272578912
C   2.46764517244071      2.82128997725533      0.00449278391269
C   3.70254947457969      3.52466015442405     -0.00899517692985
C   6.14498038638375      4.92757236613191     -0.00282626685777
C   6.16658835886151      3.51658447594213     -0.00065971342101
C   4.92460995845939      2.80840792535402      0.00587903281610
H   7.08990550964105      5.46688776622306     -0.00658814770723
H   -7.03104175110130      5.54268795285765     -0.00714490013730
C   -7.33969804112295      2.85841153457957     -0.00333767559888
C   -7.36488195805880      1.47032337158330     -0.00157213747140
C   -4.90350460894690      1.44442681216000     -0.00628840166334
C   -6.13225715261081      0.73993935705394      0.00600164231964
C   -3.67687480051673      0.72669714267312      0.00433931473643
C   -2.44565658606518      1.42964113326212     -0.00597039546461
C   -1.22360068130162      0.71532450163492      0.00545886906656
C   0.00763786931376      1.41738314923765      0.00392452278437
C   1.23121980774686      0.70211669058719     -0.01490206287210
C   2.46082110053113      1.40329203612573      0.00460244601878
C   3.68443025419614      0.68719842821222      0.00377365974158
C   4.91870890153864      1.39173456118907     -0.00862816189375
C   7.36980207796101      2.77948220318441     -0.00242013321349
C   7.38016266612146      1.39121750785509     -0.00087345036788
C   6.13979953912259      0.67411862320065      0.00545489144369
H   -8.27919079934664      3.40711804112415     -0.00763522772059
H   8.31511347147953      3.31811809662368     -0.00663070901292
C   -8.59175593758115      0.72483255304480     -0.00123170985383
C   -8.59902460370342     -0.63263980622873      0.00089141472904
C   -6.13981313911873     -0.67413663715361     -0.00609792660607
C   -7.38018411213749     -1.39126618958160      0.00131813493501
C   -4.91868448025621     -1.39175501803000      0.00624257154343
C   -3.68443829568458     -0.68723731573599     -0.00478966852105
C   -2.46081704024768     -1.40334517882457      0.00575341766833
C   -1.23116201232071     -0.70217386488055     -0.00636696112346
C   -0.00756962538737     -1.41741884941102      0.00108956317991
C   1.22364771588843     -0.71527537726392      0.01109518512883
C   2.44567064933149     -1.42964328900682     -0.00065482763106
C   3.67686670284649     -0.72670743155550     -0.00479541202602
C   6.13224884641929     -0.73997883984993     -0.00632338623858
C   4.90351914550401     -1.44445752054090      0.00751768830159
C   8.59901484869081      0.63260386666793     -0.00101133422380
C   8.59174548810050     -0.72485086719319      0.00072504603735
C   7.36486276438985     -1.47033266560598      0.00049486934466
H   -9.52830597181814      1.27684744919284     -0.00270163681798
H   9.54141097460619      1.17457248844457     -0.00206336648518
C   -7.36983790976868     -2.77954514593389      0.00312634335708
C   -4.92459910905015     -2.80843725734101     -0.00460528907921
C   -6.16662249566744     -3.51665219282533      0.00169655107992
C   -3.70251035970491     -3.52468154912026      0.00571878010666
C   -2.46764698511392     -2.82132596280400     -0.00632585824990
C   -0.01513347410770     -2.83314164539971     -0.00604426974092
C   -1.24712184122656     -3.53473217556300      0.00551968366725
C   1.20924506964357     -3.54791467864352      0.00805871345849
C   2.43733602215464     -2.84764173817541     -0.00608104485234
C   4.89430234377080     -2.86112296828604     -0.00526030478103
C   3.66461525504104     -3.56421984553201      0.00761911515957
C   6.12863901474565     -3.58258405771778      0.00096495711699
C   7.33967266469532     -2.85841330737039      0.00248018319869
H   -9.54144911125902     -1.17456346666430      0.00226083090216
H   9.52826186807155     -1.27691907390448      0.00197485379837
H   -8.31516504384864     -3.31814985321231      0.00729857188773
H   8.27915514249207     -3.40714078989363      0.00681973918158
C   -6.14499418870218     -4.92764727278338      0.00302254913999
C   -3.70678334799751     -4.94126171411716     -0.00679841894792
C   -4.95559005800169     -5.64349397349412      0.00116871569699
C   -2.48612132622665     -5.65478557440947      0.00614125209662
C   -1.25405833548005     -4.95612205000132     -0.00503435388927
C   1.20101257386816     -4.96928038819302     -0.00385322963129
C   -0.03033667441341     -5.66952030313900      0.00398997003238
C   3.65375010132847     -4.98074377541453     -0.00309522988330
C   2.42549269587528     -5.68117463552727      0.00628170066869
C   6.09196561781097     -4.99325796338655      0.00325918379042
C   4.89497644461045     -5.69634842095790      0.00202298796027
H   -7.08989238804069     -5.46699984223871      0.00742531082125
H   7.03105520920009     -5.54265853633254      0.00683896355417
C   -4.92354532219813     -7.07882109967734      0.00061394679214
C   -2.48534208823777     -7.08772807792913     -0.00189594564379
C   -3.75168589177895     -7.76394715763627     -0.00170126671874
C   -0.03794895698805     -7.09946487446944     -0.00168022049625
C   -1.27795610040136     -7.77290438466689     -0.00366491325785
C   2.40944432072629     -7.11402201200282     -0.00081701968533
C   1.19474993715296     -7.78618536556242     -0.00296931056689
C   4.84762105249800     -7.13126211057943      0.00168979497423
C   3.66847160587561     -7.80378799294376     -0.00065863938960
H   -5.86994035041618     -7.61383059804164      0.00215798365757
H   5.78824962538815     -7.67633218931421      0.00281691445618
H   -3.75352693944918     -8.85107156923607     -0.00353718114765
H   -1.28430440589466     -8.86087539249706     -0.00809229711623
H   1.18922157469537     -8.87416062058945     -0.00706194725726
H   3.65854661482387     -8.89086063405326     -0.00231318081200

    units angstrom      # Angstroms are the default
    no_reorient         # Geometry fixed, default
    symmetry c1         # C1 symmetry, default
}

set {
    scf_type DF         # Density fitting, faster than exact integrals
    freeze_core True    # Freeze core electrons
    basis jun-cc-pVDZ   # Jun-cc-pVDZ basis set, recommended for sSAPT0 in https://doi.org/10.1063/1.4867135
}

energy('ssapt0')        # Compute sSAPT0 energy, includes also SAPT0
--------------------------------------------------------------------------

  Memory set to  59.605 GiB by Python driver.

Scratch directory: /tmp/
   => Loading Basis Set <=

    Name: JUN-CC-PVDZ
    Role: ORBITAL
    Keyword: BASIS
    atoms 1-2, 4-5, 10, 17-34, 41-53, 56-70, 73-89, 92-104, 109-119, 122-130 entry C          line   164 file /opt/software/pc2/EB-SW/software/PSI4/1.9-foss-2022a/share/psi4/basis/jun-cc-pvdz.gbs 
    atoms 3, 6                                                               entry N          line   198 file /opt/software/pc2/EB-SW/software/PSI4/1.9-foss-2022a/share/psi4/basis/jun-cc-pvdz.gbs 
    atoms 7-9, 11-16, 35-40, 54-55, 71-72, 90-91, 105-108, 120-121, 131-136  entry H          line    36 file /opt/software/pc2/EB-SW/software/PSI4/1.9-foss-2022a/share/psi4/basis/jun-cc-pvdz.gbs 

   => Loading Basis Set <=

    Name: JUN-CC-PVDZ
    Role: ORBITAL
    Keyword: BASIS
    atoms 1-2, 4-5, 10, 17-34, 41-53, 56-70, 73-89, 92-104, 109-119, 122-130 entry C          line   164 file /opt/software/pc2/EB-SW/software/PSI4/1.9-foss-2022a/share/psi4/basis/jun-cc-pvdz.gbs 
    atoms 3, 6                                                               entry N          line   198 file /opt/software/pc2/EB-SW/software/PSI4/1.9-foss-2022a/share/psi4/basis/jun-cc-pvdz.gbs 
    atoms 7-9, 11-16, 35-40, 54-55, 71-72, 90-91, 105-108, 120-121, 131-136  entry H          line    36 file /opt/software/pc2/EB-SW/software/PSI4/1.9-foss-2022a/share/psi4/basis/jun-cc-pvdz.gbs 


  //>>>>>>>>>>>>>>>>>>>>>>>>>>>>>>>>>>>//
  //              Dimer HF             //
  //<<<<<<<<<<<<<<<<<<<<<<<<<<<<<<<<<<<//

   => Libint2 <=

    Primary   basis highest AM E, G, H:  5, 4, 3
    Auxiliary basis highest AM E, G, H:  6, 5, 4
    Onebody   basis highest AM E, G, H:  6, 5, 4
    Solid Harmonics ordering:            gaussian

*** tstart() called on n2cn1169.ab2021.local
*** at Sat Jan 27 00:13:58 2024

   => Loading Basis Set <=

    Name: JUN-CC-PVDZ
    Role: ORBITAL
    Keyword: BASIS
    atoms 1-2, 4-5, 10, 17-34, 41-53, 56-70, 73-89, 92-104, 109-119, 122-130 entry C          line   164 file /opt/software/pc2/EB-SW/software/PSI4/1.9-foss-2022a/share/psi4/basis/jun-cc-pvdz.gbs 
    atoms 3, 6                                                               entry N          line   198 file /opt/software/pc2/EB-SW/software/PSI4/1.9-foss-2022a/share/psi4/basis/jun-cc-pvdz.gbs 
    atoms 7-9, 11-16, 35-40, 54-55, 71-72, 90-91, 105-108, 120-121, 131-136  entry H          line    36 file /opt/software/pc2/EB-SW/software/PSI4/1.9-foss-2022a/share/psi4/basis/jun-cc-pvdz.gbs 


         ---------------------------------------------------------
                                   SCF
               by Justin Turney, Rob Parrish, Andy Simmonett
                          and Daniel G. A. Smith
                              RHF Reference
                       16 Threads,  61035 MiB Core
         ---------------------------------------------------------

  ==> Geometry <==

    Molecular point group: c1
    Full point group: C1

    Geometry (in Angstrom), charge = 1, multiplicity = 1:

       Center              X                  Y                   Z               Mass       
    ------------   -----------------  -----------------  -----------------  -----------------
         C            0.680062820275     1.308604348936    -6.943232669164    12.000000000000
         C           -0.680508179725     1.310632348936    -6.942848669164    12.000000000000
         N           -1.085639179725     1.311630348936    -5.624524669164    14.003074004430
         C            0.000103820275     1.314906348936    -4.843123669164    12.000000000000
         C           -2.477369179725     1.361036348936    -5.156545669164    12.000000000000
         N            1.085217820275     1.311630348936    -5.624524669164    14.003074004430
         H            1.385141820275     1.300776348936    -7.760671669164     1.007825032230
         H           -1.385306179725     1.310442348936    -7.760517669164     1.007825032230
         H           -0.000013179725     1.316653348936    -3.762034669164     1.007825032230
         C            2.478112820275     1.294738348936    -5.159426669164    12.000000000000
         H            2.490587820275     1.322083348936    -4.069173669164     1.007825032230
         H            2.967023820275     0.381292348936    -5.506602669164     1.007825032230
         H            3.001423820275     2.170221348936    -5.550898669164     1.007825032230
         H           -2.857363179725     2.383107348936    -5.236504669164     1.007825032230
         H           -3.082683179725     0.690952348936    -5.769609669164     1.007825032230
         H           -2.518132179725     1.034052348936    -4.116597669164     1.007825032230
         C           -3.668445443746     7.695098519018     0.474596372172    12.000000000000
         C           -4.847602899072     7.022588180276     0.472229797239    12.000000000000
         C           -4.894963478901     5.587676752467     0.471656886141    12.000000000000
         C           -3.653744858499     4.872076689895     0.479317327871    12.000000000000
         C           -2.409429301220     7.005327385610     0.474790714432    12.000000000000
         C           -2.425481523830     5.572468299839     0.467785825562    12.000000000000
         C           -1.194748196161     7.677490543245     0.476262894974    12.000000000000
         C            0.037954849212     6.990767994693     0.474092190669    12.000000000000
         C            0.030328407694     5.560835908640     0.468608805753    12.000000000000
         C           -1.200988687630     4.860616696851     0.477578539687    12.000000000000
         C            1.277953646089     7.664205792130     0.475468039230    12.000000000000
         C            2.485353904999     6.979043234173     0.473193551325    12.000000000000
         C            2.486124505192     5.546117159176     0.466255802337    12.000000000000
         C            1.254078739919     4.847424462600     0.477883743925    12.000000000000
         C            3.751710411681     7.655258499916     0.473320402705    12.000000000000
         C            4.923561876460     6.970127125926     0.471263921997    12.000000000000
         C            4.955603091600     5.534793812305     0.471103509190    12.000000000000
         C            3.706797354479     4.832556557269     0.476195069360    12.000000000000
         H           -3.658525317484     8.782173768071     0.476281360422     1.007825032230
         H           -1.189217509482     8.765467436296     0.480234771415     1.007825032230
         H            1.284290059161     8.752179784424     0.479626863371     1.007825032230
         H            3.753537907074     8.742381627908     0.474842927021     1.007825032230
         H            5.869954523482     7.505141183591     0.470338554955     1.007825032230
         H           -5.788235887228     7.567648561870     0.470669949883     1.007825032230
         C           -6.091978138422     4.884606362579     0.469784645650    12.000000000000
         C           -6.128665660043     3.473926517734     0.470985822679    12.000000000000
         C           -3.664583919771     3.455528528680     0.468060728062    12.000000000000
         C           -4.894302384424     2.752427124836     0.477229713047    12.000000000000
         C           -2.437339174623     2.738958006020     0.479892506598    12.000000000000
         C           -1.209232037322     3.439233283914     0.466213479806    12.000000000000
         C            1.247137392437     3.426027100365     0.465404873401    12.000000000000
         C            0.015171859844     2.724458188241     0.477089056625    12.000000000000
         C            2.467640992715     2.712636326191     0.477189114749    12.000000000000
         C            3.702545294854     3.416006503360     0.463701153907    12.000000000000
         C            6.144976206658     4.818918715067     0.469870063979    12.000000000000
         C            6.166584179136     3.407930824878     0.472036617415    12.000000000000
         C            4.924605778734     2.699754274290     0.478575363652    12.000000000000
         H            7.089901329916     5.358234115159     0.466108183129     1.007825032230
         H           -7.031045930827     5.434034301793     0.465551430699     1.007825032230
         C           -7.339702220848     2.749757883515     0.469358655237    12.000000000000
         C           -7.364886137784     1.361669720519     0.471124193365    12.000000000000
         C           -4.903508788672     1.335773161096     0.466407929173    12.000000000000
         C           -6.132261332336     0.631285705989     0.478697973156    12.000000000000
         C           -3.676878980242     0.618043491609     0.477035645573    12.000000000000
         C           -2.445660765791     1.320987482198     0.466725935372    12.000000000000
         C           -1.223604861027     0.606670850570     0.478155199903    12.000000000000
         C            0.007633689588     1.308729498173     0.476620853621    12.000000000000
         C            1.231215628021     0.593463039523     0.457794267964    12.000000000000
         C            2.460816920806     1.294638385061     0.477298776855    12.000000000000
         C            3.684426074471     0.578544777148     0.476469990578    12.000000000000
         C            4.918704721813     1.283080910125     0.464068168943    12.000000000000
         C            7.369797898236     2.670828552120     0.470276197623    12.000000000000
         C            7.380158486396     1.282563856791     0.471822880468    12.000000000000
         C            6.139795359397     0.565464972136     0.478151222280    12.000000000000
         H           -8.279194979072     3.298464390060     0.465061103116     1.007825032230
         H            8.315109291754     3.209464445559     0.466065621823     1.007825032230
         C           -8.591760117307     0.616178901980     0.471464620983    12.000000000000
         C           -8.599028783429    -0.741293457293     0.473587745565    12.000000000000
         C           -6.139817318844    -0.782790288218     0.466598404230    12.000000000000
         C           -7.380188291863    -1.499919840646     0.474014465771    12.000000000000
         C           -4.918688659982    -1.500408669094     0.478938902380    12.000000000000
         C           -3.684442475410    -0.795890966800     0.467906662315    12.000000000000
         C           -2.460821219973    -1.511998829889     0.478449748505    12.000000000000
         C           -1.231166192046    -0.810827515945     0.466329369713    12.000000000000
         C           -0.007573805113    -1.526072500475     0.473785894016    12.000000000000
         C            1.223643536163    -0.823929028328     0.483791515965    12.000000000000
         C            2.445666469606    -1.538296940071     0.472041503205    12.000000000000
         C            3.676862523121    -0.835361082620     0.467900918810    12.000000000000
         C            6.132244666694    -0.848632490914     0.466372944598    12.000000000000
         C            4.903514965779    -1.553111171605     0.480214019138    12.000000000000
         C            8.599010668965     0.523950215603     0.471684996613    12.000000000000
         C            8.591741308375    -0.833504518258     0.473421376874    12.000000000000
         C            7.364858584664    -1.578986316670     0.473191200181    12.000000000000
         H           -9.528310151544     1.168193798128     0.469994694018     1.007825032230
         H            9.541406794881     1.065918837380     0.470632964351     1.007825032230
         C           -7.369842089494    -2.888198796998     0.475822674193    12.000000000000
         C           -4.924603288776    -2.917090908405     0.468091041757    12.000000000000
         C           -6.166626675393    -3.625305843890     0.474392881916    12.000000000000
         C           -3.702514539430    -3.633335200185     0.478415110943    12.000000000000
         C           -2.467651164839    -2.929979613868     0.466370472586    12.000000000000
         C           -0.015137653833    -2.941795296464     0.466652061095    12.000000000000
         C           -1.247126020952    -3.643385826627     0.478216014504    12.000000000000
         C            1.209240889918    -3.656568329708     0.480755044295    12.000000000000
         C            2.437331842429    -2.956295389240     0.466615285984    12.000000000000
         C            4.894298164045    -2.969776619350     0.467436026055    12.000000000000
         C            3.664611075316    -3.672873496596     0.480315445996    12.000000000000
         C            6.128634835020    -3.691237708782     0.473661287953    12.000000000000
         C            7.339668484970    -2.967066958435     0.475176514035    12.000000000000
         H           -9.541453290984    -1.283217117729     0.474957161739     1.007825032230
         H            9.528257688346    -1.385572724969     0.474671184635     1.007825032230
         H           -8.315169223574    -3.426803504277     0.479994902724     1.007825032230
         H            8.279150962767    -3.515794440958     0.479516070018     1.007825032230
         C           -6.144998368428    -5.036300923848     0.475718879976    12.000000000000
         C           -3.706787527723    -5.049915365182     0.465897911888    12.000000000000
         C           -4.955594237727    -5.752147624559     0.473865046533    12.000000000000
         C           -2.486125505952    -5.763439225474     0.478837582933    12.000000000000
         C           -1.254062515205    -5.064775701066     0.467661976947    12.000000000000
         C            1.201008394143    -5.077934039257     0.468843101205    12.000000000000
         C           -0.030340854139    -5.778173954203     0.476686300869    12.000000000000
         C            3.653745921603    -5.089397426479     0.469601100953    12.000000000000
         C            2.425488516150    -5.789828286592     0.478978031505    12.000000000000
         C            6.091961438086    -5.101911614451     0.475955514627    12.000000000000
         C            4.894972264885    -5.805002072022     0.474719318797    12.000000000000
         H           -7.089896567766    -5.575653493303     0.480121641658     1.007825032230
         H            7.031051029475    -5.651312187397     0.479535294391     1.007825032230
         C           -4.923549501924    -7.187474750742     0.473310277629    12.000000000000
         C           -2.485346267963    -7.196381728994     0.470800385193    12.000000000000
         C           -3.751690071504    -7.872600808701     0.470995064118    12.000000000000
         C           -0.037953136713    -7.208118525534     0.471016110340    12.000000000000
         C           -1.277960280127    -7.881558035731     0.469031417579    12.000000000000
         C            2.409440141001    -7.222675663067     0.471879311151    12.000000000000
         C            1.194745757428    -7.894839016627     0.469727020269    12.000000000000
         C            4.847616872773    -7.239915761644     0.474386125811    12.000000000000
         C            3.668467426150    -7.912441644008     0.472037691447    12.000000000000
         H           -5.869944530142    -7.722484249106     0.474854314494     1.007825032230
         H            5.788245445663    -7.784985840379     0.475513245293     1.007825032230
         H           -3.753531119175    -8.959725220301     0.469159149689     1.007825032230
         H           -1.284308585620    -8.969529043562     0.464604033720     1.007825032230
         H            1.189217394970    -8.982814271654     0.465634383579     1.007825032230
         H            3.658542435098    -8.999514285118     0.470383150024     1.007825032230

  Running in c1 symmetry.

  Rotational constants: A =      0.00061  B =      0.00061  C =      0.00035 [cm^-1]
  Rotational constants: A =     18.30849  B =     18.29238  C =     10.47279 [MHz]
  Nuclear repulsion = 17854.336494655355636

  Charge       = 1
  Multiplicity = 1
  Electrons    = 652
  Nalpha       = 326
  Nbeta        = 326

  ==> Algorithm <==

  SCF Algorithm Type is DF.
  DIIS enabled.
  MOM disabled.
  Fractional occupation disabled.
  Guess Type is SAD.
  Energy threshold   = 1.00e-08
  Density threshold  = 1.00e-08
  Integral threshold = 1.00e-12

  ==> Primary Basis <==

  Basis Set: JUN-CC-PVDZ
    Blend: JUN-CC-PVDZ
    Number of shells: 923
    Number of basis functions: 2019
    Number of Cartesian functions: 2122
    Spherical Harmonics?: true
    Max angular momentum: 2

   => Loading Basis Set <=

    Name: (JUN-CC-PVDZ AUX)
    Role: JKFIT
    Keyword: DF_BASIS_SCF
    atoms 1-2, 4-5, 10, 17-34, 41-53, 56-70, 73-89, 92-104, 109-119, 122-130 entry C          line   146 file /opt/software/pc2/EB-SW/software/PSI4/1.9-foss-2022a/share/psi4/basis/jun-cc-pvdz-jkfit.gbs 
    atoms 3, 6                                                               entry N          line   202 file /opt/software/pc2/EB-SW/software/PSI4/1.9-foss-2022a/share/psi4/basis/jun-cc-pvdz-jkfit.gbs 
    atoms 7-9, 11-16, 35-40, 54-55, 71-72, 90-91, 105-108, 120-121, 131-136  entry H          line    70 file /opt/software/pc2/EB-SW/software/PSI4/1.9-foss-2022a/share/psi4/basis/jun-cc-pvdz-jkfit.gbs 

  ==> Integral Setup <==

  ==> DiskDFJK: Density-Fitted J/K Matrices <==

    J tasked:                  Yes
    K tasked:                  Yes
    wK tasked:                  No
    OpenMP threads:             16
    Integrals threads:          16
    Memory [MiB]:            45776
    Algorithm:                Disk
    Integral Cache:           SAVE
    Schwarz Cutoff:          1E-12
    Fitting Condition:       1E-10

   => Auxiliary Basis Set <=

  Basis Set: (JUN-CC-PVDZ AUX)
    Blend: JUN-CC-PVDZ-JKFIT
    Number of shells: 3078
    Number of basis functions: 8896
    Number of Cartesian functions: 10198
    Spherical Harmonics?: true
    Max angular momentum: 3

  Minimum eigenvalue in the overlap matrix is 8.8839209989E-11.
  Reciprocal condition number of the overlap matrix is 3.8758781669E-12.
    Using canonical orthogonalization.
  Overall, 38 of 2019 possible MOs eliminated.


  ==> Pre-Iterations <==

  SCF Guess: Superposition of Atomic Densities via on-the-fly atomic UHF (no occupation information).

   -------------------------
    Irrep   Nso     Nmo    
   -------------------------
     A       2019    1981 
   -------------------------
    Total    2019    1981
   -------------------------

  ==> Iterations <==

                           Total Energy        Delta E     RMS |[F,P]|

   @DF-RHF iter SAD: -3967.14124459620916   -3.96714e+03   0.00000e+00 
   @DF-RHF iter   1: -3952.10933456548491    1.50319e+01   7.15589e-04 ADIIS/DIIS
   @DF-RHF iter   2: -3953.49927465504106   -1.38994e+00   2.34636e-04 ADIIS/DIIS
   @DF-RHF iter   3: -3953.62212702171473   -1.22852e-01   1.03841e-04 ADIIS/DIIS
   @DF-RHF iter   4: -3953.64560961926691   -2.34826e-02   4.41321e-05 DIIS
   @DF-RHF iter   5: -3953.65057870372175   -4.96908e-03   1.08540e-05 DIIS
   @DF-RHF iter   6: -3953.65104897566016   -4.70272e-04   4.62530e-06 DIIS
   @DF-RHF iter   7: -3953.65123685271374   -1.87877e-04   2.21259e-06 DIIS
   @DF-RHF iter   8: -3953.65129970694898   -6.28542e-05   1.10181e-06 DIIS
   @DF-RHF iter   9: -3953.65131722488559   -1.75179e-05   3.54397e-07 DIIS
   @DF-RHF iter  10: -3953.65131840702088   -1.18214e-06   1.44523e-07 DIIS
   @DF-RHF iter  11: -3953.65131855553182   -1.48511e-07   5.88406e-08 DIIS
   @DF-RHF iter  12: -3953.65131858739824   -3.18664e-08   2.92488e-08 DIIS
   @DF-RHF iter  13: -3953.65131859396752   -6.56928e-09   9.49976e-09 DIIS
  Energy and wave function converged.


  ==> Post-Iterations <==

    Orbital Energies [Eh]
    ---------------------

    Doubly Occupied:                                                      

       1A    -15.814989     2A    -15.814481     3A    -11.509453  
       4A    -11.442127     5A    -11.440571     6A    -11.429581  
       7A    -11.429498     8A    -11.327352     9A    -11.326310  
      10A    -11.326223    11A    -11.325792    12A    -11.325307  
      13A    -11.325193    14A    -11.324726    15A    -11.324708  
      16A    -11.324475    17A    -11.324382    18A    -11.323819  
      19A    -11.323699    20A    -11.323536    21A    -11.323284  
      22A    -11.323152    23A    -11.322797    24A    -11.322752  
      25A    -11.322027    26A    -11.321873    27A    -11.321852  
      28A    -11.321844    29A    -11.321669    30A    -11.321372  
      31A    -11.321365    32A    -11.320877    33A    -11.320695  
      34A    -11.320396    35A    -11.320383    36A    -11.319859  
      37A    -11.319705    38A    -11.319702    39A    -11.319281  
      40A    -11.319271    41A    -11.319048    42A    -11.319026  
      43A    -11.318979    44A    -11.318950    45A    -11.318591  
      46A    -11.318533    47A    -11.318468    48A    -11.317895  
      49A    -11.317878    50A    -11.317869    51A    -11.317845  
      52A    -11.317765    53A    -11.317746    54A    -11.317693  
      55A    -11.317664    56A    -11.317504    57A    -11.317484  
      58A    -11.317119    59A    -11.316936    60A    -11.316916  
      61A    -11.316887    62A    -11.316545    63A    -11.316517  
      64A    -11.316351    65A    -11.316320    66A    -11.315448  
      67A    -11.315427    68A    -11.315423    69A    -11.315392  
      70A    -11.315264    71A    -11.315212    72A    -11.315192  
      73A    -11.314656    74A    -11.314634    75A    -11.314084  
      76A    -11.314067    77A    -11.313924    78A    -11.313499  
      79A    -11.313491    80A    -11.310541    81A    -11.310463  
      82A    -11.310388    83A    -11.310358    84A    -11.309283  
      85A    -11.309237    86A    -11.309102    87A    -11.309067  
      88A    -11.308484    89A    -11.308466    90A    -11.307625  
      91A    -11.307590    92A    -11.307395    93A    -11.307358  
      94A    -11.307043    95A    -11.307032    96A    -11.306702  
      97A    -11.306620    98A    -11.305844    99A    -11.305807  
     100A    -11.304991   101A    -11.304984   102A    -11.303498  
     103A    -11.303493   104A     -1.558891   105A     -1.414326  
     106A     -1.314618   107A     -1.297852   108A     -1.297546  
     109A     -1.278029   110A     -1.278020   111A     -1.274382  
     112A     -1.257617   113A     -1.252705   114A     -1.246785  
     115A     -1.246589   116A     -1.230061   117A     -1.230057  
     118A     -1.219749   119A     -1.213779   120A     -1.213744  
     121A     -1.211087   122A     -1.200703   123A     -1.200682  
     124A     -1.185770   125A     -1.172735   126A     -1.170720  
     127A     -1.170524   128A     -1.169605   129A     -1.169030  
     130A     -1.167283   131A     -1.145484   132A     -1.145435  
     133A     -1.132701   134A     -1.132689   135A     -1.125238  
     136A     -1.125169   137A     -1.122965   138A     -1.103462  
     139A     -1.103428   140A     -1.099130   141A     -1.097175  
     142A     -1.094444   143A     -1.094438   144A     -1.083417  
     145A     -1.080435   146A     -1.080344   147A     -1.064137  
     148A     -1.063313   149A     -1.060265   150A     -1.057928  
     151A     -1.057903   152A     -1.046401   153A     -1.028069  
     154A     -1.028024   155A     -1.011902   156A     -1.011876  
     157A     -1.003651   158A     -0.977336   159A     -0.964349  
     160A     -0.964236   161A     -0.963447   162A     -0.960761  
     163A     -0.960725   164A     -0.950923   165A     -0.950894  
     166A     -0.948507   167A     -0.948099   168A     -0.946542  
     169A     -0.927910   170A     -0.923518   171A     -0.907861  
     172A     -0.905706   173A     -0.905459   174A     -0.903232  
     175A     -0.900187   176A     -0.897473   177A     -0.890990  
     178A     -0.890950   179A     -0.883330   180A     -0.883316  
     181A     -0.842306   182A     -0.842187   183A     -0.840213  
     184A     -0.839466   185A     -0.839176   186A     -0.838600  
     187A     -0.838255   188A     -0.831105   189A     -0.823882  
     190A     -0.819000   191A     -0.807800   192A     -0.797562  
     193A     -0.792870   194A     -0.789023   195A     -0.783847  
     196A     -0.783674   197A     -0.781899   198A     -0.781287  
     199A     -0.781173   200A     -0.776129   201A     -0.771125  
     202A     -0.771110   203A     -0.771090   204A     -0.766645  
     205A     -0.763491   206A     -0.755470   207A     -0.755468  
     208A     -0.743650   209A     -0.741919   210A     -0.741897  
     211A     -0.738482   212A     -0.738474   213A     -0.735371  
     214A     -0.709461   215A     -0.709307   216A     -0.707598  
     217A     -0.707563   218A     -0.706716   219A     -0.706633  
     220A     -0.705668   221A     -0.705197   222A     -0.698228  
     223A     -0.698127   224A     -0.697633   225A     -0.696194  
     226A     -0.695111   227A     -0.692811   228A     -0.692791  
     229A     -0.685585   230A     -0.679212   231A     -0.670661  
     232A     -0.670642   233A     -0.665015   234A     -0.664973  
     235A     -0.658317   236A     -0.657898   237A     -0.656236  
     238A     -0.655950   239A     -0.655890   240A     -0.655173  
     241A     -0.651294   242A     -0.651121   243A     -0.651045  
     244A     -0.650892   245A     -0.647765   246A     -0.647712  
     247A     -0.645323   248A     -0.633300   249A     -0.633295  
     250A     -0.632395   251A     -0.632384   252A     -0.629543  
     253A     -0.629001   254A     -0.625667   255A     -0.625569  
     256A     -0.622676   257A     -0.622523   258A     -0.615442  
     259A     -0.615391   260A     -0.615365   261A     -0.613312  
     262A     -0.610763   263A     -0.607007   264A     -0.601718  
     265A     -0.601312   266A     -0.594034   267A     -0.593785  
     268A     -0.589611   269A     -0.589472   270A     -0.585419  
     271A     -0.583807   272A     -0.583777   273A     -0.577167  
     274A     -0.573702   275A     -0.573575   276A     -0.571431  
     277A     -0.571425   278A     -0.565077   279A     -0.564999  
     280A     -0.554273   281A     -0.552954   282A     -0.552906  
     283A     -0.552096   284A     -0.552064   285A     -0.548223  
     286A     -0.536872   287A     -0.533092   288A     -0.533068  
     289A     -0.529929   290A     -0.526758   291A     -0.523174  
     292A     -0.523057   293A     -0.516007   294A     -0.505624  
     295A     -0.504876   296A     -0.504725   297A     -0.499330  
     298A     -0.499253   299A     -0.499041   300A     -0.489963  
     301A     -0.489422   302A     -0.464484   303A     -0.464422  
     304A     -0.444408   305A     -0.444329   306A     -0.442155  
     307A     -0.440979   308A     -0.440906   309A     -0.411066  
     310A     -0.411016   311A     -0.407518   312A     -0.397942  
     313A     -0.395963   314A     -0.395863   315A     -0.387956  
     316A     -0.387880   317A     -0.365241   318A     -0.360143  
     319A     -0.360098   320A     -0.357070   321A     -0.342377  
     322A     -0.311404   323A     -0.311361   324A     -0.310777  
     325A     -0.260719   326A     -0.260630  

    Virtual:                                                              

     327A     -0.068019   328A     -0.067865   329A     -0.048961  
     330A     -0.045578   331A     -0.038218   332A     -0.028843  
     333A     -0.022837   334A     -0.022736   335A     -0.016433  
     336A     -0.014476   337A     -0.013964   338A     -0.011409  
     339A     -0.003506   340A     -0.001517   341A      0.000686  
     342A      0.001034   343A      0.002310   344A      0.003844  
     345A      0.007873   346A      0.008763   347A      0.009566  
     348A      0.010746   349A      0.011402   350A      0.012254  
     351A      0.012402   352A      0.012691   353A      0.016375  
     354A      0.017021   355A      0.017865   356A      0.018231  
     357A      0.018506   358A      0.022116   359A      0.022636  
     360A      0.023692   361A      0.025392   362A      0.028078  
     363A      0.029288   364A      0.029350   365A      0.029981  
     366A      0.033131   367A      0.038141   368A      0.038881  
     369A      0.039028   370A      0.039384   371A      0.041188  
     372A      0.041664   373A      0.043951   374A      0.046871  
     375A      0.048954   376A      0.049369   377A      0.051014  
     378A      0.051795   379A      0.052291   380A      0.054131  
     381A      0.056221   382A      0.056652   383A      0.057603  
     384A      0.058777   385A      0.059773   386A      0.059866  
     387A      0.060373   388A      0.060695   389A      0.060828  
     390A      0.064253   391A      0.065428   392A      0.067079  
     393A      0.069670   394A      0.070702   395A      0.071511  
     396A      0.071912   397A      0.075290   398A      0.076075  
     399A      0.080630   400A      0.081159   401A      0.082229  
     402A      0.082883   403A      0.084708   404A      0.085557  
     405A      0.085809   406A      0.087813   407A      0.089459  
     408A      0.090315   409A      0.091199   410A      0.091535  
     411A      0.092746   412A      0.095373   413A      0.096244  
     414A      0.097926   415A      0.098619   416A      0.101492  
     417A      0.102010   418A      0.103412   419A      0.105950  
     420A      0.109673   421A      0.109903   422A      0.110219  
     423A      0.110833   424A      0.111706   425A      0.112785  
     426A      0.113692   427A      0.114958   428A      0.115509  
     429A      0.115719   430A      0.118403   431A      0.119218  
     432A      0.119577   433A      0.121786   434A      0.122700  
     435A      0.123741   436A      0.125976   437A      0.126510  
     438A      0.127601   439A      0.131009   440A      0.131265  
     441A      0.133090   442A      0.133619   443A      0.136567  
     444A      0.136656   445A      0.139870   446A      0.140022  
     447A      0.140097   448A      0.142830   449A      0.143461  
     450A      0.147520   451A      0.147880   452A      0.149989  
     453A      0.150181   454A      0.150352   455A      0.150689  
     456A      0.151310   457A      0.152771   458A      0.153547  
     459A      0.154134   460A      0.155482   461A      0.155502  
     462A      0.156914   463A      0.157188   464A      0.157639  
     465A      0.158908   466A      0.159630   467A      0.160734  
     468A      0.161018   469A      0.161982   470A      0.162657  
     471A      0.164981   472A      0.165535   473A      0.166967  
     474A      0.167136   475A      0.168539   476A      0.168967  
     477A      0.169665   478A      0.170386   479A      0.170845  
     480A      0.171741   481A      0.173584   482A      0.173894  
     483A      0.174617   484A      0.175072   485A      0.175755  
     486A      0.178364   487A      0.178687   488A      0.179352  
     489A      0.180260   490A      0.180980   491A      0.181587  
     492A      0.184882   493A      0.185971   494A      0.186436  
     495A      0.187891   496A      0.188765   497A      0.189789  
     498A      0.190042   499A      0.191155   500A      0.191467  
     501A      0.194237   502A      0.195559   503A      0.196291  
     504A      0.196672   505A      0.197029   506A      0.199560  
     507A      0.200202   508A      0.203012   509A      0.203377  
     510A      0.204257   511A      0.206323   512A      0.207755  
     513A      0.208159   514A      0.208504   515A      0.211488  
     516A      0.212718   517A      0.212888   518A      0.213904  
     519A      0.215672   520A      0.216045   521A      0.216292  
     522A      0.216922   523A      0.217134   524A      0.217897  
     525A      0.221449   526A      0.223532   527A      0.224512  
     528A      0.224911   529A      0.225206   530A      0.226430  
     531A      0.226874   532A      0.227423   533A      0.228261  
     534A      0.229323   535A      0.230613   536A      0.231681  
     537A      0.233934   538A      0.234504   539A      0.234741  
     540A      0.235335   541A      0.238953   542A      0.239653  
     543A      0.240152   544A      0.240385   545A      0.240612  
     546A      0.242741   547A      0.243742   548A      0.244725  
     549A      0.245250   550A      0.246634   551A      0.247991  
     552A      0.249130   553A      0.251278   554A      0.252107  
     555A      0.252797   556A      0.253112   557A      0.253855  
     558A      0.254314   559A      0.255162   560A      0.255628  
     561A      0.257563   562A      0.258915   563A      0.260290  
     564A      0.261136   565A      0.261787   566A      0.263927  
     567A      0.264208   568A      0.265771   569A      0.266673  
     570A      0.267316   571A      0.267654   572A      0.267862  
     573A      0.268262   574A      0.268756   575A      0.269299  
     576A      0.270599   577A      0.271609   578A      0.273885  
     579A      0.273978   580A      0.276844   581A      0.278469  
     582A      0.278854   583A      0.279162   584A      0.279337  
     585A      0.279654   586A      0.280815   587A      0.281544  
     588A      0.282414   589A      0.283121   590A      0.284113  
     591A      0.286079   592A      0.287408   593A      0.288603  
     594A      0.289033   595A      0.290051   596A      0.291331  
     597A      0.291940   598A      0.293479   599A      0.294020  
     600A      0.294317   601A      0.294609   602A      0.295605  
     603A      0.296682   604A      0.297348   605A      0.298347  
     606A      0.299472   607A      0.300419   608A      0.302178  
     609A      0.302832   610A      0.303807   611A      0.305054  
     612A      0.306857   613A      0.308386   614A      0.308908  
     615A      0.310431   616A      0.311875   617A      0.313585  
     618A      0.314303   619A      0.314382   620A      0.316094  
     621A      0.316330   622A      0.317297   623A      0.319623  
     624A      0.320658   625A      0.323555   626A      0.324297  
     627A      0.325392   628A      0.325576   629A      0.326687  
     630A      0.327312   631A      0.328119   632A      0.328445  
     633A      0.329255   634A      0.329481   635A      0.330726  
     636A      0.332317   637A      0.332684   638A      0.336885  
     639A      0.338027   640A      0.339245   641A      0.339858  
     642A      0.340245   643A      0.340429   644A      0.341060  
     645A      0.342180   646A      0.342327   647A      0.343363  
     648A      0.343413   649A      0.344312   650A      0.344615  
     651A      0.345245   652A      0.346405   653A      0.347439  
     654A      0.348587   655A      0.349553   656A      0.349967  
     657A      0.350392   658A      0.351035   659A      0.351515  
     660A      0.352759   661A      0.353150   662A      0.354519  
     663A      0.354931   664A      0.355450   665A      0.356417  
     666A      0.357258   667A      0.358199   668A      0.359806  
     669A      0.360634   670A      0.361109   671A      0.362077  
     672A      0.362140   673A      0.362942   674A      0.365371  
     675A      0.365738   676A      0.366379   677A      0.367216  
     678A      0.367962   679A      0.370403   680A      0.372354  
     681A      0.374398   682A      0.374969   683A      0.375324  
     684A      0.375777   685A      0.376093   686A      0.376811  
     687A      0.377019   688A      0.377953   689A      0.379034  
     690A      0.381020   691A      0.381847   692A      0.382773  
     693A      0.383237   694A      0.384364   695A      0.385307  
     696A      0.386932   697A      0.388597   698A      0.389788  
     699A      0.392797   700A      0.393058   701A      0.395852  
     702A      0.396462   703A      0.397985   704A      0.398843  
     705A      0.399190   706A      0.399986   707A      0.400301  
     708A      0.400728   709A      0.401255   710A      0.401714  
     711A      0.402993   712A      0.404252   713A      0.406572  
     714A      0.407257   715A      0.408231   716A      0.409259  
     717A      0.410147   718A      0.411059   719A      0.411728  
     720A      0.412181   721A      0.414237   722A      0.414547  
     723A      0.415509   724A      0.415956   725A      0.417622  
     726A      0.417765   727A      0.419300   728A      0.419834  
     729A      0.420342   730A      0.421184   731A      0.422018  
     732A      0.422566   733A      0.423111   734A      0.424643  
     735A      0.425724   736A      0.428279   737A      0.429160  
     738A      0.430381   739A      0.431619   740A      0.432661  
     741A      0.433813   742A      0.434486   743A      0.435843  
     744A      0.438574   745A      0.439347   746A      0.439638  
     747A      0.440120   748A      0.442769   749A      0.443111  
     750A      0.445562   751A      0.446751   752A      0.448076  
     753A      0.448887   754A      0.450171   755A      0.450520  
     756A      0.450946   757A      0.452428   758A      0.453199  
     759A      0.455566   760A      0.457724   761A      0.457986  
     762A      0.460988   763A      0.461350   764A      0.462012  
     765A      0.462700   766A      0.464203   767A      0.464810  
     768A      0.465176   769A      0.467371   770A      0.468839  
     771A      0.470662   772A      0.471904   773A      0.475193  
     774A      0.476073   775A      0.477508   776A      0.477598  
     777A      0.478577   778A      0.483504   779A      0.484162  
     780A      0.484689   781A      0.485599   782A      0.485990  
     783A      0.490374   784A      0.490719   785A      0.493232  
     786A      0.494391   787A      0.501275   788A      0.502620  
     789A      0.503881   790A      0.506853   791A      0.507833  
     792A      0.509471   793A      0.510101   794A      0.511817  
     795A      0.512897   796A      0.514678   797A      0.515357  
     798A      0.516825   799A      0.517077   800A      0.518119  
     801A      0.520589   802A      0.521190   803A      0.522641  
     804A      0.523352   805A      0.524478   806A      0.524921  
     807A      0.526546   808A      0.528361   809A      0.530471  
     810A      0.530936   811A      0.534340   812A      0.534475  
     813A      0.535652   814A      0.536508   815A      0.536614  
     816A      0.537173   817A      0.540980   818A      0.542270  
     819A      0.543665   820A      0.546969   821A      0.547442  
     822A      0.549084   823A      0.550208   824A      0.550761  
     825A      0.557606   826A      0.560650   827A      0.562935  
     828A      0.564035   829A      0.565132   830A      0.565704  
     831A      0.571148   832A      0.573867   833A      0.574917  
     834A      0.575712   835A      0.578232   836A      0.583294  
     837A      0.585180   838A      0.589649   839A      0.591415  
     840A      0.596506   841A      0.599674   842A      0.600612  
     843A      0.601916   844A      0.603891   845A      0.604544  
     846A      0.604586   847A      0.610004   848A      0.610087  
     849A      0.610458   850A      0.615502   851A      0.621542  
     852A      0.624144   853A      0.629610   854A      0.629784  
     855A      0.630407   856A      0.630628   857A      0.634169  
     858A      0.635549   859A      0.635767   860A      0.638007  
     861A      0.639960   862A      0.643262   863A      0.644425  
     864A      0.644723   865A      0.646043   866A      0.650258  
     867A      0.650808   868A      0.655312   869A      0.659721  
     870A      0.663928   871A      0.665966   872A      0.671718  
     873A      0.675125   874A      0.676549   875A      0.678854  
     876A      0.684681   877A      0.685155   878A      0.686157  
     879A      0.687748   880A      0.688769   881A      0.689249  
     882A      0.691923   883A      0.693573   884A      0.695225  
     885A      0.697318   886A      0.698349   887A      0.709579  
     888A      0.715500   889A      0.719206   890A      0.724102  
     891A      0.727397   892A      0.729701   893A      0.730239  
     894A      0.731569   895A      0.733394   896A      0.734311  
     897A      0.738049   898A      0.738570   899A      0.739693  
     900A      0.741741   901A      0.747316   902A      0.747738  
     903A      0.748952   904A      0.750987   905A      0.754237  
     906A      0.754881   907A      0.756420   908A      0.757943  
     909A      0.759550   910A      0.761174   911A      0.762996  
     912A      0.764093   913A      0.765219   914A      0.767649  
     915A      0.768685   916A      0.771905   917A      0.773041  
     918A      0.773613   919A      0.776901   920A      0.779733  
     921A      0.780487   922A      0.781443   923A      0.783596  
     924A      0.785953   925A      0.787143   926A      0.788261  
     927A      0.791418   928A      0.792229   929A      0.793777  
     930A      0.795574   931A      0.799811   932A      0.800112  
     933A      0.801435   934A      0.804586   935A      0.805658  
     936A      0.807269   937A      0.809150   938A      0.810067  
     939A      0.812822   940A      0.814367   941A      0.816376  
     942A      0.816998   943A      0.817553   944A      0.818524  
     945A      0.819128   946A      0.820467   947A      0.821051  
     948A      0.822688   949A      0.823936   950A      0.825293  
     951A      0.828823   952A      0.830328   953A      0.831586  
     954A      0.832639   955A      0.833270   956A      0.834634  
     957A      0.835244   958A      0.837476   959A      0.838381  
     960A      0.839692   961A      0.843967   962A      0.845589  
     963A      0.846577   964A      0.850483   965A      0.852670  
     966A      0.853112   967A      0.855567   968A      0.857733  
     969A      0.861858   970A      0.862572   971A      0.864032  
     972A      0.865215   973A      0.865521   974A      0.867061  
     975A      0.867414   976A      0.867888   977A      0.869194  
     978A      0.869906   979A      0.873748   980A      0.874006  
     981A      0.876721   982A      0.877522   983A      0.878862  
     984A      0.879075   985A      0.880080   986A      0.883012  
     987A      0.886530   988A      0.889966   989A      0.890453  
     990A      0.891436   991A      0.892349   992A      0.893163  
     993A      0.894591   994A      0.896103   995A      0.897402  
     996A      0.897980   997A      0.898423   998A      0.898723  
     999A      0.900776  1000A      0.901850  1001A      0.902577  
    1002A      0.903017  1003A      0.903569  1004A      0.909068  
    1005A      0.911292  1006A      0.912269  1007A      0.912954  
    1008A      0.915036  1009A      0.916650  1010A      0.918961  
    1011A      0.920905  1012A      0.926203  1013A      0.927957  
    1014A      0.929036  1015A      0.931905  1016A      0.934593  
    1017A      0.935943  1018A      0.938956  1019A      0.939468  
    1020A      0.940227  1021A      0.942574  1022A      0.946898  
    1023A      0.947796  1024A      0.948213  1025A      0.949747  
    1026A      0.950625  1027A      0.951498  1028A      0.952092  
    1029A      0.955438  1030A      0.958709  1031A      0.960997  
    1032A      0.961225  1033A      0.964358  1034A      0.965103  
    1035A      0.966254  1036A      0.967215  1037A      0.968272  
    1038A      0.971339  1039A      0.973973  1040A      0.975886  
    1041A      0.978402  1042A      0.981018  1043A      0.982101  
    1044A      0.984355  1045A      0.984939  1046A      0.988104  
    1047A      0.989385  1048A      0.990693  1049A      0.991095  
    1050A      0.991278  1051A      0.992756  1052A      0.993659  
    1053A      0.993978  1054A      0.995008  1055A      0.996670  
    1056A      0.997949  1057A      0.998472  1058A      0.998718  
    1059A      0.999109  1060A      1.002809  1061A      1.004142  
    1062A      1.006689  1063A      1.006721  1064A      1.008714  
    1065A      1.009342  1066A      1.010335  1067A      1.011101  
    1068A      1.012135  1069A      1.012905  1070A      1.013855  
    1071A      1.013993  1072A      1.015946  1073A      1.016472  
    1074A      1.016848  1075A      1.017734  1076A      1.018343  
    1077A      1.018704  1078A      1.018824  1079A      1.019495  
    1080A      1.021293  1081A      1.021733  1082A      1.022068  
    1083A      1.022909  1084A      1.023302  1085A      1.024295  
    1086A      1.026143  1087A      1.026459  1088A      1.027826  
    1089A      1.028334  1090A      1.028606  1091A      1.029618  
    1092A      1.030828  1093A      1.032249  1094A      1.033022  
    1095A      1.033646  1096A      1.033909  1097A      1.034427  
    1098A      1.035576  1099A      1.035821  1100A      1.037883  
    1101A      1.040062  1102A      1.041303  1103A      1.042412  
    1104A      1.042580  1105A      1.042795  1106A      1.044729  
    1107A      1.045927  1108A      1.046965  1109A      1.047867  
    1110A      1.049622  1111A      1.052071  1112A      1.053154  
    1113A      1.055477  1114A      1.057075  1115A      1.058152  
    1116A      1.062549  1117A      1.063909  1118A      1.064471  
    1119A      1.065491  1120A      1.066836  1121A      1.071773  
    1122A      1.075026  1123A      1.075894  1124A      1.076867  
    1125A      1.077889  1126A      1.078172  1127A      1.078700  
    1128A      1.081541  1129A      1.081967  1130A      1.084334  
    1131A      1.086299  1132A      1.087579  1133A      1.089036  
    1134A      1.090347  1135A      1.091533  1136A      1.092783  
    1137A      1.093523  1138A      1.094816  1139A      1.095296  
    1140A      1.100699  1141A      1.101399  1142A      1.102292  
    1143A      1.104233  1144A      1.105370  1145A      1.106754  
    1146A      1.111250  1147A      1.111659  1148A      1.113829  
    1149A      1.115594  1150A      1.119422  1151A      1.120334  
    1152A      1.121764  1153A      1.126520  1154A      1.127432  
    1155A      1.129572  1156A      1.130595  1157A      1.132138  
    1158A      1.133519  1159A      1.136178  1160A      1.137953  
    1161A      1.140095  1162A      1.145260  1163A      1.146205  
    1164A      1.146601  1165A      1.148397  1166A      1.150029  
    1167A      1.150175  1168A      1.155442  1169A      1.156096  
    1170A      1.158457  1171A      1.159975  1172A      1.162226  
    1173A      1.163001  1174A      1.164780  1175A      1.167999  
    1176A      1.168885  1177A      1.170880  1178A      1.172599  
    1179A      1.173124  1180A      1.173959  1181A      1.176935  
    1182A      1.178232  1183A      1.183510  1184A      1.190700  
    1185A      1.190857  1186A      1.193657  1187A      1.196657  
    1188A      1.197388  1189A      1.200943  1190A      1.206514  
    1191A      1.206774  1192A      1.208169  1193A      1.208615  
    1194A      1.214561  1195A      1.215141  1196A      1.217590  
    1197A      1.218646  1198A      1.222235  1199A      1.228870  
    1200A      1.231404  1201A      1.232749  1202A      1.235046  
    1203A      1.236223  1204A      1.237398  1205A      1.238769  
    1206A      1.240621  1207A      1.242569  1208A      1.243572  
    1209A      1.247841  1210A      1.248812  1211A      1.251267  
    1212A      1.251475  1213A      1.252479  1214A      1.258399  
    1215A      1.258507  1216A      1.259763  1217A      1.260561  
    1218A      1.264322  1219A      1.264543  1220A      1.265877  
    1221A      1.266398  1222A      1.268538  1223A      1.272213  
    1224A      1.272415  1225A      1.275418  1226A      1.276996  
    1227A      1.277032  1228A      1.281374  1229A      1.281757  
    1230A      1.284025  1231A      1.284335  1232A      1.287413  
    1233A      1.289955  1234A      1.291881  1235A      1.297962  
    1236A      1.299461  1237A      1.299582  1238A      1.302637  
    1239A      1.302975  1240A      1.306658  1241A      1.308810  
    1242A      1.309074  1243A      1.311622  1244A      1.313717  
    1245A      1.316089  1246A      1.318273  1247A      1.318892  
    1248A      1.322378  1249A      1.327203  1250A      1.330165  
    1251A      1.334555  1252A      1.336111  1253A      1.337502  
    1254A      1.340381  1255A      1.340860  1256A      1.341285  
    1257A      1.346046  1258A      1.349804  1259A      1.350987  
    1260A      1.351884  1261A      1.352412  1262A      1.354536  
    1263A      1.354932  1264A      1.357373  1265A      1.359266  
    1266A      1.359563  1267A      1.365011  1268A      1.366819  
    1269A      1.367112  1270A      1.367503  1271A      1.368917  
    1272A      1.371121  1273A      1.371946  1274A      1.372432  
    1275A      1.375016  1276A      1.377922  1277A      1.379796  
    1278A      1.380883  1279A      1.381657  1280A      1.382813  
    1281A      1.384641  1282A      1.388015  1283A      1.389178  
    1284A      1.390704  1285A      1.391185  1286A      1.393726  
    1287A      1.395229  1288A      1.396544  1289A      1.397574  
    1290A      1.401964  1291A      1.402503  1292A      1.406828  
    1293A      1.409104  1294A      1.411239  1295A      1.414651  
    1296A      1.415971  1297A      1.417364  1298A      1.417755  
    1299A      1.420341  1300A      1.427323  1301A      1.428850  
    1302A      1.429727  1303A      1.431286  1304A      1.434603  
    1305A      1.438813  1306A      1.439669  1307A      1.445089  
    1308A      1.447175  1309A      1.449586  1310A      1.450367  
    1311A      1.458201  1312A      1.461010  1313A      1.462951  
    1314A      1.481026  1315A      1.484697  1316A      1.484873  
    1317A      1.488506  1318A      1.496055  1319A      1.496259  
    1320A      1.499544  1321A      1.504424  1322A      1.526029  
    1323A      1.528808  1324A      1.536279  1325A      1.538670  
    1326A      1.541315  1327A      1.544976  1328A      1.546256  
    1329A      1.546597  1330A      1.548856  1331A      1.549154  
    1332A      1.550629  1333A      1.553544  1334A      1.554307  
    1335A      1.555054  1336A      1.556765  1337A      1.557155  
    1338A      1.557377  1339A      1.558217  1340A      1.559355  
    1341A      1.560023  1342A      1.563432  1343A      1.565118  
    1344A      1.566264  1345A      1.566831  1346A      1.569857  
    1347A      1.570666  1348A      1.571601  1349A      1.573317  
    1350A      1.573812  1351A      1.578380  1352A      1.579166  
    1353A      1.580001  1354A      1.581198  1355A      1.581307  
    1356A      1.581945  1357A      1.582573  1358A      1.583626  
    1359A      1.584448  1360A      1.587023  1361A      1.588636  
    1362A      1.590530  1363A      1.591851  1364A      1.594145  
    1365A      1.595927  1366A      1.596532  1367A      1.600278  
    1368A      1.600475  1369A      1.601506  1370A      1.607702  
    1371A      1.608295  1372A      1.610724  1373A      1.611017  
    1374A      1.611485  1375A      1.612484  1376A      1.612531  
    1377A      1.613827  1378A      1.620162  1379A      1.620917  
    1380A      1.621244  1381A      1.622155  1382A      1.631433  
    1383A      1.632202  1384A      1.633644  1385A      1.636727  
    1386A      1.638931  1387A      1.639143  1388A      1.640260  
    1389A      1.641237  1390A      1.643667  1391A      1.645263  
    1392A      1.653099  1393A      1.653335  1394A      1.653514  
    1395A      1.657631  1396A      1.659719  1397A      1.660101  
    1398A      1.662914  1399A      1.664199  1400A      1.665102  
    1401A      1.665447  1402A      1.668309  1403A      1.669346  
    1404A      1.681552  1405A      1.681975  1406A      1.689441  
    1407A      1.690957  1408A      1.691326  1409A      1.692706  
    1410A      1.694058  1411A      1.695140  1412A      1.696124  
    1413A      1.707077  1414A      1.708691  1415A      1.711772  
    1416A      1.713771  1417A      1.723465  1418A      1.730141  
    1419A      1.732175  1420A      1.733126  1421A      1.735177  
    1422A      1.744508  1423A      1.744837  1424A      1.752997  
    1425A      1.759623  1426A      1.763119  1427A      1.766363  
    1428A      1.767575  1429A      1.770472  1430A      1.771030  
    1431A      1.771924  1432A      1.773300  1433A      1.774690  
    1434A      1.776644  1435A      1.776935  1436A      1.777324  
    1437A      1.779789  1438A      1.780503  1439A      1.781024  
    1440A      1.781345  1441A      1.784476  1442A      1.786496  
    1443A      1.787677  1444A      1.788840  1445A      1.801287  
    1446A      1.801438  1447A      1.803859  1448A      1.804228  
    1449A      1.806131  1450A      1.806284  1451A      1.809691  
    1452A      1.810379  1453A      1.814944  1454A      1.815117  
    1455A      1.817553  1456A      1.818209  1457A      1.819889  
    1458A      1.821433  1459A      1.825478  1460A      1.826347  
    1461A      1.826747  1462A      1.827575  1463A      1.828041  
    1464A      1.828966  1465A      1.829363  1466A      1.830736  
    1467A      1.832360  1468A      1.832711  1469A      1.835369  
    1470A      1.841374  1471A      1.847068  1472A      1.847444  
    1473A      1.850339  1474A      1.850949  1475A      1.851069  
    1476A      1.855675  1477A      1.858489  1478A      1.858717  
    1479A      1.861046  1480A      1.864346  1481A      1.864766  
    1482A      1.865382  1483A      1.867683  1484A      1.868326  
    1485A      1.869373  1486A      1.873969  1487A      1.875533  
    1488A      1.880571  1489A      1.881200  1490A      1.883071  
    1491A      1.883766  1492A      1.884284  1493A      1.884975  
    1494A      1.885486  1495A      1.885897  1496A      1.888902  
    1497A      1.890085  1498A      1.892067  1499A      1.895422  
    1500A      1.896645  1501A      1.899206  1502A      1.901847  
    1503A      1.902690  1504A      1.904664  1505A      1.905271  
    1506A      1.905603  1507A      1.909713  1508A      1.912037  
    1509A      1.913223  1510A      1.914129  1511A      1.915836  
    1512A      1.916707  1513A      1.917399  1514A      1.922028  
    1515A      1.925897  1516A      1.928689  1517A      1.929361  
    1518A      1.930941  1519A      1.934462  1520A      1.936393  
    1521A      1.936714  1522A      1.937887  1523A      1.938101  
    1524A      1.940449  1525A      1.951684  1526A      1.952638  
    1527A      1.954705  1528A      1.955318  1529A      1.956594  
    1530A      1.960033  1531A      1.960535  1532A      1.961600  
    1533A      1.962074  1534A      1.963096  1535A      1.963646  
    1536A      1.964556  1537A      1.965902  1538A      1.968693  
    1539A      1.971836  1540A      1.974092  1541A      1.976590  
    1542A      1.978230  1543A      1.979508  1544A      1.983260  
    1545A      1.984745  1546A      1.986893  1547A      1.987704  
    1548A      1.991105  1549A      1.994227  1550A      1.996765  
    1551A      1.998327  1552A      2.000104  1553A      2.000828  
    1554A      2.002478  1555A      2.002946  1556A      2.003850  
    1557A      2.004692  1558A      2.006238  1559A      2.010578  
    1560A      2.012816  1561A      2.013077  1562A      2.014525  
    1563A      2.019844  1564A      2.022194  1565A      2.024119  
    1566A      2.024386  1567A      2.024758  1568A      2.025487  
    1569A      2.026816  1570A      2.027222  1571A      2.027828  
    1572A      2.030486  1573A      2.031582  1574A      2.032698  
    1575A      2.033701  1576A      2.035002  1577A      2.035202  
    1578A      2.036527  1579A      2.037540  1580A      2.038477  
    1581A      2.039786  1582A      2.040961  1583A      2.041720  
    1584A      2.043315  1585A      2.044882  1586A      2.045948  
    1587A      2.046611  1588A      2.047687  1589A      2.051627  
    1590A      2.054735  1591A      2.056487  1592A      2.056804  
    1593A      2.057345  1594A      2.057899  1595A      2.058402  
    1596A      2.061008  1597A      2.062170  1598A      2.063542  
    1599A      2.070025  1600A      2.070764  1601A      2.071336  
    1602A      2.071674  1603A      2.071874  1604A      2.072113  
    1605A      2.073016  1606A      2.073635  1607A      2.075107  
    1608A      2.079417  1609A      2.080391  1610A      2.081563  
    1611A      2.082029  1612A      2.085399  1613A      2.087697  
    1614A      2.088510  1615A      2.089172  1616A      2.090078  
    1617A      2.095585  1618A      2.098299  1619A      2.099055  
    1620A      2.100138  1621A      2.102128  1622A      2.102524  
    1623A      2.103302  1624A      2.103481  1625A      2.104601  
    1626A      2.108222  1627A      2.108795  1628A      2.115068  
    1629A      2.115456  1630A      2.122700  1631A      2.124245  
    1632A      2.126583  1633A      2.126825  1634A      2.131939  
    1635A      2.132188  1636A      2.133033  1637A      2.133394  
    1638A      2.135125  1639A      2.136447  1640A      2.138708  
    1641A      2.139942  1642A      2.140950  1643A      2.142735  
    1644A      2.144030  1645A      2.144701  1646A      2.145332  
    1647A      2.149600  1648A      2.150409  1649A      2.152698  
    1650A      2.154504  1651A      2.157205  1652A      2.158170  
    1653A      2.163027  1654A      2.163892  1655A      2.166572  
    1656A      2.167189  1657A      2.167840  1658A      2.168231  
    1659A      2.169942  1660A      2.172602  1661A      2.176564  
    1662A      2.177959  1663A      2.179017  1664A      2.179638  
    1665A      2.181415  1666A      2.181632  1667A      2.182354  
    1668A      2.185887  1669A      2.187081  1670A      2.191124  
    1671A      2.193328  1672A      2.193984  1673A      2.195454  
    1674A      2.207645  1675A      2.207902  1676A      2.210576  
    1677A      2.210791  1678A      2.211831  1679A      2.216343  
    1680A      2.219579  1681A      2.220513  1682A      2.227121  
    1683A      2.228360  1684A      2.234967  1685A      2.237000  
    1686A      2.238986  1687A      2.241571  1688A      2.247610  
    1689A      2.248389  1690A      2.249362  1691A      2.253014  
    1692A      2.258652  1693A      2.266822  1694A      2.268580  
    1695A      2.268930  1696A      2.271223  1697A      2.272909  
    1698A      2.274647  1699A      2.275096  1700A      2.275652  
    1701A      2.276757  1702A      2.278639  1703A      2.279852  
    1704A      2.282107  1705A      2.285098  1706A      2.285731  
    1707A      2.286001  1708A      2.287851  1709A      2.288326  
    1710A      2.289210  1711A      2.291566  1712A      2.291897  
    1713A      2.309512  1714A      2.313720  1715A      2.314335  
    1716A      2.320523  1717A      2.328448  1718A      2.331531  
    1719A      2.333798  1720A      2.334519  1721A      2.336256  
    1722A      2.339406  1723A      2.356417  1724A      2.362178  
    1725A      2.363401  1726A      2.366113  1727A      2.367817  
    1728A      2.371538  1729A      2.374703  1730A      2.385599  
    1731A      2.387622  1732A      2.395157  1733A      2.395984  
    1734A      2.408461  1735A      2.408558  1736A      2.411891  
    1737A      2.412024  1738A      2.416172  1739A      2.416459  
    1740A      2.436074  1741A      2.436598  1742A      2.437436  
    1743A      2.446720  1744A      2.451933  1745A      2.452446  
    1746A      2.456176  1747A      2.461642  1748A      2.471381  
    1749A      2.482318  1750A      2.482466  1751A      2.484239  
    1752A      2.485868  1753A      2.486655  1754A      2.488263  
    1755A      2.491139  1756A      2.492800  1757A      2.493132  
    1758A      2.494407  1759A      2.496005  1760A      2.498378  
    1761A      2.498581  1762A      2.507670  1763A      2.515137  
    1764A      2.517263  1765A      2.519547  1766A      2.525911  
    1767A      2.529402  1768A      2.529767  1769A      2.530493  
    1770A      2.530737  1771A      2.534947  1772A      2.535426  
    1773A      2.537222  1774A      2.540556  1775A      2.545925  
    1776A      2.546131  1777A      2.557039  1778A      2.557592  
    1779A      2.557822  1780A      2.558200  1781A      2.561870  
    1782A      2.562375  1783A      2.576552  1784A      2.584041  
    1785A      2.585250  1786A      2.587209  1787A      2.588777  
    1788A      2.591532  1789A      2.591883  1790A      2.593402  
    1791A      2.596909  1792A      2.600676  1793A      2.601399  
    1794A      2.602348  1795A      2.607694  1796A      2.608972  
    1797A      2.612601  1798A      2.615373  1799A      2.615766  
    1800A      2.617057  1801A      2.622022  1802A      2.623277  
    1803A      2.628372  1804A      2.629019  1805A      2.630743  
    1806A      2.632885  1807A      2.634608  1808A      2.634874  
    1809A      2.635213  1810A      2.636681  1811A      2.639499  
    1812A      2.640991  1813A      2.647728  1814A      2.665634  
    1815A      2.668341  1816A      2.674154  1817A      2.674841  
    1818A      2.675350  1819A      2.677653  1820A      2.677960  
    1821A      2.688573  1822A      2.696315  1823A      2.701643  
    1824A      2.702304  1825A      2.710829  1826A      2.713738  
    1827A      2.717142  1828A      2.722512  1829A      2.723216  
    1830A      2.725687  1831A      2.726777  1832A      2.734761  
    1833A      2.741372  1834A      2.742110  1835A      2.743924  
    1836A      2.744504  1837A      2.744665  1838A      2.752617  
    1839A      2.754142  1840A      2.756405  1841A      2.756846  
    1842A      2.758733  1843A      2.760262  1844A      2.761406  
    1845A      2.770468  1846A      2.770891  1847A      2.773445  
    1848A      2.783187  1849A      2.784223  1850A      2.785735  
    1851A      2.786478  1852A      2.789819  1853A      2.804406  
    1854A      2.808170  1855A      2.808241  1856A      2.814489  
    1857A      2.816107  1858A      2.818299  1859A      2.830828  
    1860A      2.836468  1861A      2.837398  1862A      2.855662  
    1863A      2.863191  1864A      2.863445  1865A      2.873305  
    1866A      2.875544  1867A      2.880049  1868A      2.880226  
    1869A      2.907647  1870A      2.910194  1871A      2.910746  
    1872A      2.921161  1873A      2.935871  1874A      2.937571  
    1875A      2.937642  1876A      2.972479  1877A      2.973263  
    1878A      2.980721  1879A      2.984207  1880A      2.990280  
    1881A      2.991447  1882A      2.993856  1883A      2.998708  
    1884A      3.000510  1885A      3.000724  1886A      3.010776  
    1887A      3.016588  1888A      3.053910  1889A      3.058364  
    1890A      3.058708  1891A      3.066259  1892A      3.068999  
    1893A      3.071669  1894A      3.072358  1895A      3.076734  
    1896A      3.078363  1897A      3.085266  1898A      3.087205  
    1899A      3.088350  1900A      3.093078  1901A      3.093550  
    1902A      3.094980  1903A      3.095929  1904A      3.099246  
    1905A      3.108069  1906A      3.109524  1907A      3.118548  
    1908A      3.120751  1909A      3.121080  1910A      3.138629  
    1911A      3.139799  1912A      3.165990  1913A      3.197188  
    1914A      3.204388  1915A      3.205272  1916A      3.205388  
    1917A      3.206219  1918A      3.208624  1919A      3.212801  
    1920A      3.215879  1921A      3.219608  1922A      3.220150  
    1923A      3.237870  1924A      3.240363  1925A      3.241976  
    1926A      3.248059  1927A      3.303885  1928A      3.304751  
    1929A      3.312666  1930A      3.357720  1931A      3.371166  
    1932A      3.374076  1933A      3.376232  1934A      3.388164  
    1935A      3.391563  1936A      3.402824  1937A      3.406441  
    1938A      3.407607  1939A      3.413543  1940A      3.416742  
    1941A      3.424582  1942A      3.429765  1943A      3.436849  
    1944A      3.450953  1945A      3.460657  1946A      3.481659  
    1947A      3.517181  1948A      3.518337  1949A      3.525990  
    1950A      3.533847  1951A      3.548884  1952A      3.582633  
    1953A      3.586258  1954A      3.607786  1955A      3.611220  
    1956A      3.647612  1957A      3.689161  1958A      3.693467  
    1959A      3.693850  1960A      3.705083  1961A      3.721178  
    1962A      3.723085  1963A      3.786007  1964A      3.786872  
    1965A      3.815674  1966A      3.818232  1967A      3.849017  
    1968A      3.855827  1969A      3.879136  1970A      3.883127  
    1971A      3.891545  1972A      3.892784  1973A      3.900880  
    1974A      3.905532  1975A      3.912922  1976A      3.966279  
    1977A      3.968663  1978A      4.012769  1979A      4.170287  
    1980A      4.242071  1981A      4.333865  

    Final Occupation by Irrep:
              A 
    DOCC [   326 ]
    NA   [   326 ]
    NB   [   326 ]

  @DF-RHF Final Energy: -3953.65131859396752

   => Energetics <=

    Nuclear Repulsion Energy =          17854.3364946553556365
    One-Electron Energy =              -40918.1378062987278099
    Two-Electron Energy =               19110.1499930494028376
    Total Energy =                      -3953.6513185939693358

Computation Completed


Properties will be evaluated at   0.000000,   0.000000,   0.000000 [a0]

Properties computed using the SCF density matrix


 Multipole Moments:

 ------------------------------------------------------------------------------------
     Multipole            Electronic (a.u.)      Nuclear  (a.u.)        Total (a.u.)
 ------------------------------------------------------------------------------------

 L = 1.  Multiply by 2.5417464519 to convert [e a0] to [Debye]
 Dipole X            :         -0.0027948            0.0004804           -0.0023144
 Dipole Y            :         -6.9869655            8.7122315            1.7252660
 Dipole Z            :         26.6548852          -35.7676534           -9.1127682
 Magnitude           :                                                    9.2746478

 ------------------------------------------------------------------------------------

*** tstop() called on n2cn1169.ab2021.local at Sat Jan 27 01:49:07 2024
Module time:
	user time   =   27446.80 seconds =     457.45 minutes
	system time =    2066.94 seconds =      34.45 minutes
	total time  =       5709 seconds =      95.15 minutes
Total time:
	user time   =   27446.80 seconds =     457.45 minutes
	system time =    2066.94 seconds =      34.45 minutes
	total time  =       5709 seconds =      95.15 minutes

  //>>>>>>>>>>>>>>>>>>>>>>>>>>>>>>>>>>>//
  //            Monomer A HF           //
  //<<<<<<<<<<<<<<<<<<<<<<<<<<<<<<<<<<<//

   => Libint2 <=

    Primary   basis highest AM E, G, H:  5, 4, 3
    Auxiliary basis highest AM E, G, H:  6, 5, 4
    Onebody   basis highest AM E, G, H:  6, 5, 4
    Solid Harmonics ordering:            gaussian

*** tstart() called on n2cn1169.ab2021.local
*** at Sat Jan 27 01:49:07 2024

   => Loading Basis Set <=

    Name: JUN-CC-PVDZ
    Role: ORBITAL
    Keyword: BASIS
    atoms 1-2, 4-5, 10, 17-34, 41-53, 56-70, 73-89, 92-104, 109-119, 122-130 entry C          line   164 file /opt/software/pc2/EB-SW/software/PSI4/1.9-foss-2022a/share/psi4/basis/jun-cc-pvdz.gbs 
    atoms 3, 6                                                               entry N          line   198 file /opt/software/pc2/EB-SW/software/PSI4/1.9-foss-2022a/share/psi4/basis/jun-cc-pvdz.gbs 
    atoms 7-9, 11-16, 35-40, 54-55, 71-72, 90-91, 105-108, 120-121, 131-136  entry H          line    36 file /opt/software/pc2/EB-SW/software/PSI4/1.9-foss-2022a/share/psi4/basis/jun-cc-pvdz.gbs 


         ---------------------------------------------------------
                                   SCF
               by Justin Turney, Rob Parrish, Andy Simmonett
                          and Daniel G. A. Smith
                              RHF Reference
                       16 Threads,  61035 MiB Core
         ---------------------------------------------------------

  ==> Geometry <==

    Molecular point group: c1
    Full point group: C1

    Geometry (in Angstrom), charge = 1, multiplicity = 1:

       Center              X                  Y                   Z               Mass       
    ------------   -----------------  -----------------  -----------------  -----------------
         C            0.680062820275     1.308604348936    -6.943232669164    12.000000000000
         C           -0.680508179725     1.310632348936    -6.942848669164    12.000000000000
         N           -1.085639179725     1.311630348936    -5.624524669164    14.003074004430
[...]
    1585A      2.182145  1586A      2.182981  1587A      2.189262  
    1588A      2.189833  1589A      2.191006  1590A      2.191950  
    1591A      2.192438  1592A      2.195331  1593A      2.197995  
    1594A      2.198253  1595A      2.199140  1596A      2.200707  
    1597A      2.201126  1598A      2.201346  1599A      2.202048  
    1600A      2.205423  1601A      2.206452  1602A      2.207097  
    1603A      2.209858  1604A      2.213864  1605A      2.214193  
    1606A      2.216283  1607A      2.220236  1608A      2.222578  
    1609A      2.222834  1610A      2.224729  1611A      2.224875  
    1612A      2.225600  1613A      2.226280  1614A      2.228953  
    1615A      2.231718  1616A      2.232541  1617A      2.232756  
    1618A      2.237035  1619A      2.238996  1620A      2.239271  
    1621A      2.240173  1622A      2.241896  1623A      2.247978  
    1624A      2.248679  1625A      2.249888  1626A      2.253258  
    1627A      2.261531  1628A      2.262202  1629A      2.264695  
    1630A      2.265499  1631A      2.267188  1632A      2.270082  
    1633A      2.275771  1634A      2.278666  1635A      2.282996  
    1636A      2.284416  1637A      2.290737  1638A      2.291170  
    1639A      2.292222  1640A      2.296456  1641A      2.296904  
    1642A      2.302717  1643A      2.304306  1644A      2.304594  
    1645A      2.309126  1646A      2.317554  1647A      2.318759  
    1648A      2.325004  1649A      2.325123  1650A      2.325489  
    1651A      2.327460  1652A      2.329790  1653A      2.330691  
    1654A      2.331424  1655A      2.333201  1656A      2.334736  
    1657A      2.335128  1658A      2.340386  1659A      2.341391  
    1660A      2.341925  1661A      2.342409  1662A      2.342678  
    1663A      2.345188  1664A      2.345890  1665A      2.346408  
    1666A      2.349158  1667A      2.349517  1668A      2.364423  
    1669A      2.366936  1670A      2.372346  1671A      2.373458  
    1672A      2.379851  1673A      2.385075  1674A      2.388267  
    1675A      2.391179  1676A      2.392236  1677A      2.394945  
    1678A      2.397422  1679A      2.411523  1680A      2.418542  
    1681A      2.419836  1682A      2.424013  1683A      2.427975  
    1684A      2.432462  1685A      2.442071  1686A      2.443712  
    1687A      2.452742  1688A      2.453148  1689A      2.462912  
    1690A      2.464369  1691A      2.465851  1692A      2.467670  
    1693A      2.468033  1694A      2.469432  1695A      2.472004  
    1696A      2.472234  1697A      2.474027  1698A      2.485443  
    1699A      2.488451  1700A      2.491965  1701A      2.492236  
    1702A      2.495490  1703A      2.502127  1704A      2.507288  
    1705A      2.507540  1706A      2.511725  1707A      2.516634  
    1708A      2.537096  1709A      2.539393  1710A      2.539528  
    1711A      2.540380  1712A      2.542550  1713A      2.543212  
    1714A      2.545696  1715A      2.548252  1716A      2.548621  
    1717A      2.549420  1718A      2.551574  1719A      2.556696  
    1720A      2.556807  1721A      2.564344  1722A      2.571269  
    1723A      2.571798  1724A      2.580087  1725A      2.583821  
    1726A      2.584424  1727A      2.585226  1728A      2.586274  
    1729A      2.588219  1730A      2.588999  1731A      2.592995  
    1732A      2.593259  1733A      2.593806  1734A      2.601586  
    1735A      2.601673  1736A      2.613024  1737A      2.613378  
    1738A      2.613786  1739A      2.614047  1740A      2.617847  
    1741A      2.618396  1742A      2.633045  1743A      2.640781  
    1744A      2.641927  1745A      2.643778  1746A      2.645134  
    1747A      2.646095  1748A      2.647923  1749A      2.648833  
    1750A      2.649347  1751A      2.652710  1752A      2.656163  
    1753A      2.656291  1754A      2.663322  1755A      2.665334  
    1756A      2.666280  1757A      2.666563  1758A      2.667768  
    1759A      2.670178  1760A      2.670805  1761A      2.673891  
    1762A      2.675184  1763A      2.677301  1764A      2.678981  
    1765A      2.684922  1766A      2.685776  1767A      2.687625  
    1768A      2.689101  1769A      2.691397  1770A      2.691688  
    1771A      2.691909  1772A      2.692790  1773A      2.696243  
    1774A      2.697413  1775A      2.704683  1776A      2.721054  
    1777A      2.730803  1778A      2.731216  1779A      2.731338  
    1780A      2.731706  1781A      2.732019  1782A      2.750047  
    1783A      2.753169  1784A      2.758367  1785A      2.760720  
    1786A      2.761392  1787A      2.772776  1788A      2.774104  
    1789A      2.776561  1790A      2.780329  1791A      2.781029  
    1792A      2.799365  1793A      2.799978  1794A      2.802238  
    1795A      2.802269  1796A      2.802299  1797A      2.810249  
    1798A      2.813177  1799A      2.815574  1800A      2.816183  
    1801A      2.816535  1802A      2.817141  1803A      2.827727  
    1804A      2.828653  1805A      2.832767  1806A      2.840251  
    1807A      2.841768  1808A      2.842328  1809A      2.845431  
    1810A      2.846312  1811A      2.854138  1812A      2.863749  
    1813A      2.865786  1814A      2.866075  1815A      2.870643  
    1816A      2.872533  1817A      2.875788  1818A      2.895538  
    1819A      2.896038  1820A      2.896914  1821A      2.906029  
    1822A      2.914504  1823A      2.917888  1824A      2.918122  
    1825A      2.927591  1826A      2.929649  1827A      2.932548  
    1828A      2.933328  1829A      2.935566  1830A      2.936266  
    1831A      2.963364  1832A      2.963616  1833A      2.965823  
    1834A      2.967380  1835A      2.976453  1836A      2.986085  
    1837A      2.993285  1838A      2.994268  1839A      3.021804  
    1840A      3.029814  1841A      3.030518  1842A      3.033948  
    1843A      3.037231  1844A      3.039852  1845A      3.047231  
    1846A      3.047913  1847A      3.048428  1848A      3.057577  
    1849A      3.057933  1850A      3.063332  1851A      3.065794  
    1852A      3.072990  1853A      3.108908  1854A      3.113166  
    1855A      3.113554  1856A      3.123086  1857A      3.128054  
    1858A      3.128893  1859A      3.133112  1860A      3.135065  
    1861A      3.142404  1862A      3.143370  1863A      3.148985  
    1864A      3.149629  1865A      3.149882  1866A      3.150748  
    1867A      3.153452  1868A      3.153844  1869A      3.162314  
    1870A      3.167962  1871A      3.173293  1872A      3.175483  
    1873A      3.175700  1874A      3.193439  1875A      3.194499  
    1876A      3.220277  1877A      3.253034  1878A      3.259822  
    1879A      3.261691  1880A      3.262035  1881A      3.262596  
    1882A      3.264793  1883A      3.268641  1884A      3.271348  
    1885A      3.275029  1886A      3.275786  1887A      3.290345  
    1888A      3.294546  1889A      3.297044  1890A      3.299129  
    1891A      3.304468  1892A      3.321083  1893A      3.340836  
    1894A      3.361869  1895A      3.362604  1896A      3.370614  
    1897A      3.415889  1898A      3.428407  1899A      3.430422  
    1900A      3.433611  1901A      3.437421  1902A      3.448032  
    1903A      3.451524  1904A      3.462573  1905A      3.464858  
    1906A      3.466196  1907A      3.471917  1908A      3.475223  
    1909A      3.483248  1910A      3.489002  1911A      3.495601  
    1912A      3.509293  1913A      3.530063  1914A      3.540771  
    1915A      3.575136  1916A      3.576363  1917A      3.582792  
    1918A      3.584701  1919A      3.590250  1920A      3.640855  
    1921A      3.644604  1922A      3.648406  1923A      3.665714  
    1924A      3.667928  1925A      3.705265  1926A      3.748146  
    1927A      3.749954  1928A      3.750797  1929A      3.760105  
    1930A      3.764315  1931A      3.778810  1932A      3.780758  
    1933A      3.819882  1934A      3.842260  1935A      3.843658  
    1936A      3.870966  1937A      3.872035  1938A      3.874832  
    1939A      3.905986  1940A      3.913536  1941A      3.938532  
    1942A      3.942392  1943A      3.948361  1944A      3.949341  
    1945A      3.958858  1946A      3.965100  1947A      3.971744  
    1948A      3.975728  1949A      4.024780  1950A      4.027540  
    1951A      4.072541  1952A      4.212489  1953A      4.216611  
    1954A      4.231906  1955A      4.303940  1956A      4.367847  
    1957A      4.371151  1958A      4.395340  1959A      4.495435  
    1960A      4.752977  1961A      4.797647  1962A      4.836693  
    1963A      4.853067  1964A      4.943380  1965A      5.059564  
    1966A      5.064193  1967A      5.073191  1968A      5.117098  
    1969A      5.158392  1970A      5.398059  1971A      5.426853  
    1972A      5.739943  1973A      5.766183  1974A      6.071141  
    1975A     18.201087  1976A     18.462221  1977A     18.479595  
    1978A     18.565754  1979A     18.836528  1980A     25.343531  
    1981A     25.379411  

    Final Occupation by Irrep:
              A 
    DOCC [   300 ]
    NA   [   300 ]
    NB   [   300 ]

  @DF-RHF Final Energy: -3650.33874980840301

   => Energetics <=

    Nuclear Repulsion Energy =          15611.4211649754306563
    One-Electron Energy =              -36072.1157608567300485
    Two-Electron Energy =               16810.3558460729000217
    Total Energy =                      -3650.3387498084011895

Computation Completed


Properties will be evaluated at   0.000000,   0.000000,   0.000000 [a0]

Properties computed using the SCF density matrix


 Multipole Moments:

 ------------------------------------------------------------------------------------
     Multipole            Electronic (a.u.)      Nuclear  (a.u.)        Total (a.u.)
 ------------------------------------------------------------------------------------

 L = 1.  Multiply by 2.5417464519 to convert [e a0] to [Debye]
 Dipole X            :         -0.0008158            0.0002112           -0.0006047
 Dipole Y            :        123.2151097         -123.2131634            0.0019463
 Dipole Z            :       -535.9533837          535.9633554            0.0099717
 Magnitude           :                                                    0.0101778

 ------------------------------------------------------------------------------------

*** tstop() called on n2cn1169.ab2021.local at Sat Jan 27 03:24:30 2024
Module time:
	user time   =   21038.69 seconds =     350.64 minutes
	system time =    1637.53 seconds =      27.29 minutes
	total time  =       3680 seconds =      61.33 minutes
Total time:
	user time   =   54183.07 seconds =     903.05 minutes
	system time =    4328.77 seconds =      72.15 minutes
	total time  =      11432 seconds =     190.53 minutes
  Constructing Basis Sets for SAPT...

   => Loading Basis Set <=

    Name: (JUN-CC-PVDZ AUX)
    Role: RIFIT
    Keyword: DF_BASIS_SAPT
    atoms 1-2, 4-5, 10, 17-34, 41-53, 56-70, 73-89, 92-104, 109-119, 122-130 entry C          line   100 file /opt/software/pc2/EB-SW/software/PSI4/1.9-foss-2022a/share/psi4/basis/jun-cc-pvdz-ri.gbs 
    atoms 3, 6                                                               entry N          line   144 file /opt/software/pc2/EB-SW/software/PSI4/1.9-foss-2022a/share/psi4/basis/jun-cc-pvdz-ri.gbs 
    atoms 7-9, 11-16, 35-40, 54-55, 71-72, 90-91, 105-108, 120-121, 131-136  entry H          line    30 file /opt/software/pc2/EB-SW/software/PSI4/1.9-foss-2022a/share/psi4/basis/jun-cc-pvdz-ri.gbs 

   => Loading Basis Set <=

    Name: (JUN-CC-PVDZ AUX)
    Role: JKFIT
    Keyword: DF_BASIS_ELST
    atoms 1-2, 4-5, 10, 17-34, 41-53, 56-70, 73-89, 92-104, 109-119, 122-130 entry C          line   146 file /opt/software/pc2/EB-SW/software/PSI4/1.9-foss-2022a/share/psi4/basis/jun-cc-pvdz-jkfit.gbs 
    atoms 3, 6                                                               entry N          line   202 file /opt/software/pc2/EB-SW/software/PSI4/1.9-foss-2022a/share/psi4/basis/jun-cc-pvdz-jkfit.gbs 
    atoms 7-9, 11-16, 35-40, 54-55, 71-72, 90-91, 105-108, 120-121, 131-136  entry H          line    70 file /opt/software/pc2/EB-SW/software/PSI4/1.9-foss-2022a/share/psi4/basis/jun-cc-pvdz-jkfit.gbs 


  //>>>>>>>>>>>>>>>>>>>>>>>>>>>>>>>>>>>//
  //               SSAPT0              //
  //<<<<<<<<<<<<<<<<<<<<<<<<<<<<<<<<<<<//


*** tstart() called on n2cn1169.ab2021.local
*** at Sat Jan 27 03:24:32 2024

        SAPT0  
    Ed Hohenstein
     6 June 2009

      Orbital Information
  --------------------------
    NSO        =      2019
    NMO        =      1981
    NRI        =      7157
    NRI (Elst) =      8896
    NOCC A     =        26
    NOCC B     =       300
    FOCC A     =         7
    FOCC B     =        96
    NVIR A     =      1955
    NVIR B     =      1681

    Elst10,r            =    -0.009695380619 [Eh]
    Exch10              =     0.000019917157 [Eh]
    Exch10 (S^2)        =     0.000019916949 [Eh]

    Iter     Energy [mEh]          dE [mEh]         Residual      Time [s]
       1      -0.01959397       0.019593966       1.302561652           304
       2      -0.01855109      -0.001042874       0.331506856           594
       3      -0.02028510       0.001734005       0.089515598           868
       4      -0.02038219       0.000097095       0.039232892          1165
       5      -0.02030547      -0.000076721       0.012906071          1442
       6      -0.02030555       0.000000078       0.004283145          1705
       7      -0.02031207       0.000006520       0.001351236          2078
       8      -0.02031287       0.000000798       0.000405593          2449
       9      -0.02031254      -0.000000329       0.000137427          2773
      10      -0.02031242      -0.000000121       0.000037381          3113
      11      -0.02031243       0.000000012       0.000010343          3457
      12      -0.02031244       0.000000009       0.000003081          3925
      13      -0.02031244       0.000000001       0.000001040          4192
      14      -0.02031244      -0.000000001       0.000000242          4482

    CHF Iterations converged


    Iter     Energy [mEh]          dE [mEh]         Residual      Time [s]
       1      -8.10976350       8.109763501      49.011893235           410
       2      -5.22493480      -2.884828704       5.931773485           852
       3      -5.19729872      -0.027636077       2.004486424          1184
       4      -5.29530843       0.098009709       0.673699300          1484
       5      -5.30927507       0.013966646       0.262887030          1824
       6      -5.30693116      -0.002343915       0.177609597          2188
       7      -5.30380753      -0.003123626       0.067734221          2561
       8      -5.30400057       0.000193032       0.027732016          2880
       9      -5.30446342       0.000462854       0.009587720          3193
      10      -5.30445171      -0.000011710       0.005606737          3567
      11      -5.30440277      -0.000048937       0.002478548          3839
      12      -5.30439251      -0.000010260       0.001260738          4105
      13      -5.30440075       0.000008233       0.000623403          4358
      14      -5.30440497       0.000004224       0.000316970          4653
      15      -5.30440445      -0.000000518       0.000184115          4902
      16      -5.30440228      -0.000002174       0.000085841          5211
      17      -5.30440277       0.000000490       0.000042324          5546
      18      -5.30440314       0.000000375       0.000015530          5859
      19      -5.30440315       0.000000011       0.000007313          6167
      20      -5.30440308      -0.000000076       0.000004448          6507
      21      -5.30440307      -0.000000010       0.000003394          6876
      22      -5.30440310       0.000000028       0.000002329          7173
      23      -5.30440310       0.000000003       0.000001041          7498
      24      -5.30440309      -0.000000006       0.000000523          7848

    CHF Iterations converged

    Ind20,r (A<-B)      =    -0.000020312437 [Eh]
    Ind20,r (B<-A)      =    -0.005304403092 [Eh]
    Ind20,r             =    -0.005324715529 [Eh]
    Exch-Ind20,r (A<-B) =     0.000000491227 [Eh]
    Exch-Ind20,r (B<-A) =     0.000005508082 [Eh]
    Exch-Ind20,r        =     0.000005999309 [Eh]
    Disp20              =    -0.003390502641 [Eh]
    Disp20 (SS)         =    -0.001695251321 [Eh]
    Disp20 (OS)         =    -0.001695251321 [Eh]
    Exch-Disp20         =     0.000003610411 [Eh]
    Exch-Disp20 (SS)    =     0.000002513047 [Eh]
    Exch-Disp20 (OS)    =     0.000001097364 [Eh]

    SAPT Results 
  --------------------------------------------------------------------------------------------------------
    Electrostatics                 -9.69538062 [mEh]      -6.08394319 [kcal/mol]     -25.45521831 [kJ/mol]
      Elst10,r                     -9.69538062 [mEh]      -6.08394319 [kcal/mol]     -25.45521831 [kJ/mol]

    Exchange                        0.01991716 [mEh]       0.01249820 [kcal/mol]       0.05229249 [kJ/mol]
      Exch10                        0.01991716 [mEh]       0.01249820 [kcal/mol]       0.05229249 [kJ/mol]
      Exch10(S^2)                   0.01991695 [mEh]       0.01249807 [kcal/mol]       0.05229194 [kJ/mol]

    Induction                      -5.48426579 [mEh]      -3.44142874 [kcal/mol]     -14.39893784 [kJ/mol]
      Ind20,r                      -5.32471553 [mEh]      -3.34130944 [kcal/mol]     -13.98003870 [kJ/mol]
      Exch-Ind20,r                  0.00599931 [mEh]       0.00376462 [kcal/mol]       0.01575118 [kJ/mol]
      delta HF,r (2)               -0.16554957 [mEh]      -0.10388392 [kcal/mol]      -0.43465033 [kJ/mol]

    Dispersion                     -3.38689223 [mEh]      -2.12530696 [kcal/mol]      -8.89228433 [kJ/mol]
      Disp20                       -3.39050264 [mEh]      -2.12757253 [kcal/mol]      -8.90176346 [kJ/mol]
      Exch-Disp20                   0.00361041 [mEh]       0.00226557 [kcal/mol]       0.00947913 [kJ/mol]
      Disp20 (SS)                  -1.69525132 [mEh]      -1.06378626 [kcal/mol]      -4.45088173 [kJ/mol]
      Disp20 (OS)                  -1.69525132 [mEh]      -1.06378626 [kcal/mol]      -4.45088173 [kJ/mol]
      Exch-Disp20 (SS)              0.00251305 [mEh]       0.00157696 [kcal/mol]       0.00659800 [kJ/mol]
      Exch-Disp20 (OS)              0.00109736 [mEh]       0.00068861 [kcal/mol]       0.00288113 [kJ/mol]

  Total HF                        -15.15972925 [mEh]      -9.51287372 [kcal/mol]     -39.80186366 [kJ/mol]
  Total SAPT0                     -18.54662148 [mEh]     -11.63818068 [kcal/mol]     -48.69414798 [kJ/mol]

  Special recipe for scaled SAPT0 (see Manual):
    Electrostatics sSAPT0          -9.69538062 [mEh]      -6.08394319 [kcal/mol]     -25.45521831 [kJ/mol]
    Exchange sSAPT0                 0.01991716 [mEh]       0.01249820 [kcal/mol]       0.05229249 [kJ/mol]
    Induction sSAPT0               -5.48426560 [mEh]      -3.44142862 [kcal/mol]     -14.39893734 [kJ/mol]
    Dispersion sSAPT0              -3.38689212 [mEh]      -2.12530689 [kcal/mol]      -8.89228403 [kJ/mol]
  Total sSAPT0                    -18.54662118 [mEh]     -11.63818050 [kcal/mol]     -48.69414719 [kJ/mol]
  --------------------------------------------------------------------------------------------------------

*** tstop() called on n2cn1169.ab2021.local at Sat Jan 27 13:35:42 2024
Module time:
	user time   =   81792.46 seconds =    1363.21 minutes
	system time =    4512.49 seconds =      75.21 minutes
	total time  =      36670 seconds =     611.17 minutes
Total time:
	user time   =  135976.97 seconds =    2266.28 minutes
	system time =    8841.26 seconds =     147.35 minutes
	total time  =      48104 seconds =     801.73 minutes

    Psi4 stopped on: Saturday, 27 January 2024 01:35PM
    Psi4 wall time for execution: 13:21:45.89

*** Psi4 exiting successfully. Buy a developer a beer!
