
    -----------------------------------------------------------------------
          Psi4: An Open-Source Ab Initio Electronic Structure Package
                               Psi4 1.9 release

                         Git: Rev {} zzzzzzz 


    D. G. A. Smith, L. A. Burns, A. C. Simmonett, R. M. Parrish,
    M. C. Schieber, R. Galvelis, P. Kraus, H. Kruse, R. Di Remigio,
    A. Alenaizan, A. M. James, S. Lehtola, J. P. Misiewicz, M. Scheurer,
    R. A. Shaw, J. B. Schriber, Y. Xie, Z. L. Glick, D. A. Sirianni,
    J. S. O'Brien, J. M. Waldrop, A. Kumar, E. G. Hohenstein,
    B. P. Pritchard, B. R. Brooks, H. F. Schaefer III, A. Yu. Sokolov,
    K. Patkowski, A. E. DePrince III, U. Bozkaya, R. A. King,
    F. A. Evangelista, J. M. Turney, T. D. Crawford, C. D. Sherrill,
    J. Chem. Phys. 152(18) 184108 (2020). https://doi.org/10.1063/5.0006002

                            Additional Code Authors
    E. T. Seidl, C. L. Janssen, E. F. Valeev, M. L. Leininger,
    J. F. Gonthier, R. M. Richard, H. R. McAlexander, M. Saitow, X. Wang,
    P. Verma, M. H. Lechner, A. Jiang, S. Behnle, A. G. Heide,
    M. F. Herbst, and D. L. Poole

             Previous Authors, Complete List of Code Contributors,
                       and Citations for Specific Modules
    https://github.com/psi4/psi4/blob/master/codemeta.json
    https://github.com/psi4/psi4/graphs/contributors
    http://psicode.org/psi4manual/master/introduction.html#citing-psifour

    -----------------------------------------------------------------------


    Psi4 started on: Monday, 22 January 2024 10:17PM

    Process ID: 369636
    Host:       d-16-5-1
    PSIDATADIR: /home/gridsan/tfroembgen/.conda/envs/psi4test/share/psi4
    Memory:     500.0 MiB
    Threads:    12
    
  ==> Input File <==

--------------------------------------------------------------------------
memory 32 GB # how much memory is available ! Depends on the nodes/cores !

molecule dimer {
# monomer A
+1 1    # Charge and multiplicity
C  0.680067 1.417258 -8.615929
C -0.680504 1.419286 -8.615545
N -1.085635 1.420284 -7.297221
C  0.000108 1.423560 -6.515820
C -2.477365 1.469690 -6.829242
N  1.085222 1.420284 -7.297221
H  1.385146 1.409430 -9.433368
H -1.385302 1.419096 -9.433214
H -0.000009 1.425307 -5.434731
C  2.478117 1.403392 -6.832123
H  2.490592 1.430737 -5.741870
H  2.967028 0.489946 -7.179299
H  3.001428 2.278875 -7.223595
H -2.857359 2.491761 -6.909201
H -3.082679 0.799606 -7.442306
H -2.518128 1.142706 -5.789294
--
# monomer B
0 1     # Charge and multiplicity
C   1.22531237526482      0.70753866091955      0.00613762728373
C   1.22532433589282     -0.70753852257020     -0.00619318228664
C   -0.00000567409046      1.41496628609039     -0.00672680580738
C   2.45644923379077      1.41832825917820      0.00902448468363
C   0.00001130712078     -1.41497612663474      0.00347275151708
C   -1.22530046906674      0.70754574598412      0.00838914760619
C   2.45643823516184     -1.41832293188077     -0.00843833914343
C   -0.00000085313587      2.83680140328112     -0.00913035594137
C   3.68182717731192      0.70931832800114     -0.00808954934571
C   2.45512052870677      2.83422403348893     -0.00819210630633
C   3.68182158506039     -0.70933346742900      0.00798293467272
C   -1.22531311884624     -0.70752714354401     -0.00512042085974
C   1.22670006104402      3.54346985599427      0.00816696660346
C   0.00000526469929     -2.83678176723568      0.00832091913869
C   -2.45643555300670      1.41831729028492      0.00842454345199
C   2.45512389762097     -2.83422965658853      0.00783102630520
C   -1.22671388474763      3.54346943575023      0.00827029982280
C   4.91451777504333      1.42717324448953     -0.00160886631602
C   3.69315067131765      3.54279566454522     -0.00155906667985
C   -2.45643712022637     -1.41831290883911     -0.00846337726810
C   1.22670532178455     -3.54347386990643     -0.00780316414624
C   -2.45512491866593      2.83421703463423     -0.00818572995999
C   4.91452486062398     -1.42718653794377      0.00136387641845
C   1.22142509354026      4.97013443726031      0.00150231067809
C   4.89300870916237      2.82518837202648     -0.00039219795739
C   -1.22669652864725     -3.54347062507680     -0.00753595973677
C   -3.68181849668397      0.70932533873199     -0.00807686886569
C   3.69314758099218     -3.54280096939050      0.00148176697923
C   -1.22143177215231      4.97012866986289      0.00168580605083
C   6.13477145276790      0.68054831910577     -0.00083909176631
C   3.65678936045204      4.97295361556775     -0.00065042889723
C   -2.45512642789169     -2.83421472106065      0.00758666850712
C   -3.68181869921921     -0.70932533146830      0.00810055625144
C   4.89301309775526     -2.82519973363176      0.00021895393805
C   -0.00000059327114      5.65044773803267      0.00045449734393
C   6.13477559217374     -0.68055448207492      0.00042622874941
C   2.47813196269732      5.65357712333155      0.00063835075260
C   1.22142288457925     -4.97012668293268     -0.00129718634452
C   -3.69316190412301      3.54279732619245     -0.00139355922051
C   -1.22142804110313     -4.97011793159564     -0.00140994817719
C   -4.91452132810043      1.42717581899491     -0.00153192130862
C   3.65678749952045     -4.97295485423912      0.00080007163680
C   -2.47813805026426      5.65357479452875      0.00092287576113
C   -3.69314125872231     -3.54278984697859      0.00136564082345
C   -4.91451200321153     -1.42718062802730      0.00139857359209
C   -0.00000552908399     -5.65043791501335      0.00005899322272
C   -4.89302000425900      2.82518897091939     -0.00040227981744
C   2.47812647313991     -5.65357317188818     -0.00029052915548
C   -3.65679823041642      4.97295655404175     -0.00047374852278
C   -4.89299899901461     -2.82519139505969      0.00006491824035
C   -2.47812801824129     -5.65356579800621     -0.00056571680280
C   -6.13477002348955      0.68054913825639     -0.00086464346868
C   -3.65678835334731     -4.97294365097028      0.00058578382008
C   -6.13476456307132     -0.68055354348201      0.00040575295444
H   5.83528897565761      3.36927626695423      0.00396712770529
H   7.07385965258860      1.22821762089947     -0.00037744837300
H   4.60066374401555      5.51238117445323     -0.00014522814529
H   5.83528386714679     -3.36930568472863     -0.00423551337640
H   -0.00001167146422      6.73853104613662     -0.00389474766392
H   7.07386165167227     -1.22822657074368     -0.00008250934481
H   2.47331421164041      6.74068466339473      0.00017162982210
H   4.60066897122302     -5.51237575717576      0.00039007446835
H   -2.47331820069565      6.74068209160650      0.00047297644710
H   -0.00000978838621     -6.73852780445195      0.00458867820736
H   -5.83530143450167      3.36927132229595      0.00410314985360
H   2.47330840367253     -6.74068500242887      0.00027980126949
H   -4.60067436136587      5.51237839860371      0.00002010017831
H   -5.83527902699321     -3.36928859177951     -0.00451481925734
H   -2.47329986759855     -6.74067870613986     -0.00016951527498
H   -7.07385728692578      1.22822084484047     -0.00046143985387
H   -4.60067330624313     -5.51236229778631      0.00021776644566
H   -7.07385645456741     -1.22822025997701     -0.00017736581114

    units angstrom      # Angstroms are the default
    no_reorient         # Geometry fixed, default
    symmetry c1         # C1 symmetry, default
}

set {
    scf_type DF         # Density fitting, faster than exact integrals
    freeze_core True    # Freeze core electrons
    basis jun-cc-pVDZ   # Jun-cc-pVDZ basis set, recommended for sSAPT0 in https://doi.org/10.1063/1.4867135
}

energy('ssapt0')        # Compute sSAPT0 energy, includes also SAPT0
--------------------------------------------------------------------------

  Memory set to  29.802 GiB by Python driver.

Scratch directory: /state/partition1/slurm_tmp/24798310.4294967291.0/
   => Loading Basis Set <=

    Name: JUN-CC-PVDZ
    Role: ORBITAL
    Keyword: BASIS
    atoms 1-2, 4-5, 10, 17-70 entry C          line   164 file /home/gridsan/tfroembgen/.conda/envs/psi4test/share/psi4/basis/jun-cc-pvdz.gbs 
    atoms 3, 6                entry N          line   198 file /home/gridsan/tfroembgen/.conda/envs/psi4test/share/psi4/basis/jun-cc-pvdz.gbs 
    atoms 7-9, 11-16, 71-88   entry H          line    36 file /home/gridsan/tfroembgen/.conda/envs/psi4test/share/psi4/basis/jun-cc-pvdz.gbs 

   => Loading Basis Set <=

    Name: JUN-CC-PVDZ
    Role: ORBITAL
    Keyword: BASIS
    atoms 1-2, 4-5, 10, 17-70 entry C          line   164 file /home/gridsan/tfroembgen/.conda/envs/psi4test/share/psi4/basis/jun-cc-pvdz.gbs 
    atoms 3, 6                entry N          line   198 file /home/gridsan/tfroembgen/.conda/envs/psi4test/share/psi4/basis/jun-cc-pvdz.gbs 
    atoms 7-9, 11-16, 71-88   entry H          line    36 file /home/gridsan/tfroembgen/.conda/envs/psi4test/share/psi4/basis/jun-cc-pvdz.gbs 


  //>>>>>>>>>>>>>>>>>>>>>>>>>>>>>>>>>>>//
  //              Dimer HF             //
  //<<<<<<<<<<<<<<<<<<<<<<<<<<<<<<<<<<<//

   => Libint2 <=

    Primary   basis highest AM E, G, H:  7, 7, 4
    Auxiliary basis highest AM E, G, H:  7, 7, 5
    Onebody   basis highest AM E, G, H:  7, 7, 5
    Solid Harmonics ordering:            gaussian

*** tstart() called on d-16-5-1
*** at Mon Jan 22 22:17:26 2024

   => Loading Basis Set <=

    Name: JUN-CC-PVDZ
    Role: ORBITAL
    Keyword: BASIS
    atoms 1-2, 4-5, 10, 17-70 entry C          line   164 file /home/gridsan/tfroembgen/.conda/envs/psi4test/share/psi4/basis/jun-cc-pvdz.gbs 
    atoms 3, 6                entry N          line   198 file /home/gridsan/tfroembgen/.conda/envs/psi4test/share/psi4/basis/jun-cc-pvdz.gbs 
    atoms 7-9, 11-16, 71-88   entry H          line    36 file /home/gridsan/tfroembgen/.conda/envs/psi4test/share/psi4/basis/jun-cc-pvdz.gbs 


         ---------------------------------------------------------
                                   SCF
               by Justin Turney, Rob Parrish, Andy Simmonett
                          and Daniel G. A. Smith
                              RHF Reference
                       12 Threads,  30517 MiB Core
         ---------------------------------------------------------

  ==> Geometry <==

    Molecular point group: c1
    Full point group: C1

    Geometry (in Angstrom), charge = 1, multiplicity = 1:

       Center              X                  Y                   Z               Mass       
    ------------   -----------------  -----------------  -----------------  -----------------
         C            0.680066520158     1.235968212970    -7.674696674845    12.000000000000
         C           -0.680504479842     1.237996212970    -7.674312674845    12.000000000000
         N           -1.085635479842     1.238994212970    -6.355988674845    14.003074004430
         C            0.000107520158     1.242270212970    -5.574587674845    12.000000000000
         C           -2.477365479842     1.288400212970    -5.888009674845    12.000000000000
         N            1.085221520158     1.238994212970    -6.355988674845    14.003074004430
         H            1.385145520158     1.228140212970    -8.492135674845     1.007825032230
         H           -1.385302479842     1.237806212970    -8.491981674845     1.007825032230
         H           -0.000009479842     1.244017212970    -4.493498674845     1.007825032230
         C            2.478116520158     1.222102212970    -5.890890674845    12.000000000000
         H            2.490591520158     1.249447212970    -4.800637674845     1.007825032230
         H            2.967027520158     0.308656212970    -6.238066674845     1.007825032230
         H            3.001427520158     2.097585212970    -6.282362674845     1.007825032230
         H           -2.857359479842     2.310471212970    -5.967968674845     1.007825032230
         H           -3.082679479842     0.618316212970    -6.501073674845     1.007825032230
         H           -2.518128479842     0.961416212970    -4.848061674845     1.007825032230
         C            1.225311895423     0.526248873889     0.947369952439    12.000000000000
         C            1.225323856051    -0.888828309601     0.935039142868    12.000000000000
         C           -0.000006153932     1.233676499060     0.934505519348    12.000000000000
         C            2.456448753949     1.237038472148     0.950256809839    12.000000000000
         C            0.000010827279    -1.596265913665     0.944705076672    12.000000000000
         C           -1.225300948908     0.526255958954     0.949621472761    12.000000000000
         C            2.456437755320    -1.599612718911     0.932793986012    12.000000000000
         C           -0.000001332978     2.655511616251     0.932101969214    12.000000000000
         C            3.681826697470     0.528028540971     0.933142775809    12.000000000000
         C            2.455120048865     2.652934246459     0.933040218849    12.000000000000
         C            3.681821105219    -0.890623254459     0.949215259828    12.000000000000
         C           -1.225313598688    -0.888816930574     0.936111904295    12.000000000000
         C            1.226699581202     3.362180068964     0.949399291759    12.000000000000
         C            0.000004784858    -3.018071554266     0.949553244294    12.000000000000
         C           -2.456436032848     1.237027503255     0.949656868607    12.000000000000
         C            2.455123417779    -3.015519443619     0.949063351460    12.000000000000
         C           -1.226714364589     3.362179648720     0.949502624978    12.000000000000
         C            4.914517295202     1.245883457459     0.939623458839    12.000000000000
         C            3.693150191476     3.361505877515     0.939673258475    12.000000000000
         C           -2.456437600068    -1.599602695869     0.932768947887    12.000000000000
         C            1.226704841943    -3.724763656937     0.933429161009    12.000000000000
         C           -2.455125398508     2.652927247604     0.933046595195    12.000000000000
         C            4.914524380782    -1.608476324974     0.942596201574    12.000000000000
         C            1.221424613699     4.788844650230     0.942734635833    12.000000000000
         C            4.893008229321     2.643898584996     0.940840127198    12.000000000000
         C           -1.226697008489    -3.724760412107     0.933696365418    12.000000000000
         C           -3.681818976526     0.528035551702     0.933155456289    12.000000000000
         C            3.693147101150    -3.724090756421     0.942714092134    12.000000000000
         C           -1.221432251994     4.788838882833     0.942918131206    12.000000000000
         C            6.134770972926     0.499258532075     0.940393233389    12.000000000000
         C            3.656788880610     4.791663828537     0.940581896258    12.000000000000
         C           -2.455126907733    -3.015504508091     0.948818993662    12.000000000000
         C           -3.681819179061    -0.890615118499     0.949332881407    12.000000000000
         C            4.893012617914    -3.006489520662     0.941451279093    12.000000000000
         C           -0.000001073113     5.469157951002     0.941686822499    12.000000000000
         C            6.134775112332    -0.861844269105     0.941658553905    12.000000000000
         C            2.478131482856     5.472287336301     0.941870675908    12.000000000000
         C            1.221422404738    -5.151416469963     0.939935138811    12.000000000000
         C           -3.693162383965     3.361507539162     0.939838765935    12.000000000000
         C           -1.221428520945    -5.151407718626     0.939822376978    12.000000000000
         C           -4.914521807942     1.245886031965     0.939700403846    12.000000000000
         C            3.656787019679    -5.154244641269     0.942032396792    12.000000000000
         C           -2.478138530106     5.472285007498     0.942155200916    12.000000000000
         C           -3.693141738564    -3.724079634009     0.942597965979    12.000000000000
         C           -4.914512483053    -1.608470415058     0.942630898747    12.000000000000
         C           -0.000006008926    -5.831727702044     0.941291318378    12.000000000000
         C           -4.893020484101     2.643899183889     0.940830045338    12.000000000000
         C            2.478125993298    -5.834862958919     0.940941796000    12.000000000000
         C           -3.656798710258     4.791666767011     0.940758576632    12.000000000000
         C           -4.892999478856    -3.006481182090     0.941297243395    12.000000000000
         C           -2.478128498083    -5.834855585037     0.940666608352    12.000000000000
         C           -6.134770503331     0.499259351226     0.940367681686    12.000000000000
         C           -3.656788833189    -5.154233438001     0.941818108975    12.000000000000
         C           -6.134765042913    -0.861843330512     0.941638078110    12.000000000000
         H            5.835288495816     3.187986479924     0.945199452860     1.007825032230
         H            7.073859172747     1.046927833869     0.940854876782     1.007825032230
         H            4.600663264174     5.331091387423     0.941087097010     1.007825032230
         H            5.835283387305    -3.550595471759     0.936996811779     1.007825032230
         H           -0.000012151306     6.557241259106     0.937337577491     1.007825032230
         H            7.073861171831    -1.409516357774     0.941149815810     1.007825032230
         H            2.473313731799     6.559394876364     0.941403954977     1.007825032230
         H            4.600668491381    -5.693665544206     0.941622399623     1.007825032230
         H           -2.473318680537     6.559392304576     0.941705301602     1.007825032230
         H           -0.000010268228    -6.919817591482     0.945821003362     1.007825032230
         H           -5.835301914343     3.187981535266     0.945335475009     1.007825032230
         H            2.473307923831    -6.921974789459     0.941512126425     1.007825032230
         H           -4.600674841208     5.331088611573     0.941252425333     1.007825032230
         H           -5.835279506835    -3.550578378810     0.936717505898     1.007825032230
         H           -2.473300347440    -6.921968493170     0.941062809880     1.007825032230
         H           -7.073857766768     1.046931057810     0.940770885301     1.007825032230
         H           -4.600673786085    -5.693652084817     0.941450091601     1.007825032230
         H           -7.073856934409    -1.409510047007     0.941054959344     1.007825032230

  Running in c1 symmetry.

  Rotational constants: A =      0.00137  B =      0.00135  C =      0.00106 [cm^-1]
  Rotational constants: A =     41.04114  B =     40.46889  C =     31.85856 [MHz]
  Nuclear repulsion = 7842.018240510366013

  Charge       = 1
  Multiplicity = 1
  Electrons    = 394
  Nalpha       = 197
  Nbeta        = 197

  ==> Algorithm <==

  SCF Algorithm Type is DF.
  DIIS enabled.
  MOM disabled.
  Fractional occupation disabled.
  Guess Type is SAD.
  Energy threshold   = 1.00e-08
  Density threshold  = 1.00e-08
  Integral threshold = 1.00e-12

  ==> Primary Basis <==

  Basis Set: JUN-CC-PVDZ
    Blend: JUN-CC-PVDZ
    Number of shells: 569
    Number of basis functions: 1233
    Number of Cartesian functions: 1294
    Spherical Harmonics?: true
    Max angular momentum: 2

   => Loading Basis Set <=

    Name: (JUN-CC-PVDZ AUX)
    Role: JKFIT
    Keyword: DF_BASIS_SCF
    atoms 1-2, 4-5, 10, 17-70 entry C          line   146 file /home/gridsan/tfroembgen/.conda/envs/psi4test/share/psi4/basis/jun-cc-pvdz-jkfit.gbs 
    atoms 3, 6                entry N          line   202 file /home/gridsan/tfroembgen/.conda/envs/psi4test/share/psi4/basis/jun-cc-pvdz-jkfit.gbs 
    atoms 7-9, 11-16, 71-88   entry H          line    70 file /home/gridsan/tfroembgen/.conda/envs/psi4test/share/psi4/basis/jun-cc-pvdz-jkfit.gbs 

  ==> Integral Setup <==

  ==> DiskDFJK: Density-Fitted J/K Matrices <==

    J tasked:                  Yes
    K tasked:                  Yes
    wK tasked:                  No
    OpenMP threads:             12
    Integrals threads:          12
    Memory [MiB]:            22888
    Algorithm:                Core
    Integral Cache:           SAVE
    Schwarz Cutoff:          1E-12
    Fitting Condition:       1E-10

   => Auxiliary Basis Set <=

  Basis Set: (JUN-CC-PVDZ AUX)
    Blend: JUN-CC-PVDZ-JKFIT
    Number of shells: 1890
    Number of basis functions: 5440
    Number of Cartesian functions: 6226
    Spherical Harmonics?: true
    Max angular momentum: 3

  Minimum eigenvalue in the overlap matrix is 8.3940326347E-10.
  Reciprocal condition number of the overlap matrix is 3.7530084850E-11.
    Using canonical orthogonalization.
  Overall, 14 of 1233 possible MOs eliminated.


  ==> Pre-Iterations <==

  SCF Guess: Superposition of Atomic Densities via on-the-fly atomic UHF (no occupation information).

   -------------------------
    Irrep   Nso     Nmo    
   -------------------------
     A       1233    1219 
   -------------------------
    Total    1233    1219
   -------------------------

  ==> Iterations <==

                           Total Energy        Delta E     RMS |[F,P]|

   @DF-RHF iter SAD: -2365.39445982600091   -2.36539e+03   0.00000e+00 
   @DF-RHF iter   1: -2358.19161541042968    7.20284e+00   9.47459e-04 ADIIS/DIIS
   @DF-RHF iter   2: -2359.09131364641917   -8.99698e-01   3.22985e-04 ADIIS/DIIS
   @DF-RHF iter   3: -2359.18313201817318   -9.18184e-02   1.18400e-04 ADIIS/DIIS
   @DF-RHF iter   4: -2359.19631567158467   -1.31837e-02   4.45128e-05 DIIS
   @DF-RHF iter   5: -2359.19824577399913   -1.93010e-03   1.00085e-05 DIIS
   @DF-RHF iter   6: -2359.19842181405193   -1.76040e-04   5.09393e-06 DIIS
   @DF-RHF iter   7: -2359.19849007086850   -6.82568e-05   2.24426e-06 DIIS
   @DF-RHF iter   8: -2359.19851038554089   -2.03147e-05   1.13620e-06 DIIS
   @DF-RHF iter   9: -2359.19851534606414   -4.96052e-06   2.61084e-07 DIIS
   @DF-RHF iter  10: -2359.19851558791061   -2.41846e-07   8.88062e-08 DIIS
   @DF-RHF iter  11: -2359.19851560602410   -1.81135e-08   3.43481e-08 DIIS
   @DF-RHF iter  12: -2359.19851560980078   -3.77668e-09   1.68108e-08 DIIS
   @DF-RHF iter  13: -2359.19851561051973   -7.18956e-10   7.70823e-09 DIIS
  Energy and wave function converged.


  ==> Post-Iterations <==

    Orbital Energies [Eh]
    ---------------------

    Doubly Occupied:                                                      

       1A    -15.823661     2A    -15.823142     3A    -11.518296  
       4A    -11.450013     5A    -11.448458     6A    -11.438467  
       7A    -11.438379     8A    -11.321397     9A    -11.320720  
      10A    -11.320472    11A    -11.319996    12A    -11.319581  
      13A    -11.319569    14A    -11.319051    15A    -11.319031  
      16A    -11.318687    17A    -11.318229    18A    -11.318102  
      19A    -11.317669    20A    -11.317650    21A    -11.317438  
      22A    -11.317422    23A    -11.317176    24A    -11.317162  
      25A    -11.317121    26A    -11.317083    27A    -11.316578  
      28A    -11.316396    29A    -11.316363    30A    -11.316243  
      31A    -11.316237    32A    -11.315648    33A    -11.315643  
      34A    -11.315291    35A    -11.315249    36A    -11.314750  
      37A    -11.314746    38A    -11.314636    39A    -11.314543  
      40A    -11.314122    41A    -11.314092    42A    -11.313403  
      43A    -11.313338    44A    -11.310453    45A    -11.310151  
      46A    -11.310143    47A    -11.309722    48A    -11.309715  
      49A    -11.308711    50A    -11.308706    51A    -11.308499  
      52A    -11.308492    53A    -11.307922    54A    -11.307917  
      55A    -11.307013    56A    -11.307007    57A    -11.306867  
      58A    -11.306295    59A    -11.306287    60A    -11.304854  
      61A    -11.304847    62A     -1.567456    63A     -1.422959  
      64A     -1.303906    65A     -1.278781    66A     -1.278638  
      67A     -1.247859    68A     -1.247853    69A     -1.239998  
      70A     -1.228132    71A     -1.215253    72A     -1.207159  
      73A     -1.194291    74A     -1.194189    75A     -1.178326  
      76A     -1.170801    77A     -1.170781    78A     -1.140907  
      79A     -1.140893    80A     -1.137094    81A     -1.123414  
      82A     -1.123391    83A     -1.107875    84A     -1.097217  
      85A     -1.083192    86A     -1.080708    87A     -1.080637  
      88A     -1.075220    89A     -1.070022    90A     -1.045266  
      91A     -1.045245    92A     -1.019453    93A     -1.019446  
      94A     -1.012030    95A     -0.985983    96A     -0.952053  
      97A     -0.951991    98A     -0.946821    99A     -0.944975  
     100A     -0.944876   101A     -0.939643   102A     -0.939639  
     103A     -0.919423   104A     -0.906134   105A     -0.894166  
     106A     -0.875995   107A     -0.875106   108A     -0.870275  
     109A     -0.870261   110A     -0.851882   111A     -0.851864  
     112A     -0.839702   113A     -0.805844   114A     -0.805153  
     115A     -0.803168   116A     -0.801801   117A     -0.791729  
     118A     -0.791651   119A     -0.789417   120A     -0.789334  
     121A     -0.779566   122A     -0.775346   123A     -0.774349  
     124A     -0.771640   125A     -0.756575   126A     -0.756481  
     127A     -0.751446   128A     -0.751358   129A     -0.718389  
     130A     -0.718376   131A     -0.714547   132A     -0.711031  
     133A     -0.709466   134A     -0.707295   135A     -0.707292  
     136A     -0.706283   137A     -0.696773   138A     -0.696753  
     139A     -0.687648   140A     -0.685439   141A     -0.685420  
     142A     -0.666775   143A     -0.661706   144A     -0.659830  
     145A     -0.657104   146A     -0.657013   147A     -0.651765  
     148A     -0.649637   149A     -0.649589   150A     -0.641780  
     151A     -0.635614   152A     -0.635402   153A     -0.624331  
     154A     -0.624277   155A     -0.623966   156A     -0.623868  
     157A     -0.616752   158A     -0.611844   159A     -0.611762  
     160A     -0.596626   161A     -0.596623   162A     -0.595704  
     163A     -0.595612   164A     -0.587475   165A     -0.587192  
     166A     -0.585680   167A     -0.580418   168A     -0.580348  
     169A     -0.557461   170A     -0.553246   171A     -0.550410  
     172A     -0.546025   173A     -0.543083   174A     -0.539410  
     175A     -0.539333   176A     -0.529372   177A     -0.529240  
     178A     -0.513718   179A     -0.509538   180A     -0.509394  
     181A     -0.496548   182A     -0.496522   183A     -0.463436  
     184A     -0.463432   185A     -0.462127   186A     -0.432641  
     187A     -0.432634   188A     -0.407096   189A     -0.397296  
     190A     -0.396224   191A     -0.396175   192A     -0.368794  
     193A     -0.354843   194A     -0.343160   195A     -0.343132  
     196A     -0.282810   197A     -0.282771  

    Virtual:                                                              

     198A     -0.057949   199A     -0.052616   200A     -0.045368  
     201A     -0.043963   202A     -0.043845   203A     -0.038263  
     204A     -0.022938   205A     -0.021219   206A     -0.020330  
     207A     -0.014910   208A     -0.003803   209A      0.000066  
     210A      0.002026   211A      0.002310   212A      0.004393  
     213A      0.004823   214A      0.006050   215A      0.006152  
     216A      0.006872   217A      0.009719   218A      0.010824  
     219A      0.011305   220A      0.013899   221A      0.017314  
     222A      0.026009   223A      0.026776   224A      0.027239  
     225A      0.027878   226A      0.029164   227A      0.029279  
     228A      0.031331   229A      0.032789   230A      0.033076  
     231A      0.039053   232A      0.041788   233A      0.041924  
     234A      0.042792   235A      0.043007   236A      0.044375  
     237A      0.049589   238A      0.049766   239A      0.052612  
     240A      0.055340   241A      0.059125   242A      0.061054  
     243A      0.061711   244A      0.062545   245A      0.064187  
     246A      0.068405   247A      0.069575   248A      0.070392  
     249A      0.072240   250A      0.074654   251A      0.076295  
     252A      0.081621   253A      0.081795   254A      0.082945  
     255A      0.084766   256A      0.085541   257A      0.086007  
     258A      0.086586   259A      0.088161   260A      0.091488  
     261A      0.092201   262A      0.099284   263A      0.099811  
     264A      0.100867   265A      0.102428   266A      0.104782  
     267A      0.105659   268A      0.106513   269A      0.109553  
     270A      0.110557   271A      0.112012   272A      0.117962  
     273A      0.118459   274A      0.122016   275A      0.123216  
     276A      0.126459   277A      0.127911   278A      0.128511  
     279A      0.130308   280A      0.130959   281A      0.132495  
     282A      0.134715   283A      0.135037   284A      0.136612  
     285A      0.137095   286A      0.139470   287A      0.140415  
     288A      0.143067   289A      0.144004   290A      0.144867  
     291A      0.147935   292A      0.150282   293A      0.151103  
     294A      0.153480   295A      0.157993   296A      0.158970  
     297A      0.159593   298A      0.160380   299A      0.160562  
     300A      0.160721   301A      0.161524   302A      0.162265  
     303A      0.162775   304A      0.164353   305A      0.166317  
     306A      0.168052   307A      0.170583   308A      0.171733  
     309A      0.173444   310A      0.175758   311A      0.176213  
     312A      0.176606   313A      0.177492   314A      0.178799  
     315A      0.179827   316A      0.180626   317A      0.182210  
     318A      0.182739   319A      0.185741   320A      0.188097  
     321A      0.190874   322A      0.191853   323A      0.193154  
     324A      0.196020   325A      0.196767   326A      0.198956  
     327A      0.200712   328A      0.202003   329A      0.203403  
     330A      0.204139   331A      0.204708   332A      0.205223  
     333A      0.209924   334A      0.211921   335A      0.212164  
     336A      0.213348   337A      0.213407   338A      0.216614  
     339A      0.216624   340A      0.217525   341A      0.219091  
     342A      0.220041   343A      0.221823   344A      0.222705  
     345A      0.226434   346A      0.228758   347A      0.229613  
     348A      0.232188   349A      0.234435   350A      0.235598  
     351A      0.237193   352A      0.243347   353A      0.243469  
     354A      0.245194   355A      0.245395   356A      0.248744  
     357A      0.249608   358A      0.251693   359A      0.252518  
     360A      0.253867   361A      0.254826   362A      0.255531  
     363A      0.256684   364A      0.258083   365A      0.258376  
     366A      0.259102   367A      0.259891   368A      0.260948  
     369A      0.263008   370A      0.265125   371A      0.266067  
     372A      0.267565   373A      0.267793   374A      0.268250  
     375A      0.270255   376A      0.270777   377A      0.274800  
     378A      0.276396   379A      0.278351   380A      0.279211  
     381A      0.280577   382A      0.283390   383A      0.284699  
     384A      0.286589   385A      0.288563   386A      0.290968  
     387A      0.291492   388A      0.293780   389A      0.296280  
     390A      0.297092   391A      0.297927   392A      0.299475  
     393A      0.300239   394A      0.301178   395A      0.301867  
     396A      0.305608   397A      0.308474   398A      0.311364  
     399A      0.313415   400A      0.313807   401A      0.315434  
     402A      0.318219   403A      0.319124   404A      0.319570  
     405A      0.319813   406A      0.325878   407A      0.327156  
     408A      0.329072   409A      0.329967   410A      0.330940  
     411A      0.333293   412A      0.334485   413A      0.335268  
     414A      0.337170   415A      0.338310   416A      0.339658  
     417A      0.340719   418A      0.341645   419A      0.342349  
     420A      0.343999   421A      0.345745   422A      0.348800  
     423A      0.349800   424A      0.350722   425A      0.351058  
     426A      0.351445   427A      0.352183   428A      0.352359  
     429A      0.352911   430A      0.355926   431A      0.356403  
     432A      0.360002   433A      0.362136   434A      0.364485  
     435A      0.365115   436A      0.366951   437A      0.368395  
     438A      0.369149   439A      0.371750   440A      0.380397  
     441A      0.380857   442A      0.381934   443A      0.383250  
     444A      0.387609   445A      0.387869   446A      0.389179  
     447A      0.389305   448A      0.393983   449A      0.395020  
     450A      0.396498   451A      0.397027   452A      0.398142  
     453A      0.401200   454A      0.402434   455A      0.403559  
     456A      0.403957   457A      0.405262   458A      0.406296  
     459A      0.410577   460A      0.410829   461A      0.414613  
     462A      0.416017   463A      0.416559   464A      0.420157  
     465A      0.421036   466A      0.425179   467A      0.425716  
     468A      0.427644   469A      0.430059   470A      0.437406  
     471A      0.437460   472A      0.438998   473A      0.439567  
     474A      0.441041   475A      0.441486   476A      0.444948  
     477A      0.445281   478A      0.448332   479A      0.450409  
     480A      0.455908   481A      0.456411   482A      0.456474  
     483A      0.456750   484A      0.458657   485A      0.462553  
     486A      0.463201   487A      0.468972   488A      0.469117  
     489A      0.469883   490A      0.471425   491A      0.481051  
     492A      0.481653   493A      0.484513   494A      0.485050  
     495A      0.487841   496A      0.491729   497A      0.491830  
     498A      0.492425   499A      0.495107   500A      0.495350  
     501A      0.497104   502A      0.499309   503A      0.499387  
     504A      0.503443   505A      0.504964   506A      0.505417  
     507A      0.509121   508A      0.512833   509A      0.513625  
     510A      0.520461   511A      0.529065   512A      0.530841  
     513A      0.539623   514A      0.540084   515A      0.541025  
     516A      0.546861   517A      0.557010   518A      0.557072  
     519A      0.562801   520A      0.564301   521A      0.569870  
     522A      0.570019   523A      0.579586   524A      0.586911  
     525A      0.592262   526A      0.592791   527A      0.596984  
     528A      0.609788   529A      0.609889   530A      0.612695  
     531A      0.619809   532A      0.620490   533A      0.621211  
     534A      0.629322   535A      0.641357   536A      0.659069  
     537A      0.659160   538A      0.662386   539A      0.667669  
     540A      0.675055   541A      0.675996   542A      0.683724  
     543A      0.685613   544A      0.686589   545A      0.686937  
     546A      0.687815   547A      0.695419   548A      0.699396  
     549A      0.700372   550A      0.700480   551A      0.705835  
     552A      0.708367   553A      0.714577   554A      0.715906  
     555A      0.724392   556A      0.730436   557A      0.734138  
     558A      0.738647   559A      0.741316   560A      0.748429  
     561A      0.748707   562A      0.750184   563A      0.754810  
     564A      0.757959   565A      0.759734   566A      0.763554  
     567A      0.764406   568A      0.766574   569A      0.771226  
     570A      0.771671   571A      0.774760   572A      0.777759  
     573A      0.778860   574A      0.781220   575A      0.786521  
     576A      0.789412   577A      0.795783   578A      0.800056  
     579A      0.801748   580A      0.804290   581A      0.805184  
     582A      0.807437   583A      0.808063   584A      0.811056  
     585A      0.816621   586A      0.817921   587A      0.820047  
     588A      0.821298   589A      0.821741   590A      0.827198  
     591A      0.828146   592A      0.832439   593A      0.832853  
     594A      0.833467   595A      0.837409   596A      0.841269  
     597A      0.841429   598A      0.842555   599A      0.844387  
     600A      0.846283   601A      0.851737   602A      0.852701  
     603A      0.854991   604A      0.855763   605A      0.858060  
     606A      0.858815   607A      0.861137   608A      0.865278  
     609A      0.866256   610A      0.866382   611A      0.871448  
     612A      0.872942   613A      0.877147   614A      0.877746  
     615A      0.879572   616A      0.880603   617A      0.884227  
     618A      0.886121   619A      0.886965   620A      0.888614  
     621A      0.891900   622A      0.898674   623A      0.900938  
     624A      0.901003   625A      0.905697   626A      0.913080  
     627A      0.913956   628A      0.914530   629A      0.914963  
     630A      0.916030   631A      0.916801   632A      0.917869  
     633A      0.920560   634A      0.922817   635A      0.923751  
     636A      0.930858   637A      0.930969   638A      0.937228  
     639A      0.941585   640A      0.942482   641A      0.948387  
     642A      0.957800   643A      0.958933   644A      0.959731  
     645A      0.961576   646A      0.962469   647A      0.962950  
     648A      0.967118   649A      0.974425   650A      0.974722  
     651A      0.978231   652A      0.979538   653A      0.981124  
     654A      0.981861   655A      0.982931   656A      0.983243  
     657A      0.984448   658A      0.987085   659A      0.988078  
     660A      0.988356   661A      0.989011   662A      0.989321  
     663A      0.990896   664A      0.992066   665A      0.992382  
     666A      0.998579   667A      0.999130   668A      1.003808  
     669A      1.004298   670A      1.004860   671A      1.007706  
     672A      1.012701   673A      1.014182   674A      1.015724  
     675A      1.016768   676A      1.017071   677A      1.024666  
     678A      1.025489   679A      1.026914   680A      1.027612  
     681A      1.029276   682A      1.029800   683A      1.033473  
     684A      1.036198   685A      1.041656   686A      1.046072  
     687A      1.047735   688A      1.050230   689A      1.052254  
     690A      1.054718   691A      1.059041   692A      1.059089  
     693A      1.059591   694A      1.059922   695A      1.062979  
     696A      1.064097   697A      1.068464   698A      1.068938  
     699A      1.073031   700A      1.076086   701A      1.077443  
     702A      1.077741   703A      1.082490   704A      1.082947  
     705A      1.083182   706A      1.083869   707A      1.086335  
     708A      1.087826   709A      1.097093   710A      1.110337  
     711A      1.111802   712A      1.116079   713A      1.116506  
     714A      1.119548   715A      1.120122   716A      1.124781  
     717A      1.125173   718A      1.126165   719A      1.127402  
     720A      1.137101   721A      1.140040   722A      1.140172  
     723A      1.142520   724A      1.142984   725A      1.151334  
     726A      1.153862   727A      1.160409   728A      1.161116  
     729A      1.161248   730A      1.163570   731A      1.166069  
     732A      1.166090   733A      1.177846   734A      1.181823  
     735A      1.183314   736A      1.184181   737A      1.201642  
     738A      1.203408   739A      1.205352   740A      1.205395  
     741A      1.206039   742A      1.207152   743A      1.209646  
     744A      1.210420   745A      1.211424   746A      1.220938  
     747A      1.225277   748A      1.237849   749A      1.237910  
     750A      1.239992   751A      1.241357   752A      1.243255  
     753A      1.243844   754A      1.252287   755A      1.252875  
     756A      1.252999   757A      1.253272   758A      1.261986  
     759A      1.263269   760A      1.264276   761A      1.264707  
     762A      1.272383   763A      1.272546   764A      1.275941  
     765A      1.282597   766A      1.283057   767A      1.286350  
     768A      1.287456   769A      1.289426   770A      1.291812  
     771A      1.294977   772A      1.296489   773A      1.296512  
     774A      1.302451   775A      1.303856   776A      1.304821  
     777A      1.306001   778A      1.310312   779A      1.310743  
     780A      1.324006   781A      1.333940   782A      1.337833  
     783A      1.342494   784A      1.347353   785A      1.347472  
     786A      1.350327   787A      1.350491   788A      1.355395  
     789A      1.355845   790A      1.360129   791A      1.361873  
     792A      1.366953   793A      1.368899   794A      1.370915  
     795A      1.371896   796A      1.374697   797A      1.379971  
     798A      1.380183   799A      1.382026   800A      1.383000  
     801A      1.383288   802A      1.385258   803A      1.392720  
     804A      1.393292   805A      1.393758   806A      1.405686  
     807A      1.405864   808A      1.415569   809A      1.416587  
     810A      1.436365   811A      1.459242   812A      1.459739  
     813A      1.463162   814A      1.463199   815A      1.475623  
     816A      1.477645   817A      1.489634   818A      1.494078  
     819A      1.514475   820A      1.517803   821A      1.530477  
     822A      1.540175   823A      1.541348   824A      1.541795  
     825A      1.549631   826A      1.549701   827A      1.550951  
     828A      1.553105   829A      1.553270   830A      1.557464  
     831A      1.563660   832A      1.563966   833A      1.570687  
     834A      1.571233   835A      1.576204   836A      1.582206  
     837A      1.582665   838A      1.584980   839A      1.585227  
     840A      1.585323   841A      1.585611   842A      1.592432  
     843A      1.603409   844A      1.603434   845A      1.609728  
     846A      1.617022   847A      1.617041   848A      1.618309  
     849A      1.618593   850A      1.619706   851A      1.619740  
     852A      1.625849   853A      1.628560   854A      1.628636  
     855A      1.631589   856A      1.638481   857A      1.639789  
     858A      1.642012   859A      1.642079   860A      1.642961  
     861A      1.645757   862A      1.645828   863A      1.658677  
     864A      1.658803   865A      1.674661   866A      1.681615  
     867A      1.683800   868A      1.692690   869A      1.693952  
     870A      1.702576   871A      1.703867   872A      1.704345  
     873A      1.705892   874A      1.710169   875A      1.719191  
     876A      1.719344   877A      1.733985   878A      1.734034  
     879A      1.745708   880A      1.758146   881A      1.759120  
     882A      1.759368   883A      1.759627   884A      1.761515  
     885A      1.762213   886A      1.765997   887A      1.766224  
     888A      1.768617   889A      1.773386   890A      1.773461  
     891A      1.780430   892A      1.784003   893A      1.784332  
     894A      1.797740   895A      1.803852   896A      1.804016  
     897A      1.804397   898A      1.805243   899A      1.807401  
     900A      1.811427   901A      1.814780   902A      1.821426  
     903A      1.821878   904A      1.822320   905A      1.824303  
     906A      1.830228   907A      1.838544   908A      1.838625  
     909A      1.842915   910A      1.846692   911A      1.847177  
     912A      1.850626   913A      1.850727   914A      1.856260  
     915A      1.857573   916A      1.859414   917A      1.859879  
     918A      1.860005   919A      1.861186   920A      1.864165  
     921A      1.864499   922A      1.871081   923A      1.881397  
     924A      1.882985   925A      1.885119   926A      1.885312  
     927A      1.885930   928A      1.891234   929A      1.891445  
     930A      1.896219   931A      1.896316   932A      1.896745  
     933A      1.897181   934A      1.900201   935A      1.907982  
     936A      1.911491   937A      1.914265   938A      1.924756  
     939A      1.924946   940A      1.933192   941A      1.939644  
     942A      1.941567   943A      1.941897   944A      1.948151  
     945A      1.951894   946A      1.955439   947A      1.955772  
     948A      1.963155   949A      1.969580   950A      1.970561  
     951A      1.972662   952A      1.973090   953A      1.973703  
     954A      1.973911   955A      1.974536   956A      1.979906  
     957A      1.991035   958A      1.995100   959A      1.995343  
     960A      1.999744   961A      2.000514   962A      2.002663  
     963A      2.003748   964A      2.010234   965A      2.012545  
     966A      2.013400   967A      2.013844   968A      2.016867  
     969A      2.018487   970A      2.021031   971A      2.023487  
     972A      2.026699   973A      2.028364   974A      2.035941  
     975A      2.037538   976A      2.039719   977A      2.040331  
     978A      2.043250   979A      2.043382   980A      2.050617  
     981A      2.050924   982A      2.051121   983A      2.051425  
     984A      2.051811   985A      2.052914   986A      2.054869  
     987A      2.057588   988A      2.061946   989A      2.062063  
     990A      2.063319   991A      2.063405   992A      2.069211  
     993A      2.069655   994A      2.075863   995A      2.077040  
     996A      2.078136   997A      2.079221   998A      2.079360  
     999A      2.086082  1000A      2.086115  1001A      2.098587  
    1002A      2.100933  1003A      2.101457  1004A      2.104945  
    1005A      2.105032  1006A      2.109348  1007A      2.112656  
    1008A      2.121094  1009A      2.121206  1010A      2.134008  
    1011A      2.134309  1012A      2.134617  1013A      2.136576  
    1014A      2.136615  1015A      2.138146  1016A      2.139989  
    1017A      2.147394  1018A      2.157980  1019A      2.161705  
    1020A      2.161851  1021A      2.162111  1022A      2.169151  
    1023A      2.169693  1024A      2.170869  1025A      2.171344  
    1026A      2.171538  1027A      2.186910  1028A      2.187209  
    1029A      2.188175  1030A      2.188291  1031A      2.191258  
    1032A      2.203914  1033A      2.203997  1034A      2.209425  
    1035A      2.212916  1036A      2.212948  1037A      2.215375  
    1038A      2.215441  1039A      2.225376  1040A      2.234353  
    1041A      2.243414  1042A      2.249623  1043A      2.252516  
    1044A      2.254268  1045A      2.258896  1046A      2.263375  
    1047A      2.264702  1048A      2.271937  1049A      2.271982  
    1050A      2.272842  1051A      2.275383  1052A      2.292504  
    1053A      2.293149  1054A      2.294924  1055A      2.294963  
    1056A      2.305369  1057A      2.308160  1058A      2.308323  
    1059A      2.315547  1060A      2.322461  1061A      2.337678  
    1062A      2.346139  1063A      2.359117  1064A      2.366105  
    1065A      2.366903  1066A      2.366909  1067A      2.379477  
    1068A      2.383013  1069A      2.383135  1070A      2.412282  
    1071A      2.415566  1072A      2.416094  1073A      2.428290  
    1074A      2.428328  1075A      2.444715  1076A      2.454209  
    1077A      2.462643  1078A      2.471744  1079A      2.472258  
    1080A      2.472722  1081A      2.486845  1082A      2.488505  
    1083A      2.489196  1084A      2.496046  1085A      2.498375  
    1086A      2.498469  1087A      2.502341  1088A      2.502379  
    1089A      2.506622  1090A      2.515192  1091A      2.515228  
    1092A      2.518534  1093A      2.519001  1094A      2.528810  
    1095A      2.529320  1096A      2.529773  1097A      2.532426  
    1098A      2.535422  1099A      2.549288  1100A      2.566851  
    1101A      2.566931  1102A      2.567493  1103A      2.573295  
    1104A      2.573942  1105A      2.582301  1106A      2.584428  
    1107A      2.584575  1108A      2.594390  1109A      2.594858  
    1110A      2.599988  1111A      2.613114  1112A      2.624047  
    1113A      2.625153  1114A      2.626816  1115A      2.630893  
    1116A      2.642933  1117A      2.643369  1118A      2.645974  
    1119A      2.654703  1120A      2.654817  1121A      2.660581  
    1122A      2.660675  1123A      2.664423  1124A      2.664944  
    1125A      2.671199  1126A      2.678676  1127A      2.689255  
    1128A      2.690289  1129A      2.695522  1130A      2.696003  
    1131A      2.698609  1132A      2.714669  1133A      2.718828  
    1134A      2.736612  1135A      2.737244  1136A      2.744656  
    1137A      2.755372  1138A      2.758853  1139A      2.768702  
    1140A      2.770586  1141A      2.793991  1142A      2.794579  
    1143A      2.796880  1144A      2.799227  1145A      2.801431  
    1146A      2.801957  1147A      2.805592  1148A      2.810513  
    1149A      2.860694  1150A      2.861002  1151A      2.866949  
    1152A      2.877039  1153A      2.877076  1154A      2.892394  
    1155A      2.892471  1156A      2.906085  1157A      2.924876  
    1158A      2.949430  1159A      2.949954  1160A      2.955734  
    1161A      2.972971  1162A      2.983368  1163A      3.005562  
    1164A      3.005850  1165A      3.012918  1166A      3.012985  
    1167A      3.052372  1168A      3.053127  1169A      3.055341  
    1170A      3.071552  1171A      3.072274  1172A      3.072725  
    1173A      3.072877  1174A      3.080425  1175A      3.088597  
    1176A      3.089431  1177A      3.090620  1178A      3.092262  
    1179A      3.092466  1180A      3.101088  1181A      3.101550  
    1182A      3.108990  1183A      3.109515  1184A      3.135266  
    1185A      3.154754  1186A      3.160631  1187A      3.180386  
    1188A      3.215040  1189A      3.218892  1190A      3.219138  
    1191A      3.224548  1192A      3.224954  1193A      3.357949  
    1194A      3.358528  1195A      3.381692  1196A      3.422824  
    1197A      3.425243  1198A      3.446858  1199A      3.490359  
    1200A      3.517982  1201A      3.519818  1202A      3.534537  
    1203A      3.536410  1204A      3.568609  1205A      3.570610  
    1206A      3.605206  1207A      3.611428  1208A      3.711004  
    1209A      3.724010  1210A      3.725075  1211A      3.813625  
    1212A      3.813633  1213A      3.855621  1214A      3.855788  
    1215A      3.918392  1216A      3.952229  1217A      3.972892  
    1218A      3.985381  1219A      4.020890  

    Final Occupation by Irrep:
              A 
    DOCC [   197 ]
    NA   [   197 ]
    NB   [   197 ]

  @DF-RHF Final Energy: -2359.19851561051973

   => Energetics <=

    Nuclear Repulsion Energy =           7842.0182405103660130
    One-Electron Energy =              -18789.4491732327915088
    Two-Electron Energy =                8588.2324171119053062
    Total Energy =                      -2359.1985156105201895

Computation Completed


Properties will be evaluated at   0.000000,   0.000000,   0.000000 [a0]

Properties computed using the SCF density matrix


 Multipole Moments:

 ------------------------------------------------------------------------------------
     Multipole            Electronic (a.u.)      Nuclear  (a.u.)        Total (a.u.)
 ------------------------------------------------------------------------------------

 L = 1.  Multiply by 2.5417464519 to convert [e a0] to [Debye]
 Dipole X            :         -0.0015078            0.0006313           -0.0008765
 Dipole Y            :         -5.5757959            7.4856329            1.9098370
 Dipole Z            :         25.7688906          -36.6869940          -10.9181034
 Magnitude           :                                                   11.0838829

 ------------------------------------------------------------------------------------

*** tstop() called on d-16-5-1 at Mon Jan 22 22:24:01 2024
Module time:
	user time   =    3852.76 seconds =      64.21 minutes
	system time =      60.24 seconds =       1.00 minutes
	total time  =        395 seconds =       6.58 minutes
Total time:
	user time   =    3852.76 seconds =      64.21 minutes
	system time =      60.24 seconds =       1.00 minutes
	total time  =        395 seconds =       6.58 minutes

  //>>>>>>>>>>>>>>>>>>>>>>>>>>>>>>>>>>>//
  //            Monomer A HF           //
  //<<<<<<<<<<<<<<<<<<<<<<<<<<<<<<<<<<<//

   => Libint2 <=

    Primary   basis highest AM E, G, H:  7, 7, 4
    Auxiliary basis highest AM E, G, H:  7, 7, 5
    Onebody   basis highest AM E, G, H:  7, 7, 5
    Solid Harmonics ordering:            gaussian

*** tstart() called on d-16-5-1
*** at Mon Jan 22 22:24:01 2024

   => Loading Basis Set <=

    Name: JUN-CC-PVDZ
    Role: ORBITAL
    Keyword: BASIS
    atoms 1-2, 4-5, 10, 17-70 entry C          line   164 file /home/gridsan/tfroembgen/.conda/envs/psi4test/share/psi4/basis/jun-cc-pvdz.gbs 
    atoms 3, 6                entry N          line   198 file /home/gridsan/tfroembgen/.conda/envs/psi4test/share/psi4/basis/jun-cc-pvdz.gbs 
    atoms 7-9, 11-16, 71-88   entry H          line    36 file /home/gridsan/tfroembgen/.conda/envs/psi4test/share/psi4/basis/jun-cc-pvdz.gbs 


         ---------------------------------------------------------
                                   SCF
               by Justin Turney, Rob Parrish, Andy Simmonett
                          and Daniel G. A. Smith
                              RHF Reference
                       12 Threads,  30517 MiB Core
         ---------------------------------------------------------

  ==> Geometry <==

    Molecular point group: c1
    Full point group: C1

    Geometry (in Angstrom), charge = 1, multiplicity = 1:

       Center              X                  Y                   Z               Mass       
    ------------   -----------------  -----------------  -----------------  -----------------
         C            0.680066520158     1.235968212970    -7.674696674845    12.000000000000
         C           -0.680504479842     1.237996212970    -7.674312674845    12.000000000000
         N           -1.085635479842     1.238994212970    -6.355988674845    14.003074004430
         C            0.000107520158     1.242270212970    -5.574587674845    12.000000000000
         C           -2.477365479842     1.288400212970    -5.888009674845    12.000000000000
         N            1.085221520158     1.238994212970    -6.355988674845    14.003074004430
         H            1.385145520158     1.228140212970    -8.492135674845     1.007825032230
         H           -1.385302479842     1.237806212970    -8.491981674845     1.007825032230
         H           -0.000009479842     1.244017212970    -4.493498674845     1.007825032230
         C            2.478116520158     1.222102212970    -5.890890674845    12.000000000000
         H            2.490591520158     1.249447212970    -4.800637674845     1.007825032230
         H            2.967027520158     0.308656212970    -6.238066674845     1.007825032230
         H            3.001427520158     2.097585212970    -6.282362674845     1.007825032230
         H           -2.857359479842     2.310471212970    -5.967968674845     1.007825032230
         H           -3.082679479842     0.618316212970    -6.501073674845     1.007825032230
         H           -2.518128479842     0.961416212970    -4.848061674845     1.007825032230
      Gh(C)           1.225311895423     0.526248873889     0.947369952439    12.000000000000
      Gh(C)           1.225323856051    -0.888828309601     0.935039142868    12.000000000000
      Gh(C)          -0.000006153932     1.233676499060     0.934505519348    12.000000000000
      Gh(C)           2.456448753949     1.237038472148     0.950256809839    12.000000000000
      Gh(C)           0.000010827279    -1.596265913665     0.944705076672    12.000000000000
      Gh(C)          -1.225300948908     0.526255958954     0.949621472761    12.000000000000
      Gh(C)           2.456437755320    -1.599612718911     0.932793986012    12.000000000000
      Gh(C)          -0.000001332978     2.655511616251     0.932101969214    12.000000000000
      Gh(C)           3.681826697470     0.528028540971     0.933142775809    12.000000000000
      Gh(C)           2.455120048865     2.652934246459     0.933040218849    12.000000000000
      Gh(C)           3.681821105219    -0.890623254459     0.949215259828    12.000000000000
      Gh(C)          -1.225313598688    -0.888816930574     0.936111904295    12.000000000000
      Gh(C)           1.226699581202     3.362180068964     0.949399291759    12.000000000000
      Gh(C)           0.000004784858    -3.018071554266     0.949553244294    12.000000000000
      Gh(C)          -2.456436032848     1.237027503255     0.949656868607    12.000000000000
      Gh(C)           2.455123417779    -3.015519443619     0.949063351460    12.000000000000
      Gh(C)          -1.226714364589     3.362179648720     0.949502624978    12.000000000000
      Gh(C)           4.914517295202     1.245883457459     0.939623458839    12.000000000000
      Gh(C)           3.693150191476     3.361505877515     0.939673258475    12.000000000000
      Gh(C)          -2.456437600068    -1.599602695869     0.932768947887    12.000000000000
      Gh(C)           1.226704841943    -3.724763656937     0.933429161009    12.000000000000
      Gh(C)          -2.455125398508     2.652927247604     0.933046595195    12.000000000000
      Gh(C)           4.914524380782    -1.608476324974     0.942596201574    12.000000000000
      Gh(C)           1.221424613699     4.788844650230     0.942734635833    12.000000000000
      Gh(C)           4.893008229321     2.643898584996     0.940840127198    12.000000000000
      Gh(C)          -1.226697008489    -3.724760412107     0.933696365418    12.000000000000
      Gh(C)          -3.681818976526     0.528035551702     0.933155456289    12.000000000000
      Gh(C)           3.693147101150    -3.724090756421     0.942714092134    12.000000000000
      Gh(C)          -1.221432251994     4.788838882833     0.942918131206    12.000000000000
      Gh(C)           6.134770972926     0.499258532075     0.940393233389    12.000000000000
      Gh(C)           3.656788880610     4.791663828537     0.940581896258    12.000000000000
      Gh(C)          -2.455126907733    -3.015504508091     0.948818993662    12.000000000000
      Gh(C)          -3.681819179061    -0.890615118499     0.949332881407    12.000000000000
      Gh(C)           4.893012617914    -3.006489520662     0.941451279093    12.000000000000
      Gh(C)          -0.000001073113     5.469157951002     0.941686822499    12.000000000000
      Gh(C)           6.134775112332    -0.861844269105     0.941658553905    12.000000000000
      Gh(C)           2.478131482856     5.472287336301     0.941870675908    12.000000000000
      Gh(C)           1.221422404738    -5.151416469963     0.939935138811    12.000000000000
      Gh(C)          -3.693162383965     3.361507539162     0.939838765935    12.000000000000
      Gh(C)          -1.221428520945    -5.151407718626     0.939822376978    12.000000000000
      Gh(C)          -4.914521807942     1.245886031965     0.939700403846    12.000000000000
      Gh(C)           3.656787019679    -5.154244641269     0.942032396792    12.000000000000
      Gh(C)          -2.478138530106     5.472285007498     0.942155200916    12.000000000000
      Gh(C)          -3.693141738564    -3.724079634009     0.942597965979    12.000000000000
      Gh(C)          -4.914512483053    -1.608470415058     0.942630898747    12.000000000000
      Gh(C)          -0.000006008926    -5.831727702044     0.941291318378    12.000000000000
      Gh(C)          -4.893020484101     2.643899183889     0.940830045338    12.000000000000
      Gh(C)           2.478125993298    -5.834862958919     0.940941796000    12.000000000000
      Gh(C)          -3.656798710258     4.791666767011     0.940758576632    12.000000000000
      Gh(C)          -4.892999478856    -3.006481182090     0.941297243395    12.000000000000
      Gh(C)          -2.478128498083    -5.834855585037     0.940666608352    12.000000000000
      Gh(C)          -6.134770503331     0.499259351226     0.940367681686    12.000000000000
      Gh(C)          -3.656788833189    -5.154233438001     0.941818108975    12.000000000000
      Gh(C)          -6.134765042913    -0.861843330512     0.941638078110    12.000000000000
      Gh(H)           5.835288495816     3.187986479924     0.945199452860     1.007825032230
      Gh(H)           7.073859172747     1.046927833869     0.940854876782     1.007825032230
      Gh(H)           4.600663264174     5.331091387423     0.941087097010     1.007825032230
      Gh(H)           5.835283387305    -3.550595471759     0.936996811779     1.007825032230
      Gh(H)          -0.000012151306     6.557241259106     0.937337577491     1.007825032230
      Gh(H)           7.073861171831    -1.409516357774     0.941149815810     1.007825032230
      Gh(H)           2.473313731799     6.559394876364     0.941403954977     1.007825032230
      Gh(H)           4.600668491381    -5.693665544206     0.941622399623     1.007825032230
      Gh(H)          -2.473318680537     6.559392304576     0.941705301602     1.007825032230
      Gh(H)          -0.000010268228    -6.919817591482     0.945821003362     1.007825032230
      Gh(H)          -5.835301914343     3.187981535266     0.945335475009     1.007825032230
      Gh(H)           2.473307923831    -6.921974789459     0.941512126425     1.007825032230
      Gh(H)          -4.600674841208     5.331088611573     0.941252425333     1.007825032230
      Gh(H)          -5.835279506835    -3.550578378810     0.936717505898     1.007825032230
      Gh(H)          -2.473300347440    -6.921968493170     0.941062809880     1.007825032230
      Gh(H)          -7.073857766768     1.046931057810     0.940770885301     1.007825032230
      Gh(H)          -4.600673786085    -5.693652084817     0.941450091601     1.007825032230
      Gh(H)          -7.073856934409    -1.409510047007     0.941054959344     1.007825032230

  Running in c1 symmetry.

  Rotational constants: A =      0.00137  B =      0.00135  C =      0.00106 [cm^-1]
  Rotational constants: A =     41.04114  B =     40.46889  C =     31.85856 [MHz]
  Nuclear repulsion =  306.774908447733083

  Charge       = 1
  Multiplicity = 1
  Electrons    = 52
  Nalpha       = 26
  Nbeta        = 26

  ==> Algorithm <==

  SCF Algorithm Type is DF.
  DIIS enabled.
  MOM disabled.
  Fractional occupation disabled.
  Guess Type is SAD.
  Energy threshold   = 1.00e-08
  Density threshold  = 1.00e-08
  Integral threshold = 1.00e-12

  ==> Primary Basis <==

  Basis Set: JUN-CC-PVDZ
    Blend: JUN-CC-PVDZ
    Number of shells: 569
    Number of basis functions: 1233
    Number of Cartesian functions: 1294
    Spherical Harmonics?: true
    Max angular momentum: 2

   => Loading Basis Set <=

    Name: (JUN-CC-PVDZ AUX)
    Role: JKFIT
    Keyword: DF_BASIS_SCF
    atoms 1-2, 4-5, 10, 17-70 entry C          line   146 file /home/gridsan/tfroembgen/.conda/envs/psi4test/share/psi4/basis/jun-cc-pvdz-jkfit.gbs 
    atoms 3, 6                entry N          line   202 file /home/gridsan/tfroembgen/.conda/envs/psi4test/share/psi4/basis/jun-cc-pvdz-jkfit.gbs 
    atoms 7-9, 11-16, 71-88   entry H          line    70 file /home/gridsan/tfroembgen/.conda/envs/psi4test/share/psi4/basis/jun-cc-pvdz-jkfit.gbs 

  ==> Integral Setup <==

  ==> DiskDFJK: Density-Fitted J/K Matrices <==

    J tasked:                  Yes
    K tasked:                  Yes
    wK tasked:                  No
    OpenMP threads:             12
    Integrals threads:          12
    Memory [MiB]:            22888
    Algorithm:                Core
    Integral Cache:           LOAD
    Schwarz Cutoff:          1E-12
    Fitting Condition:       1E-10

   => Auxiliary Basis Set <=

  Basis Set: (JUN-CC-PVDZ AUX)
    Blend: JUN-CC-PVDZ-JKFIT
    Number of shells: 1890
    Number of basis functions: 5440
    Number of Cartesian functions: 6226
    Spherical Harmonics?: true
    Max angular momentum: 3

  Minimum eigenvalue in the overlap matrix is 8.3940326347E-10.
  Reciprocal condition number of the overlap matrix is 3.7530084850E-11.
    Using canonical orthogonalization.
  Overall, 14 of 1233 possible MOs eliminated.


  ==> Pre-Iterations <==

  SCF Guess: Superposition of Atomic Densities via on-the-fly atomic UHF (no occupation information).

   -------------------------
    Irrep   Nso     Nmo    
   -------------------------
     A       1233    1219 
   -------------------------
    Total    1233    1219
   -------------------------

  ==> Iterations <==

                           Total Energy        Delta E     RMS |[F,P]|

   @DF-RHF iter SAD:  -303.36534059590485   -3.03365e+02   0.00000e+00 
   @DF-RHF iter   1:  -303.16943223275263    1.95908e-01   3.44075e-04 ADIIS/DIIS
   @DF-RHF iter   2:  -303.28376620417117   -1.14334e-01   1.15867e-04 ADIIS/DIIS
   @DF-RHF iter   3:  -303.29521351314997   -1.14473e-02   4.53227e-05 DIIS
   @DF-RHF iter   4:  -303.29711532005905   -1.90181e-03   9.89170e-06 DIIS
   @DF-RHF iter   5:  -303.29722082131025   -1.05501e-04   2.41144e-06 DIIS
   @DF-RHF iter   6:  -303.29723007493590   -9.25363e-06   6.54208e-07 DIIS
   @DF-RHF iter   7:  -303.29723114714130   -1.07221e-06   3.32145e-07 DIIS
   @DF-RHF iter   8:  -303.29723139958134   -2.52440e-07   1.33655e-07 DIIS
   @DF-RHF iter   9:  -303.29723144803540   -4.84541e-08   3.37123e-08 DIIS
   @DF-RHF iter  10:  -303.29723145086160   -2.82620e-09   1.26657e-08 DIIS
   @DF-RHF iter  11:  -303.29723145110870   -2.47098e-10   2.98523e-09 DIIS
  Energy and wave function converged.


  ==> Post-Iterations <==

    Orbital Energies [Eh]
    ---------------------

    Doubly Occupied:                                                      

       1A    -15.834661     2A    -15.834129     3A    -11.529543  
       4A    -11.459857     5A    -11.458301     6A    -11.449664  
       7A    -11.449550     8A     -1.578218     9A     -1.433810  
      10A     -1.238652    11A     -1.189299    12A     -1.118857  
      13A     -1.022522    14A     -0.996949    15A     -0.917034  
      16A     -0.850515    17A     -0.816245    18A     -0.813188  
      19A     -0.790115    20A     -0.786219    21A     -0.781758  
      22A     -0.729696    23A     -0.725775    24A     -0.717090  
      25A     -0.596291    26A     -0.523845  

    Virtual:                                                              

      27A     -0.073768    28A     -0.070788    29A     -0.058249  
      30A     -0.050911    31A     -0.037561    32A     -0.034508  
      33A     -0.033724    34A     -0.033335    35A     -0.031762  
      36A     -0.023592    37A     -0.021064    38A     -0.017554  
      39A     -0.015221    40A     -0.011990    41A     -0.009117  
      42A     -0.005995    43A     -0.004574    44A     -0.002443  
      45A     -0.000854    46A      0.002739    47A      0.003995  
      48A      0.009255    49A      0.010698    50A      0.014670  
      51A      0.015060    52A      0.018136    53A      0.018818  
      54A      0.023546    55A      0.026278    56A      0.026387  
      57A      0.028593    58A      0.032791    59A      0.034992  
      60A      0.035027    61A      0.039110    62A      0.039262  
      63A      0.039845    64A      0.041754    65A      0.047912  
      66A      0.049756    67A      0.052276    68A      0.053112  
      69A      0.054976    70A      0.056775    71A      0.060371  
      72A      0.062311    73A      0.064070    74A      0.064369  
      75A      0.069374    76A      0.070503    77A      0.071434  
      78A      0.072169    79A      0.072934    80A      0.074808  
      81A      0.076746    82A      0.079535    83A      0.080361  
      84A      0.082364    85A      0.082897    86A      0.083401  
      87A      0.083534    88A      0.087605    89A      0.089903  
      90A      0.090654    91A      0.091575    92A      0.092871  
      93A      0.093744    94A      0.097266    95A      0.098961  
      96A      0.100420    97A      0.100469    98A      0.101534  
      99A      0.102323   100A      0.104069   101A      0.110627  
     102A      0.111433   103A      0.115301   104A      0.116054  
     105A      0.116226   106A      0.116630   107A      0.119766  
     108A      0.119962   109A      0.120711   110A      0.123672  
     111A      0.124317   112A      0.125112   113A      0.125419  
     114A      0.126545   115A      0.129102   116A      0.131657  
     117A      0.131833   118A      0.134644   119A      0.138403  
     120A      0.139955   121A      0.140454   122A      0.140971  
     123A      0.141408   124A      0.143651   125A      0.146780  
     126A      0.147694   127A      0.148151   128A      0.149003  
     129A      0.149486   130A      0.151520   131A      0.152843  
     132A      0.153733   133A      0.154705   134A      0.155491  
     135A      0.156181   136A      0.159143   137A      0.163761  
     138A      0.164241   139A      0.168386   140A      0.168979  
     141A      0.170014   142A      0.170536   143A      0.170661  
     144A      0.173665   145A      0.174593   146A      0.177182  
     147A      0.179631   148A      0.181317   149A      0.181609  
     150A      0.184297   151A      0.184577   152A      0.184880  
     153A      0.186927   154A      0.187574   155A      0.188098  
     156A      0.188225   157A      0.191668   158A      0.195607  
     159A      0.196573   160A      0.197079   161A      0.198011  
     162A      0.198264   163A      0.200673   164A      0.204945  
     165A      0.211700   166A      0.213266   167A      0.214798  
     168A      0.214943   169A      0.218832   170A      0.220802  
     171A      0.221898   172A      0.222150   173A      0.222616  
     174A      0.222733   175A      0.223681   176A      0.224105  
     177A      0.226813   178A      0.227343   179A      0.229131  
     180A      0.229543   181A      0.231497   182A      0.232575  
     183A      0.232794   184A      0.233670   185A      0.238353  
     186A      0.239793   187A      0.241723   188A      0.242702  
     189A      0.246830   190A      0.247819   191A      0.248589  
     192A      0.250057   193A      0.254284   194A      0.254639  
     195A      0.257919   196A      0.258426   197A      0.262710  
     198A      0.267909   199A      0.269238   200A      0.270411  
     201A      0.273943   202A      0.274786   203A      0.276185  
     204A      0.276712   205A      0.277880   206A      0.283302  
     207A      0.286498   208A      0.286907   209A      0.287344  
     210A      0.289183   211A      0.290890   212A      0.292265  
     213A      0.294366   214A      0.297387   215A      0.298154  
     216A      0.298978   217A      0.300366   218A      0.303839  
     219A      0.305372   220A      0.306908   221A      0.307591  
     222A      0.307984   223A      0.310253   224A      0.311488  
     225A      0.314023   226A      0.316853   227A      0.317244  
     228A      0.319160   229A      0.321477   230A      0.324531  
     231A      0.325950   232A      0.332007   233A      0.333369  
     234A      0.335253   235A      0.336919   236A      0.341690  
     237A      0.342386   238A      0.346712   239A      0.348999  
     240A      0.350590   241A      0.352898   242A      0.356023  
     243A      0.360051   244A      0.360265   245A      0.360699  
     246A      0.366092   247A      0.368357   248A      0.369806  
     249A      0.372840   250A      0.373307   251A      0.373336  
     252A      0.375203   253A      0.376216   254A      0.377230  
     255A      0.378033   256A      0.381232   257A      0.385142  
     258A      0.387299   259A      0.388327   260A      0.388442  
     261A      0.391727   262A      0.392493   263A      0.396824  
     264A      0.397412   265A      0.398405   266A      0.398941  
     267A      0.399298   268A      0.400404   269A      0.400799  
     270A      0.401733   271A      0.409127   272A      0.411030  
     273A      0.411658   274A      0.413401   275A      0.415206  
     276A      0.416158   277A      0.418578   278A      0.419036  
     279A      0.419652   280A      0.425159   281A      0.425626  
     282A      0.428358   283A      0.428473   284A      0.429538  
     285A      0.431177   286A      0.433151   287A      0.435460  
     288A      0.437190   289A      0.437405   290A      0.437922  
     291A      0.440320   292A      0.445955   293A      0.450272  
     294A      0.450752   295A      0.453020   296A      0.458190  
     297A      0.460251   298A      0.461038   299A      0.467227  
     300A      0.467893   301A      0.470902   302A      0.471377  
     303A      0.472380   304A      0.473227   305A      0.474397  
     306A      0.476500   307A      0.478908   308A      0.480321  
     309A      0.484448   310A      0.486722   311A      0.488712  
     312A      0.489060   313A      0.489828   314A      0.491485  
     315A      0.494475   316A      0.505804   317A      0.506578  
     318A      0.508234   319A      0.509679   320A      0.514353  
     321A      0.516114   322A      0.516205   323A      0.518047  
     324A      0.518461   325A      0.520071   326A      0.521759  
     327A      0.524123   328A      0.526185   329A      0.528062  
     330A      0.539548   331A      0.540096   332A      0.540809  
     333A      0.541740   334A      0.542020   335A      0.543223  
     336A      0.551982   337A      0.552381   338A      0.556594  
     339A      0.559066   340A      0.559229   341A      0.561186  
     342A      0.562704   343A      0.564130   344A      0.568704  
     345A      0.573835   346A      0.574866   347A      0.576304  
     348A      0.580705   349A      0.582571   350A      0.587531  
     351A      0.587669   352A      0.588231   353A      0.593572  
     354A      0.597395   355A      0.603677   356A      0.605472  
     357A      0.611691   358A      0.617656   359A      0.617957  
     360A      0.618402   361A      0.621541   362A      0.622507  
     363A      0.622755   364A      0.623914   365A      0.628832  
     366A      0.631356   367A      0.631974   368A      0.633367  
     369A      0.636037   370A      0.638494   371A      0.642193  
     372A      0.642752   373A      0.644034   374A      0.646574  
     375A      0.647294   376A      0.648194   377A      0.649826  
     378A      0.650990   379A      0.659615   380A      0.662461  
     381A      0.664860   382A      0.665143   383A      0.665296  
     384A      0.666600   385A      0.672512   386A      0.682062  
     387A      0.687044   388A      0.690760   389A      0.692251  
     390A      0.699265   391A      0.701994   392A      0.702255  
     393A      0.703071   394A      0.705051   395A      0.706124  
     396A      0.706474   397A      0.707488   398A      0.708035  
     399A      0.708780   400A      0.709920   401A      0.713507  
     402A      0.714203   403A      0.714857   404A      0.715906  
     405A      0.717474   406A      0.718512   407A      0.723693  
     408A      0.727620   409A      0.728733   410A      0.729030  
     411A      0.732224   412A      0.735452   413A      0.736951  
     414A      0.737198   415A      0.739112   416A      0.744163  
     417A      0.745311   418A      0.746592   419A      0.748893  
     420A      0.749262   421A      0.757587   422A      0.758943  
     423A      0.761408   424A      0.786723   425A      0.786959  
     426A      0.790399   427A      0.791111   428A      0.792181  
     429A      0.799579   430A      0.800499   431A      0.800863  
     432A      0.810247   433A      0.821576   434A      0.821893  
     435A      0.822274   436A      0.825456   437A      0.827881  
     438A      0.829021   439A      0.831970   440A      0.832560  
     441A      0.839997   442A      0.840105   443A      0.847100  
     444A      0.858456   445A      0.862672   446A      0.864804  
     447A      0.865007   448A      0.889077   449A      0.892465  
     450A      0.900921   451A      0.901095   452A      0.903908  
     453A      0.909797   454A      0.909891   455A      0.918767  
     456A      0.932450   457A      0.941369   458A      0.941744  
     459A      0.944973   460A      0.950126   461A      0.957813  
     462A      0.963608   463A      0.968005   464A      0.968305  
     465A      0.970762   466A      0.982849   467A      0.982923  
     468A      0.984859   469A      1.000054   470A      1.006460  
     471A      1.006589   472A      1.009288   473A      1.009352  
     474A      1.034192   475A      1.038157   476A      1.043986  
     477A      1.044350   478A      1.046370   479A      1.059517  
     480A      1.066546   481A      1.095031   482A      1.095187  
     483A      1.099939   484A      1.101979   485A      1.102090  
     486A      1.106448   487A      1.116130   488A      1.118615  
     489A      1.124085   490A      1.124155   491A      1.126099  
     492A      1.137375   493A      1.137463   494A      1.140117  
     495A      1.141469   496A      1.150310   497A      1.160855  
     498A      1.160869   499A      1.166160   500A      1.169262  
     501A      1.169746   502A      1.228137   503A      1.236293  
     504A      1.236404   505A      1.244088   506A      1.246636  
     507A      1.246810   508A      1.262818   509A      1.262949  
     510A      1.267683   511A      1.269667   512A      1.272472  
     513A      1.282527   514A      1.305177   515A      1.310946  
     516A      1.311045   517A      1.324707   518A      1.349918  
     519A      1.361487   520A      1.383191   521A      1.383477  
     522A      1.400769   523A      1.402123   524A      1.404602  
     525A      1.406679   526A      1.407230   527A      1.409611  
     528A      1.423146   529A      1.423380   530A      1.424142  
     531A      1.465091   532A      1.478219   533A      1.483793  
     534A      1.494956   535A      1.495575   536A      1.497678  
     537A      1.498952   538A      1.503196   539A      1.509161  
     540A      1.518504   541A      1.563556   542A      1.565131  
     543A      1.575130   544A      1.578658   545A      1.587439  
     546A      1.590791   547A      1.600110   548A      1.601675  
     549A      1.603225   550A      1.606967   551A      1.620667  
     552A      1.622833   553A      1.624134   554A      1.630061  
     555A      1.632155   556A      1.642978   557A      1.661521  
     558A      1.669733   559A      1.681880   560A      1.685236  
     561A      1.686289   562A      1.688002   563A      1.690272  
     564A      1.691183   565A      1.691900   566A      1.692920  
     567A      1.699189   568A      1.703003   569A      1.705656  
     570A      1.713835   571A      1.725056   572A      1.730590  
     573A      1.731722   574A      1.732760   575A      1.733541  
     576A      1.736378   577A      1.742771   578A      1.745322  
     579A      1.748170   580A      1.750246   581A      1.751129  
     582A      1.757539   583A      1.759515   584A      1.765620  
     585A      1.765994   586A      1.769347   587A      1.770748  
     588A      1.772200   589A      1.774404   590A      1.774826  
     591A      1.780981   592A      1.784328   593A      1.785777  
     594A      1.786978   595A      1.789266   596A      1.790672  
     597A      1.798593   598A      1.801575   599A      1.801837  
     600A      1.810617   601A      1.813233   602A      1.817338  
     603A      1.819107   604A      1.820815   605A      1.822337  
     606A      1.824154   607A      1.825941   608A      1.828096  
     609A      1.829506   610A      1.835917   611A      1.837271  
     612A      1.845276   613A      1.845751   614A      1.847268  
[...]
     802A      1.676978   803A      1.677058   804A      1.682300  
     805A      1.686710   806A      1.686752   807A      1.696088  
     808A      1.696710   809A      1.699103   810A      1.699369  
     811A      1.700714   812A      1.704779   813A      1.704871  
     814A      1.709314   815A      1.715963   816A      1.716038  
     817A      1.741725   818A      1.751433   819A      1.757463  
     820A      1.760448   821A      1.760459   822A      1.761092  
     823A      1.761761   824A      1.776775   825A      1.776826  
     826A      1.791559   827A      1.791591   828A      1.796701  
     829A      1.806463   830A      1.812152   831A      1.816054  
     832A      1.816747   833A      1.817936   834A      1.818086  
     835A      1.823516   836A      1.824842   837A      1.825160  
     838A      1.831730   839A      1.832213   840A      1.839121  
     841A      1.841419   842A      1.842432   843A      1.843290  
     844A      1.858813   845A      1.861206   846A      1.861393  
     847A      1.861842   848A      1.864211   849A      1.867170  
     850A      1.868970   851A      1.873088   852A      1.880234  
     853A      1.880340   854A      1.895263   855A      1.896494  
     856A      1.897368   857A      1.899201   858A      1.900032  
     859A      1.903117   860A      1.903191   861A      1.908896  
     862A      1.909054   863A      1.915046   864A      1.915975  
     865A      1.916535   866A      1.917774   867A      1.917897  
     868A      1.919613   869A      1.922169   870A      1.922247  
     871A      1.940956   872A      1.941686   873A      1.942315  
     874A      1.943009   875A      1.944109   876A      1.947045  
     877A      1.947080   878A      1.954667   879A      1.954984  
     880A      1.955357   881A      1.955694   882A      1.958040  
     883A      1.970404   884A      1.983499   885A      1.983545  
     886A      1.990403   887A      1.997192   888A      1.998113  
     889A      1.998812   890A      2.000220   891A      2.006566  
     892A      2.008152   893A      2.012360   894A      2.012845  
     895A      2.018419   896A      2.027892   897A      2.028794  
     898A      2.029441   899A      2.030532   900A      2.030779  
     901A      2.031396   902A      2.031794   903A      2.037285  
     904A      2.040347   905A      2.048401   906A      2.050713  
     907A      2.052623   908A      2.052724   909A      2.057873  
     910A      2.057981   911A      2.060126   912A      2.060240  
     913A      2.063612   914A      2.069141   915A      2.070967  
     916A      2.071578   917A      2.071922   918A      2.076230  
     919A      2.077110   920A      2.081601   921A      2.084744  
     922A      2.085836   923A      2.087446   924A      2.090805  
     925A      2.093928   926A      2.094988   927A      2.096912  
     928A      2.097167   929A      2.100689   930A      2.100916  
     931A      2.108356   932A      2.108479   933A      2.108846  
     934A      2.110163   935A      2.110665   936A      2.112246  
     937A      2.114935   938A      2.115733   939A      2.119228  
     940A      2.119449   941A      2.120939   942A      2.121513  
     943A      2.125542   944A      2.126857   945A      2.127522  
     946A      2.133554   947A      2.134721   948A      2.135836  
     949A      2.135923   950A      2.139491   951A      2.143219  
     952A      2.143259   953A      2.155031   954A      2.155888  
     955A      2.160116   956A      2.160336   957A      2.162927  
     958A      2.163525   959A      2.171268   960A      2.177986  
     961A      2.178432   962A      2.180183   963A      2.190364  
     964A      2.190685   965A      2.191334   966A      2.192525  
     967A      2.194127   968A      2.195782   969A      2.195954  
     970A      2.199687   971A      2.200872   972A      2.216105  
     973A      2.219692   974A      2.220344   975A      2.220617  
     976A      2.228219   977A      2.228533   978A      2.228700  
     979A      2.228787   980A      2.243224   981A      2.243486  
     982A      2.244092   983A      2.244366   984A      2.246013  
     985A      2.247177   986A      2.260195   987A      2.260320  
     988A      2.269925   989A      2.270185   990A      2.270458  
     991A      2.272140   992A      2.272187   993A      2.280452  
     994A      2.281195   995A      2.300277   996A      2.301188  
     997A      2.306693   998A      2.310731   999A      2.312444  
    1000A      2.321357  1001A      2.322192  1002A      2.323288  
    1003A      2.331033  1004A      2.331115  1005A      2.331150  
    1006A      2.333976  1007A      2.346343  1008A      2.348503  
    1009A      2.351038  1010A      2.351845  1011A      2.352464  
    1012A      2.353233  1013A      2.366543  1014A      2.366773  
    1015A      2.375090  1016A      2.380041  1017A      2.391074  
    1018A      2.415923  1019A      2.424034  1020A      2.424416  
    1021A      2.424452  1022A      2.436470  1023A      2.441153  
    1024A      2.441226  1025A      2.448257  1026A      2.451485  
    1027A      2.459639  1028A      2.470155  1029A      2.471324  
    1030A      2.473114  1031A      2.473460  1032A      2.478683  
    1033A      2.485691  1034A      2.485714  1035A      2.502328  
    1036A      2.513867  1037A      2.519560  1038A      2.529864  
    1039A      2.530296  1040A      2.543517  1041A      2.545496  
    1042A      2.545879  1043A      2.554654  1044A      2.554689  
    1045A      2.554841  1046A      2.559876  1047A      2.559885  
    1048A      2.573002  1049A      2.573042  1050A      2.574823  
    1051A      2.575334  1052A      2.580314  1053A      2.586370  
    1054A      2.586527  1055A      2.587406  1056A      2.589838  
    1057A      2.591429  1058A      2.606233  1059A      2.623618  
    1060A      2.623626  1061A      2.625173  1062A      2.631746  
    1063A      2.632223  1064A      2.635930  1065A      2.641223  
    1066A      2.641397  1067A      2.647922  1068A      2.650879  
    1069A      2.651665  1070A      2.653111  1071A      2.657003  
    1072A      2.661367  1073A      2.676441  1074A      2.682416  
    1075A      2.683397  1076A      2.684040  1077A      2.687247  
    1078A      2.702064  1079A      2.702471  1080A      2.713040  
    1081A      2.713048  1082A      2.718739  1083A      2.718749  
    1084A      2.722804  1085A      2.723009  1086A      2.737607  
    1087A      2.740105  1088A      2.748972  1089A      2.752845  
    1090A      2.753356  1091A      2.768245  1092A      2.777411  
    1093A      2.794822  1094A      2.795091  1095A      2.809384  
    1096A      2.816436  1097A      2.827145  1098A      2.828065  
    1099A      2.838941  1100A      2.852381  1101A      2.852572  
    1102A      2.856056  1103A      2.858352  1104A      2.859560  
    1105A      2.860275  1106A      2.867413  1107A      2.879597  
    1108A      2.892361  1109A      2.911349  1110A      2.917591  
    1111A      2.918098  1112A      2.923716  1113A      2.924814  
    1114A      2.933704  1115A      2.933947  1116A      2.949700  
    1117A      2.949729  1118A      2.952085  1119A      2.962968  
    1120A      2.974610  1121A      3.001018  1122A      3.007494  
    1123A      3.007943  1124A      3.011888  1125A      3.015228  
    1126A      3.029591  1127A      3.042592  1128A      3.064236  
    1129A      3.064355  1130A      3.070865  1131A      3.070960  
    1132A      3.109563  1133A      3.110248  1134A      3.128614  
    1135A      3.129680  1136A      3.130126  1137A      3.137475  
    1138A      3.142478  1139A      3.146617  1140A      3.146637  
    1141A      3.146854  1142A      3.149283  1143A      3.149314  
    1144A      3.158181  1145A      3.158643  1146A      3.166035  
    1147A      3.166516  1148A      3.191750  1149A      3.211196  
    1150A      3.218841  1151A      3.237788  1152A      3.273693  
    1153A      3.277002  1154A      3.277331  1155A      3.282101  
    1156A      3.282300  1157A      3.286275  1158A      3.309798  
    1159A      3.321528  1160A      3.408313  1161A      3.416488  
    1162A      3.417101  1163A      3.443165  1164A      3.481702  
    1165A      3.484147  1166A      3.523782  1167A      3.549569  
    1168A      3.570647  1169A      3.577282  1170A      3.579235  
    1171A      3.593926  1172A      3.626538  1173A      3.628546  
    1174A      3.644344  1175A      3.663003  1176A      3.669227  
    1177A      3.756991  1178A      3.769252  1179A      3.782752  
    1180A      3.783928  1181A      3.815355  1182A      3.867582  
    1183A      3.870790  1184A      3.870857  1185A      3.913221  
    1186A      3.913352  1187A      3.961614  1188A      3.976936  
    1189A      4.010908  1190A      4.033096  1191A      4.045806  
    1192A      4.081167  1193A      4.205738  1194A      4.209554  
    1195A      4.347744  1196A      4.360764  1197A      4.487190  
    1198A      4.738609  1199A      4.775802  1200A      4.830519  
    1201A      4.846160  1202A      4.935547  1203A      5.050982  
    1204A      5.056538  1205A      5.065850  1206A      5.110387  
    1207A      5.135329  1208A      5.391918  1209A      5.421891  
    1210A      5.732004  1211A      5.757039  1212A      6.066822  
    1213A     18.197803  1214A     18.454499  1215A     18.471337  
    1216A     18.559654  1217A     18.830564  1218A     25.338510  
    1219A     25.374419  

    Final Occupation by Irrep:
              A 
    DOCC [   171 ]
    NA   [   171 ]
    NB   [   171 ]

  @DF-RHF Final Energy: -2055.89193609735003

   => Energetics <=

    Nuclear Repulsion Energy =           6452.5568002797781446
    One-Electron Energy =              -15636.4357440214134840
    Two-Electron Energy =                7127.9870076442839490
    Total Energy =                      -2055.8919360973504808

Computation Completed


Properties will be evaluated at   0.000000,   0.000000,   0.000000 [a0]

Properties computed using the SCF density matrix


 Multipole Moments:

 ------------------------------------------------------------------------------------
     Multipole            Electronic (a.u.)      Nuclear  (a.u.)        Total (a.u.)
 ------------------------------------------------------------------------------------

 L = 1.  Multiply by 2.5417464519 to convert [e a0] to [Debye]
 Dipole X            :          0.0001191           -0.0000085            0.0001106
 Dipole Y            :        117.1658296         -117.1648546            0.0009750
 Dipole Z            :       -608.2998222          608.3041468            0.0043245
 Magnitude           :                                                    0.0044344

 ------------------------------------------------------------------------------------

*** tstop() called on d-16-5-1 at Mon Jan 22 22:31:17 2024
Module time:
	user time   =    2522.36 seconds =      42.04 minutes
	system time =      50.24 seconds =       0.84 minutes
	total time  =        267 seconds =       4.45 minutes
Total time:
	user time   =    7823.68 seconds =     130.39 minutes
	system time =     130.02 seconds =       2.17 minutes
	total time  =        831 seconds =      13.85 minutes
  Constructing Basis Sets for SAPT...

   => Loading Basis Set <=

    Name: (JUN-CC-PVDZ AUX)
    Role: RIFIT
    Keyword: DF_BASIS_SAPT
    atoms 1-2, 4-5, 10, 17-70 entry C          line   100 file /home/gridsan/tfroembgen/.conda/envs/psi4test/share/psi4/basis/jun-cc-pvdz-ri.gbs 
    atoms 3, 6                entry N          line   144 file /home/gridsan/tfroembgen/.conda/envs/psi4test/share/psi4/basis/jun-cc-pvdz-ri.gbs 
    atoms 7-9, 11-16, 71-88   entry H          line    30 file /home/gridsan/tfroembgen/.conda/envs/psi4test/share/psi4/basis/jun-cc-pvdz-ri.gbs 

   => Loading Basis Set <=

    Name: (JUN-CC-PVDZ AUX)
    Role: JKFIT
    Keyword: DF_BASIS_ELST
    atoms 1-2, 4-5, 10, 17-70 entry C          line   146 file /home/gridsan/tfroembgen/.conda/envs/psi4test/share/psi4/basis/jun-cc-pvdz-jkfit.gbs 
    atoms 3, 6                entry N          line   202 file /home/gridsan/tfroembgen/.conda/envs/psi4test/share/psi4/basis/jun-cc-pvdz-jkfit.gbs 
    atoms 7-9, 11-16, 71-88   entry H          line    70 file /home/gridsan/tfroembgen/.conda/envs/psi4test/share/psi4/basis/jun-cc-pvdz-jkfit.gbs 


  //>>>>>>>>>>>>>>>>>>>>>>>>>>>>>>>>>>>//
  //               SSAPT0              //
  //<<<<<<<<<<<<<<<<<<<<<<<<<<<<<<<<<<<//


*** tstart() called on d-16-5-1
*** at Mon Jan 22 22:31:18 2024

        SAPT0  
    Ed Hohenstein
     6 June 2009

      Orbital Information
  --------------------------
    NSO        =      1233
    NMO        =      1219
    NRI        =      4343
    NRI (Elst) =      5440
    NOCC A     =        26
    NOCC B     =       171
    FOCC A     =         7
    FOCC B     =        54
    NVIR A     =      1193
    NVIR B     =      1048

    Elst10,r            =    -0.007064965054 [Eh]
    Exch10              =    -0.000000146532 [Eh]
    Exch10 (S^2)        =    -0.000000146532 [Eh]

    Iter     Energy [mEh]          dE [mEh]         Residual      Time [s]
       1      -0.01951772       0.019517718       1.314640067           630
       2      -0.01854749      -0.000970232       0.348473808          1578
       3      -0.02042890       0.001881415       0.098067008          2043
       4      -0.02054873       0.000119833       0.044903723          2376
       5      -0.02046142      -0.000087313       0.014198710          2709
       6      -0.02045941      -0.000002013       0.004352770          2960
       7      -0.02046510       0.000005693       0.001455458          3316
       8      -0.02046641       0.000001313       0.000363182          3570
       9      -0.02046620      -0.000000216       0.000129056          3907
      10      -0.02046606      -0.000000134       0.000033675          4191
      11      -0.02046607       0.000000009       0.000009343          4332
      12      -0.02046608       0.000000007       0.000003154          4504
      13      -0.02046608       0.000000001       0.000001055          4812
      14      -0.02046608      -0.000000001       0.000000222          5224

    CHF Iterations converged


    Iter     Energy [mEh]          dE [mEh]         Residual      Time [s]
       1      -3.15298073       3.152980729      28.966103641           274
       2      -2.16135519      -0.991625536       3.676823770           497
       3      -2.16505639       0.003701196       1.362665181           520
       4      -2.21781389       0.052757506       0.342280790           543
       5      -2.22063793       0.002824030       0.121400688           566
       6      -2.21899090      -0.001647030       0.070931145           589
       7      -2.21851002      -0.000480878       0.035385948           610
       8      -2.21887462       0.000364602       0.022831781           634
       9      -2.21901964       0.000145018       0.014191964           655
      10      -2.21893994      -0.000079693       0.009437410           676
      11      -2.21888830      -0.000051639       0.003803084           697
      12      -2.21890082       0.000012520       0.001600868           718
      13      -2.21890823       0.000007408       0.000650931           739
      14      -2.21890796      -0.000000269       0.000302118           759
      15      -2.21890634      -0.000001624       0.000160969           781
      16      -2.21890597      -0.000000374       0.000072207           890
      17      -2.21890647       0.000000502       0.000030932           944
      18      -2.21890650       0.000000032       0.000015196           964
      19      -2.21890643      -0.000000072       0.000007764           983
      20      -2.21890642      -0.000000013       0.000002777          1001
      21      -2.21890642       0.000000009       0.000001197          1023
      22      -2.21890643       0.000000004       0.000000457          1050

    CHF Iterations converged

    Ind20,r (A<-B)      =    -0.000020466080 [Eh]
    Ind20,r (B<-A)      =    -0.002218906429 [Eh]
    Ind20,r             =    -0.002239372508 [Eh]
    Exch-Ind20,r (A<-B) =     0.000000029284 [Eh]
    Exch-Ind20,r (B<-A) =     0.000000340895 [Eh]
    Exch-Ind20,r        =     0.000000370179 [Eh]
    Disp20              =    -0.001144543643 [Eh]
    Disp20 (SS)         =    -0.000572271822 [Eh]
    Disp20 (OS)         =    -0.000572271822 [Eh]
    Exch-Disp20         =     0.000000139421 [Eh]
    Exch-Disp20 (SS)    =     0.000000105489 [Eh]
    Exch-Disp20 (OS)    =     0.000000033932 [Eh]

    SAPT Results 
  --------------------------------------------------------------------------------------------------------
    Electrostatics                 -7.06496505 [mEh]      -4.43333250 [kcal/mol]     -18.54906319 [kJ/mol]
      Elst10,r                     -7.06496505 [mEh]      -4.43333250 [kcal/mol]     -18.54906319 [kJ/mol]

    Exchange                       -0.00014653 [mEh]      -0.00009195 [kcal/mol]      -0.00038472 [kJ/mol]
      Exch10                       -0.00014653 [mEh]      -0.00009195 [kcal/mol]      -0.00038472 [kJ/mol]
      Exch10(S^2)                  -0.00014653 [mEh]      -0.00009195 [kcal/mol]      -0.00038472 [kJ/mol]

    Induction                      -2.28295048 [mEh]      -1.43257305 [kcal/mol]      -5.99388565 [kJ/mol]
      Ind20,r                      -2.23937251 [mEh]      -1.40522746 [kcal/mol]      -5.87947171 [kJ/mol]
      Exch-Ind20,r                  0.00037018 [mEh]       0.00023229 [kcal/mol]       0.00097191 [kJ/mol]
      delta HF,r (2)               -0.04394815 [mEh]      -0.02757788 [kcal/mol]      -0.11538584 [kJ/mol]

    Dispersion                     -1.14440422 [mEh]      -0.71812449 [kcal/mol]      -3.00463287 [kJ/mol]
      Disp20                       -1.14454364 [mEh]      -0.71821198 [kcal/mol]      -3.00499892 [kJ/mol]
      Exch-Disp20                   0.00013942 [mEh]       0.00008749 [kcal/mol]       0.00036605 [kJ/mol]
      Disp20 (SS)                  -0.57227182 [mEh]      -0.35910599 [kcal/mol]      -1.50249946 [kJ/mol]
      Disp20 (OS)                  -0.57227182 [mEh]      -0.35910599 [kcal/mol]      -1.50249946 [kJ/mol]
      Exch-Disp20 (SS)              0.00010549 [mEh]       0.00006620 [kcal/mol]       0.00027696 [kJ/mol]
      Exch-Disp20 (OS)              0.00003393 [mEh]       0.00002129 [kcal/mol]       0.00008909 [kJ/mol]

  Total HF                         -9.34806206 [mEh]      -5.86599750 [kcal/mol]     -24.54333356 [kJ/mol]
  Total SAPT0                     -10.49246628 [mEh]      -6.58412200 [kcal/mol]     -27.54796643 [kJ/mol]

  Special recipe for scaled SAPT0 (see Manual):
    Electrostatics sSAPT0          -7.06496505 [mEh]      -4.43333250 [kcal/mol]     -18.54906319 [kJ/mol]
    Exchange sSAPT0                -0.00014653 [mEh]      -0.00009195 [kcal/mol]      -0.00038472 [kJ/mol]
    Induction sSAPT0               -2.28295048 [mEh]      -1.43257305 [kcal/mol]      -5.99388565 [kJ/mol]
    Dispersion sSAPT0              -1.14440422 [mEh]      -0.71812449 [kcal/mol]      -3.00463287 [kJ/mol]
  Total sSAPT0                    -10.49246628 [mEh]      -6.58412200 [kcal/mol]     -27.54796643 [kJ/mol]
  --------------------------------------------------------------------------------------------------------

*** tstop() called on d-16-5-1 at Tue Jan 23 00:49:25 2024
Module time:
	user time   =    8717.29 seconds =     145.29 minutes
	system time =     973.94 seconds =      16.23 minutes
	total time  =       8287 seconds =     138.12 minutes
Total time:
	user time   =   16542.14 seconds =     275.70 minutes
	system time =    1103.99 seconds =      18.40 minutes
	total time  =       9119 seconds =     151.98 minutes

    Psi4 stopped on: Tuesday, 23 January 2024 12:49AM
    Psi4 wall time for execution: 2:32:00.72

*** Psi4 exiting successfully. Buy a developer a beer!
