
    -----------------------------------------------------------------------
          Psi4: An Open-Source Ab Initio Electronic Structure Package
                               Psi4 1.9 release

                         Git: Rev {} zzzzzzz 


    D. G. A. Smith, L. A. Burns, A. C. Simmonett, R. M. Parrish,
    M. C. Schieber, R. Galvelis, P. Kraus, H. Kruse, R. Di Remigio,
    A. Alenaizan, A. M. James, S. Lehtola, J. P. Misiewicz, M. Scheurer,
    R. A. Shaw, J. B. Schriber, Y. Xie, Z. L. Glick, D. A. Sirianni,
    J. S. O'Brien, J. M. Waldrop, A. Kumar, E. G. Hohenstein,
    B. P. Pritchard, B. R. Brooks, H. F. Schaefer III, A. Yu. Sokolov,
    K. Patkowski, A. E. DePrince III, U. Bozkaya, R. A. King,
    F. A. Evangelista, J. M. Turney, T. D. Crawford, C. D. Sherrill,
    J. Chem. Phys. 152(18) 184108 (2020). https://doi.org/10.1063/5.0006002

                            Additional Code Authors
    E. T. Seidl, C. L. Janssen, E. F. Valeev, M. L. Leininger,
    J. F. Gonthier, R. M. Richard, H. R. McAlexander, M. Saitow, X. Wang,
    P. Verma, M. H. Lechner, A. Jiang, S. Behnle, A. G. Heide,
    M. F. Herbst, and D. L. Poole

             Previous Authors, Complete List of Code Contributors,
                       and Citations for Specific Modules
    https://github.com/psi4/psi4/blob/master/codemeta.json
    https://github.com/psi4/psi4/graphs/contributors
    http://psicode.org/psi4manual/master/introduction.html#citing-psifour

    -----------------------------------------------------------------------


    Psi4 started on: Monday, 22 January 2024 05:07PM

    Process ID: 1104181
    Host:       d-3-8-3
    PSIDATADIR: /home/gridsan/tfroembgen/.conda/envs/psi4test/share/psi4
    Memory:     500.0 MiB
    Threads:    12
    
  ==> Input File <==

--------------------------------------------------------------------------
memory 32 GB # how much memory is available ! Depends on the nodes/cores !

molecule dimer {
# monomer A
+1 1    # Charge and multiplicity
C  0.680067 -1.215929 7.008042
C -0.680504 -1.215545 7.006014
N -1.085635  0.102779 7.005016
C  0.000108  0.884180 7.001740
C -2.477365  0.570758 6.955610
N  1.085222  0.102779 7.005016
H  1.385146 -2.033368 7.015870
H -1.385302 -2.033214 7.006204
H -0.000009  1.965269 6.999993
C  2.478117  0.567877 7.021908
H  2.490592  1.658130 6.994563
H  2.967028  0.220701 7.935354
H  3.001428  0.176405 6.146425
H -2.857359  0.490799 5.933539
H -3.082679 -0.042306 7.625694
H -2.518128  1.610706 7.282594
--
# monomer B
0 1     # Charge and multiplicity
C   1.22531237526482      0.70753866091955      0.00613762728373
C   1.22532433589282     -0.70753852257020     -0.00619318228664
C   -0.00000567409046      1.41496628609039     -0.00672680580738
C   2.45644923379077      1.41832825917820      0.00902448468363
C   0.00001130712078     -1.41497612663474      0.00347275151708
C   -1.22530046906674      0.70754574598412      0.00838914760619
C   2.45643823516184     -1.41832293188077     -0.00843833914343
C   -0.00000085313587      2.83680140328112     -0.00913035594137
C   3.68182717731192      0.70931832800114     -0.00808954934571
C   2.45512052870677      2.83422403348893     -0.00819210630633
C   3.68182158506039     -0.70933346742900      0.00798293467272
C   -1.22531311884624     -0.70752714354401     -0.00512042085974
C   1.22670006104402      3.54346985599427      0.00816696660346
C   0.00000526469929     -2.83678176723568      0.00832091913869
C   -2.45643555300670      1.41831729028492      0.00842454345199
C   2.45512389762097     -2.83422965658853      0.00783102630520
C   -1.22671388474763      3.54346943575023      0.00827029982280
C   4.91451777504333      1.42717324448953     -0.00160886631602
C   3.69315067131765      3.54279566454522     -0.00155906667985
C   -2.45643712022637     -1.41831290883911     -0.00846337726810
C   1.22670532178455     -3.54347386990643     -0.00780316414624
C   -2.45512491866593      2.83421703463423     -0.00818572995999
C   4.91452486062398     -1.42718653794377      0.00136387641845
C   1.22142509354026      4.97013443726031      0.00150231067809
C   4.89300870916237      2.82518837202648     -0.00039219795739
C   -1.22669652864725     -3.54347062507680     -0.00753595973677
C   -3.68181849668397      0.70932533873199     -0.00807686886569
C   3.69314758099218     -3.54280096939050      0.00148176697923
C   -1.22143177215231      4.97012866986289      0.00168580605083
C   6.13477145276790      0.68054831910577     -0.00083909176631
C   3.65678936045204      4.97295361556775     -0.00065042889723
C   -2.45512642789169     -2.83421472106065      0.00758666850712
C   -3.68181869921921     -0.70932533146830      0.00810055625144
C   4.89301309775526     -2.82519973363176      0.00021895393805
C   -0.00000059327114      5.65044773803267      0.00045449734393
C   6.13477559217374     -0.68055448207492      0.00042622874941
C   2.47813196269732      5.65357712333155      0.00063835075260
C   1.22142288457925     -4.97012668293268     -0.00129718634452
C   -3.69316190412301      3.54279732619245     -0.00139355922051
C   -1.22142804110313     -4.97011793159564     -0.00140994817719
C   -4.91452132810043      1.42717581899491     -0.00153192130862
C   3.65678749952045     -4.97295485423912      0.00080007163680
C   -2.47813805026426      5.65357479452875      0.00092287576113
C   -3.69314125872231     -3.54278984697859      0.00136564082345
C   -4.91451200321153     -1.42718062802730      0.00139857359209
C   -0.00000552908399     -5.65043791501335      0.00005899322272
C   -4.89302000425900      2.82518897091939     -0.00040227981744
C   2.47812647313991     -5.65357317188818     -0.00029052915548
C   -3.65679823041642      4.97295655404175     -0.00047374852278
C   -4.89299899901461     -2.82519139505969      0.00006491824035
C   -2.47812801824129     -5.65356579800621     -0.00056571680280
C   -6.13477002348955      0.68054913825639     -0.00086464346868
C   -3.65678835334731     -4.97294365097028      0.00058578382008
C   -6.13476456307132     -0.68055354348201      0.00040575295444
H   5.83528897565761      3.36927626695423      0.00396712770529
H   7.07385965258860      1.22821762089947     -0.00037744837300
H   4.60066374401555      5.51238117445323     -0.00014522814529
H   5.83528386714679     -3.36930568472863     -0.00423551337640
H   -0.00001167146422      6.73853104613662     -0.00389474766392
H   7.07386165167227     -1.22822657074368     -0.00008250934481
H   2.47331421164041      6.74068466339473      0.00017162982210
H   4.60066897122302     -5.51237575717576      0.00039007446835
H   -2.47331820069565      6.74068209160650      0.00047297644710
H   -0.00000978838621     -6.73852780445195      0.00458867820736
H   -5.83530143450167      3.36927132229595      0.00410314985360
H   2.47330840367253     -6.74068500242887      0.00027980126949
H   -4.60067436136587      5.51237839860371      0.00002010017831
H   -5.83527902699321     -3.36928859177951     -0.00451481925734
H   -2.47329986759855     -6.74067870613986     -0.00016951527498
H   -7.07385728692578      1.22822084484047     -0.00046143985387
H   -4.60067330624313     -5.51236229778631      0.00021776644566
H   -7.07385645456741     -1.22822025997701     -0.00017736581114

    units angstrom      # Angstroms are the default
    no_reorient         # Geometry fixed, default
    symmetry c1         # C1 symmetry, default
}

set {
    scf_type DF         # Density fitting, faster than exact integrals
    freeze_core True    # Freeze core electrons
    basis jun-cc-pVDZ   # Jun-cc-pVDZ basis set, recommended for sSAPT0 in https://doi.org/10.1063/1.4867135
}

energy('ssapt0')        # Compute sSAPT0 energy, includes also SAPT0
--------------------------------------------------------------------------

  Memory set to  29.802 GiB by Python driver.

Scratch directory: /state/partition1/slurm_tmp/24798255.4294967291.0/
   => Loading Basis Set <=

    Name: JUN-CC-PVDZ
    Role: ORBITAL
    Keyword: BASIS
    atoms 1-2, 4-5, 10, 17-70 entry C          line   164 file /home/gridsan/tfroembgen/.conda/envs/psi4test/share/psi4/basis/jun-cc-pvdz.gbs 
    atoms 3, 6                entry N          line   198 file /home/gridsan/tfroembgen/.conda/envs/psi4test/share/psi4/basis/jun-cc-pvdz.gbs 
    atoms 7-9, 11-16, 71-88   entry H          line    36 file /home/gridsan/tfroembgen/.conda/envs/psi4test/share/psi4/basis/jun-cc-pvdz.gbs 

   => Loading Basis Set <=

    Name: JUN-CC-PVDZ
    Role: ORBITAL
    Keyword: BASIS
    atoms 1-2, 4-5, 10, 17-70 entry C          line   164 file /home/gridsan/tfroembgen/.conda/envs/psi4test/share/psi4/basis/jun-cc-pvdz.gbs 
    atoms 3, 6                entry N          line   198 file /home/gridsan/tfroembgen/.conda/envs/psi4test/share/psi4/basis/jun-cc-pvdz.gbs 
    atoms 7-9, 11-16, 71-88   entry H          line    36 file /home/gridsan/tfroembgen/.conda/envs/psi4test/share/psi4/basis/jun-cc-pvdz.gbs 


  //>>>>>>>>>>>>>>>>>>>>>>>>>>>>>>>>>>>//
  //              Dimer HF             //
  //<<<<<<<<<<<<<<<<<<<<<<<<<<<<<<<<<<<//

   => Libint2 <=

    Primary   basis highest AM E, G, H:  7, 7, 4
    Auxiliary basis highest AM E, G, H:  7, 7, 5
    Onebody   basis highest AM E, G, H:  7, 7, 5
    Solid Harmonics ordering:            gaussian

*** tstart() called on d-3-8-3
*** at Mon Jan 22 17:07:36 2024

   => Loading Basis Set <=

    Name: JUN-CC-PVDZ
    Role: ORBITAL
    Keyword: BASIS
    atoms 1-2, 4-5, 10, 17-70 entry C          line   164 file /home/gridsan/tfroembgen/.conda/envs/psi4test/share/psi4/basis/jun-cc-pvdz.gbs 
    atoms 3, 6                entry N          line   198 file /home/gridsan/tfroembgen/.conda/envs/psi4test/share/psi4/basis/jun-cc-pvdz.gbs 
    atoms 7-9, 11-16, 71-88   entry H          line    36 file /home/gridsan/tfroembgen/.conda/envs/psi4test/share/psi4/basis/jun-cc-pvdz.gbs 


         ---------------------------------------------------------
                                   SCF
               by Justin Turney, Rob Parrish, Andy Simmonett
                          and Daniel G. A. Smith
                              RHF Reference
                       12 Threads,  30517 MiB Core
         ---------------------------------------------------------

  ==> Geometry <==

    Molecular point group: c1
    Full point group: C1

    Geometry (in Angstrom), charge = 1, multiplicity = 1:

       Center              X                  Y                   Z               Mass       
    ------------   -----------------  -----------------  -----------------  -----------------
         C            0.680066520158    -1.215933861162     6.117687130837    12.000000000000
         C           -0.680504479842    -1.215549861162     6.115659130837    12.000000000000
         N           -1.085635479842     0.102774138838     6.114661130837    14.003074004430
         C            0.000107520158     0.884175138838     6.111385130837    12.000000000000
         C           -2.477365479842     0.570753138838     6.065255130837    12.000000000000
         N            1.085221520158     0.102774138838     6.114661130837    14.003074004430
         H            1.385145520158    -2.033372861162     6.125515130837     1.007825032230
         H           -1.385302479842    -2.033218861162     6.115849130837     1.007825032230
         H           -0.000009479842     1.965264138838     6.109638130837     1.007825032230
         C            2.478116520158     0.567872138838     6.131553130837    12.000000000000
         H            2.490591520158     1.658125138838     6.104208130837     1.007825032230
         H            2.967027520158     0.220696138838     7.044999130837     1.007825032230
         H            3.001427520158     0.176400138838     5.256070130837     1.007825032230
         H           -2.857359479842     0.490794138838     5.043184130837     1.007825032230
         H           -3.082679479842    -0.042310861162     6.735339130837     1.007825032230
         H           -2.518128479842     1.610701138838     6.392239130837     1.007825032230
         C            1.225311895423     0.707533799757    -0.884217241879    12.000000000000
         C            1.225323856051    -0.707543383733    -0.896548051449    12.000000000000
         C           -0.000006153932     1.414961424928    -0.897081674970    12.000000000000
         C            2.456448753949     1.418323398016    -0.881330384479    12.000000000000
         C            0.000010827279    -1.414980987797    -0.886882117646    12.000000000000
         C           -1.225300948908     0.707540884822    -0.881965721556    12.000000000000
         C            2.456437755320    -1.418327793043    -0.898793208306    12.000000000000
         C           -0.000001332978     2.836796542119    -0.899485225104    12.000000000000
         C            3.681826697470     0.709313466839    -0.898444418508    12.000000000000
         C            2.455120048865     2.834219172327    -0.898546975469    12.000000000000
         C            3.681821105219    -0.709338328591    -0.882371934490    12.000000000000
         C           -1.225313598688    -0.707532004706    -0.895475290022    12.000000000000
         C            1.226699581202     3.543464994832    -0.882187902559    12.000000000000
         C            0.000004784858    -2.836786628398    -0.882033950024    12.000000000000
         C           -2.456436032848     1.418312429123    -0.881930325711    12.000000000000
         C            2.455123417779    -2.834234517751    -0.882523842857    12.000000000000
         C           -1.226714364589     3.543464574588    -0.882084569340    12.000000000000
         C            4.914517295202     1.427168383327    -0.891963735479    12.000000000000
         C            3.693150191476     3.542790803383    -0.891913935842    12.000000000000
         C           -2.456437600068    -1.418317770001    -0.898818246431    12.000000000000
         C            1.226704841943    -3.543478731069    -0.898158033309    12.000000000000
         C           -2.455125398508     2.834212173472    -0.898540599123    12.000000000000
         C            4.914524380782    -1.427191399106    -0.888990992744    12.000000000000
         C            1.221424613699     4.970129576098    -0.888852558484    12.000000000000
         C            4.893008229321     2.825183510864    -0.890747067120    12.000000000000
         C           -1.226697008489    -3.543475486239    -0.897890828899    12.000000000000
         C           -3.681818976526     0.709320477570    -0.898431738028    12.000000000000
         C            3.693147101150    -3.542805830553    -0.888873102183    12.000000000000
         C           -1.221432251994     4.970123808701    -0.888669063112    12.000000000000
         C            6.134770972926     0.680543457943    -0.891193960929    12.000000000000
         C            3.656788880610     4.972948754405    -0.891005298060    12.000000000000
         C           -2.455126907733    -2.834219582223    -0.882768200655    12.000000000000
         C           -3.681819179061    -0.709330192631    -0.882254312911    12.000000000000
         C            4.893012617914    -2.825204594794    -0.890135915225    12.000000000000
         C           -0.000001073113     5.650442876870    -0.889900371819    12.000000000000
         C            6.134775112332    -0.680559343237    -0.889928640413    12.000000000000
         C            2.478131482856     5.653572262169    -0.889716518410    12.000000000000
         C            1.221422404738    -4.970131544095    -0.891652055507    12.000000000000
         C           -3.693162383965     3.542792465030    -0.891748428383    12.000000000000
         C           -1.221428520945    -4.970122792758    -0.891764817340    12.000000000000
         C           -4.914521807942     1.427170957833    -0.891886790471    12.000000000000
         C            3.656787019679    -4.972959715401    -0.889554797526    12.000000000000
         C           -2.478138530106     5.653569933366    -0.889431993401    12.000000000000
         C           -3.693141738564    -3.542794708141    -0.888989228339    12.000000000000
         C           -4.914512483053    -1.427185489190    -0.888956295570    12.000000000000
         C           -0.000006008926    -5.650442776176    -0.890295875940    12.000000000000
         C           -4.893020484101     2.825184109757    -0.890757148980    12.000000000000
         C            2.478125993298    -5.653578033051    -0.890645398318    12.000000000000
         C           -3.656798710258     4.972951692879    -0.890828617685    12.000000000000
         C           -4.892999478856    -2.825196256222    -0.890289950922    12.000000000000
         C           -2.478128498083    -5.653570659169    -0.890920585965    12.000000000000
         C           -6.134770503331     0.680544277094    -0.891219512631    12.000000000000
         C           -3.656788833189    -4.972948512133    -0.889769085343    12.000000000000
         C           -6.134765042913    -0.680558404644    -0.889949116208    12.000000000000
         H            5.835288495816     3.369271405792    -0.886387741457     1.007825032230
         H            7.073859172747     1.228212759737    -0.890732317536     1.007825032230
         H            4.600663264174     5.512376313291    -0.890500097308     1.007825032230
         H            5.835283387305    -3.369310545891    -0.894590382539     1.007825032230
         H           -0.000012151306     6.738526184974    -0.894249616827     1.007825032230
         H            7.073861171831    -1.228231431906    -0.890437378507     1.007825032230
         H            2.473313731799     6.740679802232    -0.890183239340     1.007825032230
         H            4.600668491381    -5.512380618338    -0.889964794694     1.007825032230
         H           -2.473318680537     6.740677230444    -0.889881892715     1.007825032230
         H           -0.000010268228    -6.738532665614    -0.885766190955     1.007825032230
         H           -5.835301914343     3.369266461134    -0.886251719309     1.007825032230
         H            2.473307923831    -6.740689863591    -0.890075067893     1.007825032230
         H           -4.600674841208     5.512373537441    -0.890334768984     1.007825032230
         H           -5.835279506835    -3.369293452942    -0.894869688420     1.007825032230
         H           -2.473300347440    -6.740683567302    -0.890524384438     1.007825032230
         H           -7.073857766768     1.228215983678    -0.890816309016     1.007825032230
         H           -4.600673786085    -5.512367158949    -0.890137102717     1.007825032230
         H           -7.073856934409    -1.228225121139    -0.890532234974     1.007825032230

  Running in c1 symmetry.

  Rotational constants: A =      0.00143  B =      0.00140  C =      0.00109 [cm^-1]
  Rotational constants: A =     42.72758  B =     42.11635  C =     32.56832 [MHz]
  Nuclear repulsion = 7883.596836411054937

  Charge       = 1
  Multiplicity = 1
  Electrons    = 394
  Nalpha       = 197
  Nbeta        = 197

  ==> Algorithm <==

  SCF Algorithm Type is DF.
  DIIS enabled.
  MOM disabled.
  Fractional occupation disabled.
  Guess Type is SAD.
  Energy threshold   = 1.00e-08
  Density threshold  = 1.00e-08
  Integral threshold = 1.00e-12

  ==> Primary Basis <==

  Basis Set: JUN-CC-PVDZ
    Blend: JUN-CC-PVDZ
    Number of shells: 569
    Number of basis functions: 1233
    Number of Cartesian functions: 1294
    Spherical Harmonics?: true
    Max angular momentum: 2

   => Loading Basis Set <=

    Name: (JUN-CC-PVDZ AUX)
    Role: JKFIT
    Keyword: DF_BASIS_SCF
    atoms 1-2, 4-5, 10, 17-70 entry C          line   146 file /home/gridsan/tfroembgen/.conda/envs/psi4test/share/psi4/basis/jun-cc-pvdz-jkfit.gbs 
    atoms 3, 6                entry N          line   202 file /home/gridsan/tfroembgen/.conda/envs/psi4test/share/psi4/basis/jun-cc-pvdz-jkfit.gbs 
    atoms 7-9, 11-16, 71-88   entry H          line    70 file /home/gridsan/tfroembgen/.conda/envs/psi4test/share/psi4/basis/jun-cc-pvdz-jkfit.gbs 

  ==> Integral Setup <==

  ==> DiskDFJK: Density-Fitted J/K Matrices <==

    J tasked:                  Yes
    K tasked:                  Yes
    wK tasked:                  No
    OpenMP threads:             12
    Integrals threads:          12
    Memory [MiB]:            22888
    Algorithm:                Core
    Integral Cache:           SAVE
    Schwarz Cutoff:          1E-12
    Fitting Condition:       1E-10

   => Auxiliary Basis Set <=

  Basis Set: (JUN-CC-PVDZ AUX)
    Blend: JUN-CC-PVDZ-JKFIT
    Number of shells: 1890
    Number of basis functions: 5440
    Number of Cartesian functions: 6226
    Spherical Harmonics?: true
    Max angular momentum: 3

  Minimum eigenvalue in the overlap matrix is 8.3906228429E-10.
  Reciprocal condition number of the overlap matrix is 3.7509296426E-11.
    Using canonical orthogonalization.
  Overall, 14 of 1233 possible MOs eliminated.


  ==> Pre-Iterations <==

  SCF Guess: Superposition of Atomic Densities via on-the-fly atomic UHF (no occupation information).

   -------------------------
    Irrep   Nso     Nmo    
   -------------------------
     A       1233    1219 
   -------------------------
    Total    1233    1219
   -------------------------

  ==> Iterations <==

                           Total Energy        Delta E     RMS |[F,P]|

   @DF-RHF iter SAD: -2365.39422810859742   -2.36539e+03   0.00000e+00 
   @DF-RHF iter   1: -2358.18894783701171    7.20528e+00   9.48692e-04 ADIIS/DIIS
   @DF-RHF iter   2: -2359.08840444356156   -8.99457e-01   3.26657e-04 ADIIS/DIIS
   @DF-RHF iter   3: -2359.18184587240012   -9.34414e-02   1.20840e-04 ADIIS/DIIS
   @DF-RHF iter   4: -2359.19547078347659   -1.36249e-02   4.56992e-05 DIIS
   @DF-RHF iter   5: -2359.19750662261049   -2.03584e-03   1.07731e-05 DIIS
   @DF-RHF iter   6: -2359.19769304431793   -1.86422e-04   5.29024e-06 DIIS
   @DF-RHF iter   7: -2359.19776587893193   -7.28346e-05   2.27763e-06 DIIS
   @DF-RHF iter   8: -2359.19778687846156   -2.09995e-05   1.12916e-06 DIIS
   @DF-RHF iter   9: -2359.19779212894491   -5.25048e-06   2.62765e-07 DIIS
   @DF-RHF iter  10: -2359.19779237755392   -2.48609e-07   8.52425e-08 DIIS
   @DF-RHF iter  11: -2359.19779239518402   -1.76301e-08   3.17954e-08 DIIS
   @DF-RHF iter  12: -2359.19779239853187   -3.34785e-09   1.34836e-08 DIIS
   @DF-RHF iter  13: -2359.19779239906575   -5.33873e-10   6.10708e-09 DIIS
  Energy and wave function converged.


  ==> Post-Iterations <==

    Orbital Energies [Eh]
    ---------------------

    Doubly Occupied:                                                      

       1A    -15.823637     2A    -15.823106     3A    -11.518584  
       4A    -11.448899     5A    -11.447345     6A    -11.439075  
       7A    -11.438822     8A    -11.320521     9A    -11.320039  
      10A    -11.320006    11A    -11.319070    12A    -11.319062  
      13A    -11.318635    14A    -11.318137    15A    -11.318025  
      16A    -11.317899    17A    -11.317740    18A    -11.317698  
      19A    -11.317412    20A    -11.316669    21A    -11.316587  
      22A    -11.316502    23A    -11.316456    24A    -11.316290  
      25A    -11.316263    26A    -11.316179    27A    -11.316141  
      28A    -11.316096    29A    -11.316046    30A    -11.315742  
      31A    -11.315687    32A    -11.315627    33A    -11.315593  
      34A    -11.315521    35A    -11.315476    36A    -11.315087  
      37A    -11.315071    38A    -11.314991    39A    -11.314916  
      40A    -11.314830    41A    -11.314787    42A    -11.314455  
      43A    -11.314377    44A    -11.308868    45A    -11.308827  
      46A    -11.308777    47A    -11.308512    48A    -11.308499  
      49A    -11.308487    50A    -11.308474    51A    -11.308432  
      52A    -11.308393    53A    -11.308187    54A    -11.307822  
      55A    -11.307811    56A    -11.307068    57A    -11.307044  
      58A    -11.307013    59A    -11.306972    60A    -11.306388  
      61A    -11.306378    62A     -1.567154    63A     -1.422800  
      64A     -1.303436    65A     -1.278472    66A     -1.278343  
      67A     -1.247634    68A     -1.247624    69A     -1.239642  
      70A     -1.227672    71A     -1.215092    72A     -1.206946  
      73A     -1.193975    74A     -1.193862    75A     -1.178430  
      76A     -1.170646    77A     -1.170626    78A     -1.140630  
      79A     -1.140623    80A     -1.136793    81A     -1.123269  
      82A     -1.123258    83A     -1.108102    84A     -1.097017  
      85A     -1.082886    86A     -1.080341    87A     -1.080300  
      88A     -1.075112    89A     -1.069883    90A     -1.045030  
      91A     -1.045010    92A     -1.019297    93A     -1.019285  
      94A     -1.011581    95A     -0.986033    96A     -0.951805  
      97A     -0.951751    98A     -0.946446    99A     -0.944681  
     100A     -0.944565   101A     -0.939482   102A     -0.939413  
     103A     -0.919262   104A     -0.906234   105A     -0.894065  
     106A     -0.875735   107A     -0.874828   108A     -0.870091  
     109A     -0.870022   110A     -0.851736   111A     -0.851732  
     112A     -0.839438   113A     -0.805460   114A     -0.804865  
     115A     -0.802890   116A     -0.802280   117A     -0.791413  
     118A     -0.791321   119A     -0.789295   120A     -0.789233  
     121A     -0.779280   122A     -0.775351   123A     -0.774143  
     124A     -0.770955   125A     -0.756381   126A     -0.756296  
     127A     -0.751240   128A     -0.751154   129A     -0.719093  
     130A     -0.718208   131A     -0.715213   132A     -0.710758  
     133A     -0.709192   134A     -0.707171   135A     -0.707142  
     136A     -0.706203   137A     -0.696619   138A     -0.696578  
     139A     -0.687411   140A     -0.685203   141A     -0.685185  
     142A     -0.666187   143A     -0.661631   144A     -0.659607  
     145A     -0.656883   146A     -0.656783   147A     -0.651497  
     148A     -0.649468   149A     -0.649394   150A     -0.641641  
     151A     -0.635268   152A     -0.635073   153A     -0.624105  
     154A     -0.624075   155A     -0.623827   156A     -0.623734  
     157A     -0.616487   158A     -0.611698   159A     -0.611597  
     160A     -0.596413   161A     -0.596391   162A     -0.595515  
     163A     -0.595495   164A     -0.587090   165A     -0.587043  
     166A     -0.585282   167A     -0.580261   168A     -0.580167  
     169A     -0.557293   170A     -0.553107   171A     -0.550243  
     172A     -0.545831   173A     -0.542890   174A     -0.539210  
     175A     -0.539174   176A     -0.529013   177A     -0.528858  
     178A     -0.512729   179A     -0.509289   180A     -0.509155  
     181A     -0.496422   182A     -0.496402   183A     -0.463149  
     184A     -0.463143   185A     -0.461785   186A     -0.432546  
     187A     -0.432531   188A     -0.406901   189A     -0.396905  
     190A     -0.395787   191A     -0.395728   192A     -0.368689  
     193A     -0.354758   194A     -0.342866   195A     -0.342861  
     196A     -0.282621   197A     -0.282605  

    Virtual:                                                              

     198A     -0.058657   199A     -0.054516   200A     -0.046449  
     201A     -0.043756   202A     -0.043620   203A     -0.040316  
     204A     -0.022664   205A     -0.022123   206A     -0.018766  
     207A     -0.016303   208A     -0.004077   209A     -0.001793  
     210A     -0.001118   211A      0.003884   212A      0.004033  
     213A      0.004711   214A      0.006367   215A      0.006416  
     216A      0.006736   217A      0.007709   218A      0.009898  
     219A      0.011001   220A      0.014170   221A      0.016497  
     222A      0.026068   223A      0.026367   224A      0.026814  
     225A      0.028642   226A      0.028768   227A      0.029344  
     228A      0.031453   229A      0.033182   230A      0.033827  
     231A      0.035300   232A      0.042004   233A      0.042306  
     234A      0.042430   235A      0.042721   236A      0.044997  
     237A      0.045997   238A      0.050776   239A      0.053092  
     240A      0.054625   241A      0.059698   242A      0.061538  
     243A      0.061697   244A      0.062203   245A      0.064179  
     246A      0.068530   247A      0.068932   248A      0.069872  
     249A      0.070743   250A      0.072177   251A      0.074487  
     252A      0.077003   253A      0.082319   254A      0.083031  
     255A      0.083430   256A      0.085417   257A      0.085684  
     258A      0.086296   259A      0.087704   260A      0.087974  
     261A      0.092658   262A      0.095972   263A      0.097815  
     264A      0.100156   265A      0.102527   266A      0.103146  
     267A      0.103647   268A      0.105973   269A      0.110334  
     270A      0.110466   271A      0.113462   272A      0.114044  
     273A      0.118353   274A      0.119569   275A      0.124614  
     276A      0.125547   277A      0.126310   278A      0.127554  
     279A      0.130524   280A      0.130808   281A      0.131322  
     282A      0.132435   283A      0.133018   284A      0.135056  
     285A      0.135975   286A      0.137240   287A      0.138281  
     288A      0.138890   289A      0.139121   290A      0.144740  
     291A      0.149036   292A      0.149593   293A      0.152143  
     294A      0.152859   295A      0.153426   296A      0.157972  
     297A      0.159308   298A      0.160303   299A      0.160451  
     300A      0.161694   301A      0.162076   302A      0.162864  
     303A      0.164303   304A      0.165340   305A      0.166542  
     306A      0.169548   307A      0.171099   308A      0.172485  
     309A      0.172924   310A      0.174655   311A      0.174726  
     312A      0.176478   313A      0.177776   314A      0.179369  
     315A      0.180141   316A      0.181696   317A      0.181812  
     318A      0.183027   319A      0.184602   320A      0.187472  
     321A      0.189460   322A      0.191243   323A      0.193340  
     324A      0.195229   325A      0.198305   326A      0.199667  
     327A      0.200410   328A      0.200999   329A      0.201929  
     330A      0.202384   331A      0.204404   332A      0.204835  
     333A      0.208485   334A      0.209684   335A      0.212419  
     336A      0.213344   337A      0.213372   338A      0.213415  
     339A      0.214754   340A      0.216394   341A      0.216412  
     342A      0.219873   343A      0.220287   344A      0.220575  
     345A      0.223622   346A      0.228415   347A      0.230195  
     348A      0.232359   349A      0.233806   350A      0.237381  
     351A      0.241696   352A      0.241720   353A      0.242654  
     354A      0.246659   355A      0.247887   356A      0.248645  
     357A      0.249132   358A      0.249814   359A      0.253389  
     360A      0.253950   361A      0.254663   362A      0.255243  
     363A      0.257740   364A      0.257994   365A      0.258657  
     366A      0.259367   367A      0.260545   368A      0.261811  
     369A      0.264036   370A      0.264256   371A      0.264913  
     372A      0.266760   373A      0.267746   374A      0.267979  
     375A      0.268029   376A      0.270095   377A      0.274284  
     378A      0.276099   379A      0.278269   380A      0.280444  
     381A      0.282803   382A      0.284279   383A      0.285050  
     384A      0.287722   385A      0.288645   386A      0.292098  
     387A      0.292579   388A      0.293225   389A      0.294592  
     390A      0.296472   391A      0.297249   392A      0.297566  
     393A      0.298274   394A      0.299179   395A      0.299732  
     396A      0.301064   397A      0.303572   398A      0.308082  
     399A      0.310015   400A      0.311908   401A      0.316946  
     402A      0.318260   403A      0.318687   404A      0.319070  
     405A      0.319532   406A      0.326912   407A      0.328622  
     408A      0.329687   409A      0.330297   410A      0.333599  
     411A      0.334564   412A      0.334933   413A      0.335444  
     414A      0.335837   415A      0.336722   416A      0.339304  
     417A      0.341392   418A      0.341971   419A      0.342744  
     420A      0.344623   421A      0.346090   422A      0.347402  
     423A      0.349433   424A      0.350842   425A      0.351029  
     426A      0.351199   427A      0.351795   428A      0.352039  
     429A      0.354178   430A      0.355328   431A      0.358329  
     432A      0.359125   433A      0.364433   434A      0.365697  
     435A      0.367104   436A      0.367802   437A      0.368731  
     438A      0.370305   439A      0.373113   440A      0.378141  
     441A      0.380439   442A      0.381209   443A      0.383320  
     444A      0.387580   445A      0.388080   446A      0.389163  
     447A      0.389377   448A      0.393845   449A      0.394733  
     450A      0.395984   451A      0.397136   452A      0.401184  
     453A      0.402293   454A      0.403717   455A      0.404080  
     456A      0.404870   457A      0.405452   458A      0.408554  
     459A      0.410205   460A      0.412903   461A      0.413730  
     462A      0.415178   463A      0.416256   464A      0.420059  
     465A      0.421195   466A      0.425496   467A      0.426116  
     468A      0.428113   469A      0.428460   470A      0.437427  
     471A      0.437691   472A      0.438766   473A      0.439600  
     474A      0.440956   475A      0.441724   476A      0.444567  
     477A      0.445465   478A      0.446626   479A      0.450506  
     480A      0.452673   481A      0.454995   482A      0.456177  
     483A      0.456808   484A      0.458551   485A      0.460978  
     486A      0.462619   487A      0.465238   488A      0.468147  
     489A      0.469722   490A      0.471405   491A      0.476536  
     492A      0.481732   493A      0.485420   494A      0.485898  
     495A      0.488316   496A      0.491983   497A      0.492124  
     498A      0.492537   499A      0.495822   500A      0.495878  
     501A      0.497144   502A      0.499227   503A      0.499395  
     504A      0.503135   505A      0.503831   506A      0.505334  
     507A      0.505448   508A      0.513042   509A      0.513395  
     510A      0.518256   511A      0.530142   512A      0.531556  
     513A      0.539628   514A      0.540331   515A      0.541157  
     516A      0.548393   517A      0.557418   518A      0.557512  
     519A      0.564329   520A      0.564687   521A      0.569996  
     522A      0.570142   523A      0.587225   524A      0.591600  
     525A      0.592319   526A      0.592950   527A      0.597241  
     528A      0.610154   529A      0.610343   530A      0.612862  
     531A      0.620305   532A      0.620596   533A      0.623366  
     534A      0.626278   535A      0.649496   536A      0.658929  
     537A      0.659384   538A      0.666010   539A      0.668129  
     540A      0.674341   541A      0.676424   542A      0.683853  
     543A      0.685240   544A      0.686887   545A      0.687587  
     546A      0.688216   547A      0.689263   548A      0.700020  
     549A      0.700423   550A      0.701479   551A      0.705807  
     552A      0.707982   553A      0.709296   554A      0.715932  
     555A      0.721638   556A      0.734352   557A      0.736532  
     558A      0.740452   559A      0.743169   560A      0.748909  
     561A      0.749394   562A      0.751201   563A      0.751526  
     564A      0.757115   565A      0.758134   566A      0.760182  
     567A      0.765357   568A      0.766489   569A      0.769471  
     570A      0.771446   571A      0.772321   572A      0.772508  
     573A      0.777452   574A      0.779683   575A      0.788894  
     576A      0.790641   577A      0.795945   578A      0.801203  
     579A      0.801612   580A      0.802169   581A      0.806431  
     582A      0.808276   583A      0.810869   584A      0.811614  
     585A      0.816590   586A      0.818778   587A      0.821491  
     588A      0.821504   589A      0.823239   590A      0.826207  
     591A      0.826442   592A      0.827854   593A      0.830635  
     594A      0.833230   595A      0.834013   596A      0.834992  
     597A      0.842024   598A      0.842150   599A      0.843551  
     600A      0.845998   601A      0.851770   602A      0.852100  
     603A      0.853898   604A      0.855326   605A      0.856509  
     606A      0.858970   607A      0.859889   608A      0.860576  
     609A      0.865001   610A      0.866158   611A      0.866600  
     612A      0.871782   613A      0.875373   614A      0.876194  
     615A      0.877541   616A      0.879693   617A      0.880144  
     618A      0.884491   619A      0.886503   620A      0.888873  
     621A      0.889558   622A      0.893943   623A      0.900675  
     624A      0.901261   625A      0.904237   626A      0.913467  
     627A      0.913921   628A      0.914090   629A      0.914995  
     630A      0.915810   631A      0.916898   632A      0.917137  
     633A      0.920351   634A      0.922788   635A      0.924424  
     636A      0.931111   637A      0.931162   638A      0.937151  
     639A      0.941476   640A      0.941854   641A      0.948468  
     642A      0.957225   643A      0.959523   644A      0.959681  
     645A      0.960047   646A      0.962412   647A      0.963012  
     648A      0.969190   649A      0.974916   650A      0.975747  
     651A      0.977551   652A      0.977947   653A      0.980119  
     654A      0.981435   655A      0.983046   656A      0.984580  
     657A      0.984806   658A      0.984927   659A      0.987741  
     660A      0.988303   661A      0.988569   662A      0.990056  
     663A      0.990297   664A      0.991765   665A      0.992278  
     666A      0.998599   667A      0.999957   668A      1.003060  
     669A      1.004189   670A      1.004602   671A      1.004817  
     672A      1.010065   673A      1.013758   674A      1.015059  
     675A      1.015847   676A      1.018029   677A      1.022064  
     678A      1.026944   679A      1.027158   680A      1.027826  
     681A      1.030085   682A      1.030654   683A      1.035079  
     684A      1.039607   685A      1.040104   686A      1.046274  
     687A      1.047474   688A      1.047846   689A      1.049558  
     690A      1.051573   691A      1.054513   692A      1.059384  
     693A      1.059546   694A      1.059831   695A      1.062161  
     696A      1.063465   697A      1.064187   698A      1.068979  
     699A      1.069014   700A      1.075877   701A      1.077453  
     702A      1.077517   703A      1.078649   704A      1.083213  
     705A      1.083325   706A      1.084093   707A      1.086738  
     708A      1.087856   709A      1.097164   710A      1.110453  
     711A      1.113535   712A      1.115761   713A      1.116759  
     714A      1.120065   715A      1.120530   716A      1.125802  
     717A      1.125966   718A      1.127401   719A      1.136576  
     720A      1.140004   721A      1.140511   722A      1.141849  
     723A      1.142848   724A      1.145117   725A      1.151875  
     726A      1.154760   727A      1.161154   728A      1.161176  
     729A      1.163715   730A      1.163844   731A      1.166175  
     732A      1.166429   733A      1.173200   734A      1.182935  
     735A      1.183265   736A      1.184602   737A      1.201882  
     738A      1.203525   739A      1.205694   740A      1.206031  
     741A      1.206204   742A      1.206372   743A      1.210180  
     744A      1.210563   745A      1.211797   746A      1.221029  
     747A      1.226813   748A      1.237762   749A      1.238041  
     750A      1.240145   751A      1.241533   752A      1.243647  
     753A      1.244903   754A      1.252497   755A      1.253115  
     756A      1.253465   757A      1.253969   758A      1.262918  
     759A      1.263421   760A      1.265862   761A      1.266615  
     762A      1.272566   763A      1.272692   764A      1.276495  
     765A      1.282783   766A      1.284198   767A      1.286431  
     768A      1.288662   769A      1.290504   770A      1.296203  
     771A      1.296733   772A      1.297069   773A      1.297482  
     774A      1.302251   775A      1.302457   776A      1.306465  
     777A      1.307896   778A      1.311077   779A      1.316107  
     780A      1.324048   781A      1.334073   782A      1.334781  
     783A      1.340738   784A      1.346720   785A      1.348406  
     786A      1.350215   787A      1.351981   788A      1.355845  
     789A      1.356381   790A      1.362113   791A      1.363676  
     792A      1.366811   793A      1.369934   794A      1.371071  
     795A      1.373367   796A      1.376845   797A      1.380041  
     798A      1.380321   799A      1.382181   800A      1.382902  
     801A      1.384115   802A      1.384359   803A      1.391768  
     804A      1.392793   805A      1.393332   806A      1.405612  
     807A      1.405999   808A      1.416127   809A      1.417550  
     810A      1.440301   811A      1.459608   812A      1.460551  
     813A      1.463312   814A      1.463464   815A      1.475555  
     816A      1.478730   817A      1.491349   818A      1.494310  
     819A      1.514393   820A      1.517628   821A      1.530440  
     822A      1.539954   823A      1.541602   824A      1.542072  
     825A      1.550082   826A      1.550204   827A      1.551175  
     828A      1.553505   829A      1.553645   830A      1.557600  
     831A      1.564028   832A      1.564324   833A      1.571188  
     834A      1.571947   835A      1.577311   836A      1.582509  
     837A      1.582519   838A      1.585188   839A      1.585508  
     840A      1.585556   841A      1.585702   842A      1.592645  
     843A      1.603577   844A      1.603664   845A      1.610012  
     846A      1.617412   847A      1.617550   848A      1.618828  
     849A      1.619577   850A      1.619648   851A      1.620369  
     852A      1.625916   853A      1.628754   854A      1.628812  
     855A      1.632570   856A      1.638700   857A      1.640515  
     858A      1.642055   859A      1.642280   860A      1.642860  
     861A      1.645994   862A      1.646126   863A      1.658784  
     864A      1.658880   865A      1.676917   866A      1.684013  
     867A      1.684178   868A      1.693117   869A      1.695450  
     870A      1.699403   871A      1.703900   872A      1.704204  
     873A      1.704534   874A      1.705277   875A      1.719394  
     876A      1.719422   877A      1.734145   878A      1.734303  
     879A      1.743320   880A      1.758779   881A      1.759549  
     882A      1.759872   883A      1.760145   884A      1.761495  
     885A      1.764101   886A      1.766404   887A      1.766698  
     888A      1.771868   889A      1.773750   890A      1.774234  
     891A      1.780350   892A      1.784273   893A      1.784641  
     894A      1.790070   895A      1.804079   896A      1.804355  
     897A      1.804440   898A      1.804965   899A      1.807204  
     900A      1.811855   901A      1.814687   902A      1.819131  
     903A      1.822096   904A      1.822138   905A      1.826174  
     906A      1.829488   907A      1.838756   908A      1.838827  
     909A      1.843375   910A      1.846764   911A      1.846846  
     912A      1.850594   913A      1.850867   914A      1.855699  
     915A      1.857424   916A      1.858403   917A      1.860056  
     918A      1.860211   919A      1.861442   920A      1.864368  
     921A      1.864656   922A      1.872963   923A      1.881713  
     924A      1.884456   925A      1.885222   926A      1.885542  
     927A      1.886098   928A      1.890953   929A      1.891320  
     930A      1.896047   931A      1.896864   932A      1.897310  
     933A      1.897739   934A      1.900408   935A      1.906077  
     936A      1.908337   937A      1.915347   938A      1.925087  
     939A      1.925157   940A      1.932986   941A      1.939780  
     942A      1.941710   943A      1.941995   944A      1.948208  
     945A      1.952264   946A      1.955646   947A      1.955844  
     948A      1.959031   949A      1.969806   950A      1.971423  
     951A      1.972780   952A      1.973030   953A      1.973535  
     954A      1.973871   955A      1.974176   956A      1.978068  
     957A      1.991148   958A      1.994769   959A      1.995174  
     960A      2.000012   961A      2.000844   962A      2.003808  
     963A      2.004351   964A      2.010479   965A      2.012724  
     966A      2.013163   967A      2.014311   968A      2.017930  
     969A      2.019524   970A      2.019989   971A      2.024084  
     972A      2.027022   973A      2.027889   974A      2.036429  
     975A      2.037738   976A      2.039668   977A      2.039964  
     978A      2.043272   979A      2.043444   980A      2.049470  
     981A      2.050768   982A      2.051272   983A      2.051498  
     984A      2.052732   985A      2.053291   986A      2.055278  
     987A      2.057802   988A      2.062419   989A      2.062470  
     990A      2.062866   991A      2.063466   992A      2.069317  
     993A      2.069606   994A      2.076407   995A      2.077211  
     996A      2.078901   997A      2.079237   998A      2.081382  
     999A      2.086241  1000A      2.086266  1001A      2.097723  
    1002A      2.098816  1003A      2.101621  1004A      2.101909  
    1005A      2.105186  1006A      2.105496  1007A      2.112870  
    1008A      2.121394  1009A      2.121520  1010A      2.134260  
    1011A      2.134545  1012A      2.134689  1013A      2.136922  
    1014A      2.137036  1015A      2.138009  1016A      2.140013  
    1017A      2.147941  1018A      2.152889  1019A      2.162026  
    1020A      2.162123  1021A      2.162339  1022A      2.168591  
    1023A      2.169336  1024A      2.170701  1025A      2.171520  
    1026A      2.171777  1027A      2.187447  1028A      2.187856  
    1029A      2.188060  1030A      2.188366  1031A      2.191046  
    1032A      2.204017  1033A      2.204046  1034A      2.211237  
    1035A      2.213126  1036A      2.213160  1037A      2.215473  
    1038A      2.215516  1039A      2.225362  1040A      2.234137  
    1041A      2.243642  1042A      2.249797  1043A      2.252529  
    1044A      2.254501  1045A      2.258529  1046A      2.262664  
    1047A      2.264339  1048A      2.272272  1049A      2.272374  
    1050A      2.273044  1051A      2.275784  1052A      2.292839  
    1053A      2.293454  1054A      2.295090  1055A      2.295186  
    1056A      2.306880  1057A      2.308322  1058A      2.308441  
    1059A      2.315769  1060A      2.322349  1061A      2.331507  
    1062A      2.342770  1063A      2.359162  1064A      2.366385  
    1065A      2.367007  1066A      2.367108  1067A      2.379616  
    1068A      2.383378  1069A      2.383455  1070A      2.412380  
    1071A      2.415957  1072A      2.416190  1073A      2.428416  
    1074A      2.428541  1075A      2.444915  1076A      2.448401  
    1077A      2.462624  1078A      2.469011  1079A      2.472337  
    1080A      2.472661  1081A      2.487241  1082A      2.488739  
    1083A      2.488956  1084A      2.496409  1085A      2.498510  
    1086A      2.498554  1087A      2.502464  1088A      2.502538  
    1089A      2.509037  1090A      2.515393  1091A      2.515431  
    1092A      2.518641  1093A      2.519142  1094A      2.529330  
    1095A      2.529380  1096A      2.529607  1097A      2.532622  
    1098A      2.535559  1099A      2.549746  1100A      2.566926  
    1101A      2.566998  1102A      2.567999  1103A      2.573570  
    1104A      2.574150  1105A      2.582350  1106A      2.584581  
    1107A      2.584840  1108A      2.594464  1109A      2.594842  
    1110A      2.599976  1111A      2.613049  1112A      2.624327  
    1113A      2.625352  1114A      2.627018  1115A      2.630837  
    1116A      2.642689  1117A      2.643927  1118A      2.645455  
    1119A      2.654948  1120A      2.655071  1121A      2.660814  
    1122A      2.660977  1123A      2.665519  1124A      2.665742  
    1125A      2.670188  1126A      2.679994  1127A      2.681569  
    1128A      2.687203  1129A      2.695024  1130A      2.695665  
    1131A      2.697434  1132A      2.714488  1133A      2.720160  
    1134A      2.736800  1135A      2.736966  1136A      2.746229  
    1137A      2.755326  1138A      2.759049  1139A      2.768934  
    1140A      2.770987  1141A      2.793805  1142A      2.794779  
    1143A      2.795317  1144A      2.797240  1145A      2.799576  
    1146A      2.801863  1147A      2.802113  1148A      2.810566  
    1149A      2.860825  1150A      2.860951  1151A      2.867159  
    1152A      2.876935  1153A      2.877127  1154A      2.892572  
    1155A      2.892631  1156A      2.906310  1157A      2.930401  
    1158A      2.949857  1159A      2.950488  1160A      2.955793  
    1161A      2.973032  1162A      2.985166  1163A      3.006018  
    1164A      3.006103  1165A      3.013048  1166A      3.013262  
    1167A      3.052643  1168A      3.053072  1169A      3.053457  
    1170A      3.071230  1171A      3.071930  1172A      3.072793  
    1173A      3.072926  1174A      3.080514  1175A      3.089414  
    1176A      3.089793  1177A      3.089851  1178A      3.092597  
    1179A      3.092670  1180A      3.101041  1181A      3.101630  
    1182A      3.108986  1183A      3.109564  1184A      3.135393  
    1185A      3.154800  1186A      3.160777  1187A      3.180312  
    1188A      3.214885  1189A      3.219397  1190A      3.219456  
    1191A      3.224246  1192A      3.224559  1193A      3.358305  
    1194A      3.358838  1195A      3.382201  1196A      3.423064  
    1197A      3.425586  1198A      3.447442  1199A      3.490549  
    1200A      3.518442  1201A      3.520295  1202A      3.535083  
    1203A      3.537190  1204A      3.568834  1205A      3.570852  
    1206A      3.605324  1207A      3.610792  1208A      3.711253  
    1209A      3.724403  1210A      3.725288  1211A      3.813774  
    1212A      3.813895  1213A      3.855727  1214A      3.855949  
    1215A      3.918660  1216A      3.952534  1217A      3.973402  
    1218A      3.985092  1219A      4.021370  

    Final Occupation by Irrep:
              A 
    DOCC [   197 ]
    NA   [   197 ]
    NB   [   197 ]

  @DF-RHF Final Energy: -2359.19779239906575

   => Energetics <=

    Nuclear Repulsion Energy =           7883.5968364110549373
    One-Electron Energy =              -18872.6896816997068527
    Two-Electron Energy =                8629.8950528895857133
    Total Energy =                      -2359.1977923990652926

Computation Completed


Properties will be evaluated at   0.000000,   0.000000,   0.000000 [a0]

Properties computed using the SCF density matrix


 Multipole Moments:

 ------------------------------------------------------------------------------------
     Multipole            Electronic (a.u.)      Nuclear  (a.u.)        Total (a.u.)
 ------------------------------------------------------------------------------------

 L = 1.  Multiply by 2.5417464519 to convert [e a0] to [Debye]
 Dipole X            :          0.0028585            0.0006313            0.0034898
 Dipole Y            :         -1.5098245            1.8864948            0.3766703
 Dipole Z            :        -25.6871771           36.4327993           10.7456222
 Magnitude           :                                                   10.7522225

 ------------------------------------------------------------------------------------

*** tstop() called on d-3-8-3 at Mon Jan 22 17:14:18 2024
Module time:
	user time   =    3863.91 seconds =      64.40 minutes
	system time =      72.15 seconds =       1.20 minutes
	total time  =        402 seconds =       6.70 minutes
Total time:
	user time   =    3863.91 seconds =      64.40 minutes
	system time =      72.15 seconds =       1.20 minutes
	total time  =        402 seconds =       6.70 minutes

  //>>>>>>>>>>>>>>>>>>>>>>>>>>>>>>>>>>>//
  //            Monomer A HF           //
  //<<<<<<<<<<<<<<<<<<<<<<<<<<<<<<<<<<<//

   => Libint2 <=

    Primary   basis highest AM E, G, H:  7, 7, 4
    Auxiliary basis highest AM E, G, H:  7, 7, 5
    Onebody   basis highest AM E, G, H:  7, 7, 5
    Solid Harmonics ordering:            gaussian

*** tstart() called on d-3-8-3
*** at Mon Jan 22 17:14:18 2024

   => Loading Basis Set <=

    Name: JUN-CC-PVDZ
    Role: ORBITAL
    Keyword: BASIS
    atoms 1-2, 4-5, 10, 17-70 entry C          line   164 file /home/gridsan/tfroembgen/.conda/envs/psi4test/share/psi4/basis/jun-cc-pvdz.gbs 
    atoms 3, 6                entry N          line   198 file /home/gridsan/tfroembgen/.conda/envs/psi4test/share/psi4/basis/jun-cc-pvdz.gbs 
    atoms 7-9, 11-16, 71-88   entry H          line    36 file /home/gridsan/tfroembgen/.conda/envs/psi4test/share/psi4/basis/jun-cc-pvdz.gbs 


         ---------------------------------------------------------
                                   SCF
               by Justin Turney, Rob Parrish, Andy Simmonett
                          and Daniel G. A. Smith
                              RHF Reference
                       12 Threads,  30517 MiB Core
         ---------------------------------------------------------

  ==> Geometry <==

    Molecular point group: c1
    Full point group: C1

    Geometry (in Angstrom), charge = 1, multiplicity = 1:

       Center              X                  Y                   Z               Mass       
    ------------   -----------------  -----------------  -----------------  -----------------
         C            0.680066520158    -1.215933861162     6.117687130837    12.000000000000
         C           -0.680504479842    -1.215549861162     6.115659130837    12.000000000000
         N           -1.085635479842     0.102774138838     6.114661130837    14.003074004430
         C            0.000107520158     0.884175138838     6.111385130837    12.000000000000
         C           -2.477365479842     0.570753138838     6.065255130837    12.000000000000
         N            1.085221520158     0.102774138838     6.114661130837    14.003074004430
         H            1.385145520158    -2.033372861162     6.125515130837     1.007825032230
         H           -1.385302479842    -2.033218861162     6.115849130837     1.007825032230
         H           -0.000009479842     1.965264138838     6.109638130837     1.007825032230
         C            2.478116520158     0.567872138838     6.131553130837    12.000000000000
         H            2.490591520158     1.658125138838     6.104208130837     1.007825032230
         H            2.967027520158     0.220696138838     7.044999130837     1.007825032230
         H            3.001427520158     0.176400138838     5.256070130837     1.007825032230
         H           -2.857359479842     0.490794138838     5.043184130837     1.007825032230
         H           -3.082679479842    -0.042310861162     6.735339130837     1.007825032230
         H           -2.518128479842     1.610701138838     6.392239130837     1.007825032230
      Gh(C)           1.225311895423     0.707533799757    -0.884217241879    12.000000000000
      Gh(C)           1.225323856051    -0.707543383733    -0.896548051449    12.000000000000
      Gh(C)          -0.000006153932     1.414961424928    -0.897081674970    12.000000000000
      Gh(C)           2.456448753949     1.418323398016    -0.881330384479    12.000000000000
      Gh(C)           0.000010827279    -1.414980987797    -0.886882117646    12.000000000000
      Gh(C)          -1.225300948908     0.707540884822    -0.881965721556    12.000000000000
      Gh(C)           2.456437755320    -1.418327793043    -0.898793208306    12.000000000000
      Gh(C)          -0.000001332978     2.836796542119    -0.899485225104    12.000000000000
      Gh(C)           3.681826697470     0.709313466839    -0.898444418508    12.000000000000
      Gh(C)           2.455120048865     2.834219172327    -0.898546975469    12.000000000000
      Gh(C)           3.681821105219    -0.709338328591    -0.882371934490    12.000000000000
      Gh(C)          -1.225313598688    -0.707532004706    -0.895475290022    12.000000000000
      Gh(C)           1.226699581202     3.543464994832    -0.882187902559    12.000000000000
      Gh(C)           0.000004784858    -2.836786628398    -0.882033950024    12.000000000000
      Gh(C)          -2.456436032848     1.418312429123    -0.881930325711    12.000000000000
      Gh(C)           2.455123417779    -2.834234517751    -0.882523842857    12.000000000000
      Gh(C)          -1.226714364589     3.543464574588    -0.882084569340    12.000000000000
      Gh(C)           4.914517295202     1.427168383327    -0.891963735479    12.000000000000
      Gh(C)           3.693150191476     3.542790803383    -0.891913935842    12.000000000000
      Gh(C)          -2.456437600068    -1.418317770001    -0.898818246431    12.000000000000
      Gh(C)           1.226704841943    -3.543478731069    -0.898158033309    12.000000000000
      Gh(C)          -2.455125398508     2.834212173472    -0.898540599123    12.000000000000
      Gh(C)           4.914524380782    -1.427191399106    -0.888990992744    12.000000000000
      Gh(C)           1.221424613699     4.970129576098    -0.888852558484    12.000000000000
      Gh(C)           4.893008229321     2.825183510864    -0.890747067120    12.000000000000
      Gh(C)          -1.226697008489    -3.543475486239    -0.897890828899    12.000000000000
      Gh(C)          -3.681818976526     0.709320477570    -0.898431738028    12.000000000000
      Gh(C)           3.693147101150    -3.542805830553    -0.888873102183    12.000000000000
      Gh(C)          -1.221432251994     4.970123808701    -0.888669063112    12.000000000000
      Gh(C)           6.134770972926     0.680543457943    -0.891193960929    12.000000000000
      Gh(C)           3.656788880610     4.972948754405    -0.891005298060    12.000000000000
      Gh(C)          -2.455126907733    -2.834219582223    -0.882768200655    12.000000000000
      Gh(C)          -3.681819179061    -0.709330192631    -0.882254312911    12.000000000000
      Gh(C)           4.893012617914    -2.825204594794    -0.890135915225    12.000000000000
      Gh(C)          -0.000001073113     5.650442876870    -0.889900371819    12.000000000000
      Gh(C)           6.134775112332    -0.680559343237    -0.889928640413    12.000000000000
      Gh(C)           2.478131482856     5.653572262169    -0.889716518410    12.000000000000
      Gh(C)           1.221422404738    -4.970131544095    -0.891652055507    12.000000000000
      Gh(C)          -3.693162383965     3.542792465030    -0.891748428383    12.000000000000
      Gh(C)          -1.221428520945    -4.970122792758    -0.891764817340    12.000000000000
      Gh(C)          -4.914521807942     1.427170957833    -0.891886790471    12.000000000000
      Gh(C)           3.656787019679    -4.972959715401    -0.889554797526    12.000000000000
      Gh(C)          -2.478138530106     5.653569933366    -0.889431993401    12.000000000000
      Gh(C)          -3.693141738564    -3.542794708141    -0.888989228339    12.000000000000
      Gh(C)          -4.914512483053    -1.427185489190    -0.888956295570    12.000000000000
      Gh(C)          -0.000006008926    -5.650442776176    -0.890295875940    12.000000000000
      Gh(C)          -4.893020484101     2.825184109757    -0.890757148980    12.000000000000
      Gh(C)           2.478125993298    -5.653578033051    -0.890645398318    12.000000000000
      Gh(C)          -3.656798710258     4.972951692879    -0.890828617685    12.000000000000
      Gh(C)          -4.892999478856    -2.825196256222    -0.890289950922    12.000000000000
      Gh(C)          -2.478128498083    -5.653570659169    -0.890920585965    12.000000000000
      Gh(C)          -6.134770503331     0.680544277094    -0.891219512631    12.000000000000
      Gh(C)          -3.656788833189    -4.972948512133    -0.889769085343    12.000000000000
      Gh(C)          -6.134765042913    -0.680558404644    -0.889949116208    12.000000000000
      Gh(H)           5.835288495816     3.369271405792    -0.886387741457     1.007825032230
      Gh(H)           7.073859172747     1.228212759737    -0.890732317536     1.007825032230
      Gh(H)           4.600663264174     5.512376313291    -0.890500097308     1.007825032230
      Gh(H)           5.835283387305    -3.369310545891    -0.894590382539     1.007825032230
      Gh(H)          -0.000012151306     6.738526184974    -0.894249616827     1.007825032230
      Gh(H)           7.073861171831    -1.228231431906    -0.890437378507     1.007825032230
      Gh(H)           2.473313731799     6.740679802232    -0.890183239340     1.007825032230
      Gh(H)           4.600668491381    -5.512380618338    -0.889964794694     1.007825032230
      Gh(H)          -2.473318680537     6.740677230444    -0.889881892715     1.007825032230
      Gh(H)          -0.000010268228    -6.738532665614    -0.885766190955     1.007825032230
      Gh(H)          -5.835301914343     3.369266461134    -0.886251719309     1.007825032230
      Gh(H)           2.473307923831    -6.740689863591    -0.890075067893     1.007825032230
      Gh(H)          -4.600674841208     5.512373537441    -0.890334768984     1.007825032230
      Gh(H)          -5.835279506835    -3.369293452942    -0.894869688420     1.007825032230
      Gh(H)          -2.473300347440    -6.740683567302    -0.890524384438     1.007825032230
      Gh(H)          -7.073857766768     1.228215983678    -0.890816309016     1.007825032230
      Gh(H)          -4.600673786085    -5.512367158949    -0.890137102717     1.007825032230
      Gh(H)          -7.073856934409    -1.228225121139    -0.890532234974     1.007825032230

  Running in c1 symmetry.

  Rotational constants: A =      0.00143  B =      0.00140  C =      0.00109 [cm^-1]
  Rotational constants: A =     42.72758  B =     42.11635  C =     32.56832 [MHz]
  Nuclear repulsion =  306.774908447733026

  Charge       = 1
  Multiplicity = 1
  Electrons    = 52
  Nalpha       = 26
  Nbeta        = 26

  ==> Algorithm <==

  SCF Algorithm Type is DF.
  DIIS enabled.
  MOM disabled.
  Fractional occupation disabled.
  Guess Type is SAD.
  Energy threshold   = 1.00e-08
  Density threshold  = 1.00e-08
  Integral threshold = 1.00e-12

  ==> Primary Basis <==

  Basis Set: JUN-CC-PVDZ
    Blend: JUN-CC-PVDZ
    Number of shells: 569
    Number of basis functions: 1233
    Number of Cartesian functions: 1294
    Spherical Harmonics?: true
    Max angular momentum: 2

   => Loading Basis Set <=

    Name: (JUN-CC-PVDZ AUX)
    Role: JKFIT
    Keyword: DF_BASIS_SCF
    atoms 1-2, 4-5, 10, 17-70 entry C          line   146 file /home/gridsan/tfroembgen/.conda/envs/psi4test/share/psi4/basis/jun-cc-pvdz-jkfit.gbs 
    atoms 3, 6                entry N          line   202 file /home/gridsan/tfroembgen/.conda/envs/psi4test/share/psi4/basis/jun-cc-pvdz-jkfit.gbs 
    atoms 7-9, 11-16, 71-88   entry H          line    70 file /home/gridsan/tfroembgen/.conda/envs/psi4test/share/psi4/basis/jun-cc-pvdz-jkfit.gbs 

  ==> Integral Setup <==

  ==> DiskDFJK: Density-Fitted J/K Matrices <==

    J tasked:                  Yes
    K tasked:                  Yes
    wK tasked:                  No
    OpenMP threads:             12
    Integrals threads:          12
    Memory [MiB]:            22888
    Algorithm:                Core
    Integral Cache:           LOAD
    Schwarz Cutoff:          1E-12
    Fitting Condition:       1E-10

   => Auxiliary Basis Set <=

  Basis Set: (JUN-CC-PVDZ AUX)
    Blend: JUN-CC-PVDZ-JKFIT
    Number of shells: 1890
    Number of basis functions: 5440
    Number of Cartesian functions: 6226
    Spherical Harmonics?: true
    Max angular momentum: 3

  Minimum eigenvalue in the overlap matrix is 8.3906228429E-10.
  Reciprocal condition number of the overlap matrix is 3.7509296426E-11.
    Using canonical orthogonalization.
  Overall, 14 of 1233 possible MOs eliminated.


  ==> Pre-Iterations <==

  SCF Guess: Superposition of Atomic Densities via on-the-fly atomic UHF (no occupation information).

   -------------------------
    Irrep   Nso     Nmo    
   -------------------------
     A       1233    1219 
   -------------------------
    Total    1233    1219
   -------------------------

  ==> Iterations <==

                           Total Energy        Delta E     RMS |[F,P]|

   @DF-RHF iter SAD:  -303.36534108147225   -3.03365e+02   0.00000e+00 
   @DF-RHF iter   1:  -303.16945259909562    1.95888e-01   3.44056e-04 ADIIS/DIIS
   @DF-RHF iter   2:  -303.28378422513703   -1.14332e-01   1.15868e-04 ADIIS/DIIS
   @DF-RHF iter   3:  -303.29523262725638   -1.14484e-02   4.53247e-05 DIIS
   @DF-RHF iter   4:  -303.29713484080503   -1.90221e-03   9.89230e-06 DIIS
   @DF-RHF iter   5:  -303.29724038996363   -1.05549e-04   2.41285e-06 DIIS
   @DF-RHF iter   6:  -303.29724965697415   -9.26701e-06   6.54448e-07 DIIS
   @DF-RHF iter   7:  -303.29725073051043   -1.07354e-06   3.32347e-07 DIIS
   @DF-RHF iter   8:  -303.29725098314680   -2.52636e-07   1.33723e-07 DIIS
   @DF-RHF iter   9:  -303.29725103167959   -4.85328e-08   3.37747e-08 DIIS
   @DF-RHF iter  10:  -303.29725103451517   -2.83558e-09   1.27052e-08 DIIS
   @DF-RHF iter  11:  -303.29725103476312   -2.47951e-10   3.00296e-09 DIIS
  Energy and wave function converged.


  ==> Post-Iterations <==

    Orbital Energies [Eh]
    ---------------------

    Doubly Occupied:                                                      

       1A    -15.834664     2A    -15.834134     3A    -11.529542  
       4A    -11.459851     5A    -11.458296     6A    -11.449658  
       7A    -11.449546     8A     -1.578224     9A     -1.433809  
      10A     -1.238651    11A     -1.189296    12A     -1.118855  
      13A     -1.022521    14A     -0.996952    15A     -0.917033  
      16A     -0.850515    17A     -0.816246    18A     -0.813188  
      19A     -0.790117    20A     -0.786218    21A     -0.781762  
      22A     -0.729690    23A     -0.725770    24A     -0.717092  
      25A     -0.596288    26A     -0.523854  

    Virtual:                                                              

      27A     -0.074288    28A     -0.066294    29A     -0.058102  
      30A     -0.053605    31A     -0.039095    32A     -0.038356  
      33A     -0.033085    34A     -0.031078    35A     -0.030867  
      36A     -0.028979    37A     -0.023885    38A     -0.015597  
      39A     -0.014314    40A     -0.012512    41A     -0.008888  
      42A     -0.006963    43A     -0.004695    44A     -0.004592  
      45A     -0.003543    46A      0.002019    47A      0.004613  
      48A      0.008243    49A      0.010873    50A      0.016883  
      51A      0.017264    52A      0.017842    53A      0.018951  
      54A      0.021239    55A      0.024216    56A      0.027572  
      57A      0.028974    58A      0.029950    59A      0.032492  
      60A      0.035496    61A      0.038745    62A      0.038809  
      63A      0.039967    64A      0.047156    65A      0.049254  
      66A      0.049739    67A      0.050701    68A      0.053320  
      69A      0.053648    70A      0.054779    71A      0.057216  
      72A      0.061832    73A      0.063140    74A      0.064643  
      75A      0.066901    76A      0.068750    77A      0.070198  
      78A      0.070907    79A      0.073097    80A      0.074803  
      81A      0.076828    82A      0.077652    83A      0.078167  
      84A      0.081981    85A      0.082296    86A      0.084553  
      87A      0.084869    88A      0.086072    89A      0.088121  
      90A      0.090421    91A      0.090667    92A      0.093126  
      93A      0.093130    94A      0.096935    95A      0.098932  
      96A      0.099208    97A      0.100134    98A      0.100600  
      99A      0.101115   100A      0.103385   101A      0.104072  
     102A      0.105811   103A      0.111372   104A      0.115530  
     105A      0.116106   106A      0.116671   107A      0.118814  
     108A      0.119262   109A      0.120321   110A      0.120430  
     111A      0.122356   112A      0.124199   113A      0.124732  
     114A      0.125901   115A      0.126160   116A      0.129303  
     117A      0.131801   118A      0.134138   119A      0.137382  
     120A      0.138354   121A      0.140278   122A      0.141019  
     123A      0.141211   124A      0.142399   125A      0.147362  
     126A      0.147718   127A      0.148376   128A      0.148901  
     129A      0.150243   130A      0.151230   131A      0.152801  
     132A      0.155224   133A      0.156007   134A      0.157075  
     135A      0.159769   136A      0.164820   137A      0.165628  
     138A      0.166182   139A      0.168251   140A      0.168729  
     141A      0.169133   142A      0.170097   143A      0.170769  
     144A      0.171748   145A      0.173473   146A      0.174409  
     147A      0.180598   148A      0.181393   149A      0.183036  
     150A      0.184800   151A      0.185065   152A      0.186116  
     153A      0.186260   154A      0.187037   155A      0.188260  
     156A      0.190009   157A      0.193083   158A      0.193482  
     159A      0.195993   160A      0.197015   161A      0.197668  
     162A      0.197955   163A      0.200515   164A      0.207179  
     165A      0.211940   166A      0.212858   167A      0.213853  
     168A      0.214312   169A      0.214520   170A      0.219116  
     171A      0.219856   172A      0.221589   173A      0.222145  
     174A      0.222476   175A      0.222629   176A      0.225225  
     177A      0.226063   178A      0.226495   179A      0.228867  
     180A      0.229730   181A      0.231784   182A      0.232407  
     183A      0.232681   184A      0.233107   185A      0.238142  
     186A      0.238323   187A      0.240610   188A      0.242959  
     189A      0.244975   190A      0.247368   191A      0.248736  
     192A      0.249885   193A      0.254200   194A      0.254284  
     195A      0.258043   196A      0.258722   197A      0.265440  
     198A      0.266777   199A      0.268566   200A      0.271000  
     201A      0.271727   202A      0.273961   203A      0.274182  
     204A      0.276060   205A      0.276594   206A      0.278958  
     207A      0.285759   208A      0.286827   209A      0.287720  
     210A      0.291164   211A      0.291491   212A      0.292564  
     213A      0.296588   214A      0.297517   215A      0.298303  
     216A      0.299285   217A      0.299443   218A      0.300512  
     219A      0.304387   220A      0.306079   221A      0.307980  
     222A      0.308299   223A      0.310276   224A      0.313283  
     225A      0.315201   226A      0.317117   227A      0.317730  
     228A      0.318546   229A      0.322728   230A      0.324633  
     231A      0.324711   232A      0.326456   233A      0.332658  
     234A      0.332916   235A      0.335865   236A      0.341342  
     237A      0.343389   238A      0.346276   239A      0.347804  
     240A      0.348432   241A      0.353063   242A      0.353767  
     243A      0.356319   244A      0.359468   245A      0.361141  
     246A      0.361761   247A      0.368676   248A      0.370236  
     249A      0.372323   250A      0.373298   251A      0.373822  
     252A      0.374340   253A      0.375302   254A      0.375873  
     255A      0.377653   256A      0.378265   257A      0.379625  
     258A      0.388714   259A      0.389699   260A      0.390061  
     261A      0.391898   262A      0.392941   263A      0.394298  
     264A      0.397218   265A      0.398088   266A      0.398315  
     267A      0.399591   268A      0.400248   269A      0.405076  
     270A      0.406916   271A      0.410062   272A      0.410549  
     273A      0.412022   274A      0.412276   275A      0.416024  
     276A      0.416638   277A      0.416943   278A      0.417861  
     279A      0.420156   280A      0.421076   281A      0.424360  
     282A      0.426543   283A      0.427728   284A      0.429810  
     285A      0.430344   286A      0.435514   287A      0.436468  
     288A      0.437500   289A      0.437964   290A      0.440883  
     291A      0.441824   292A      0.447840   293A      0.449879  
     294A      0.452815   295A      0.453133   296A      0.457173  
     297A      0.458403   298A      0.460587   299A      0.460755  
     300A      0.467391   301A      0.469347   302A      0.470902  
     303A      0.471943   304A      0.472637   305A      0.473401  
     306A      0.474152   307A      0.476016   308A      0.478139  
     309A      0.485139   310A      0.486820   311A      0.488621  
     312A      0.488687   313A      0.490264   314A      0.491317  
     315A      0.492271   316A      0.504548   317A      0.508406  
     318A      0.510143   319A      0.510212   320A      0.510933  
     321A      0.516298   322A      0.516531   323A      0.517813  
     324A      0.518953   325A      0.519599   326A      0.520768  
     327A      0.523654   328A      0.524383   329A      0.528960  
     330A      0.540160   331A      0.540519   332A      0.540858  
     333A      0.541250   334A      0.542379   335A      0.542782  
     336A      0.551778   337A      0.551849   338A      0.558974  
     339A      0.559245   340A      0.561146   341A      0.561453  
     342A      0.562238   343A      0.563755   344A      0.573963  
     345A      0.574254   346A      0.574847   347A      0.578969  
     348A      0.583465   349A      0.587127   350A      0.587266  
     351A      0.587775   352A      0.589088   353A      0.593145  
     354A      0.599831   355A      0.603233   356A      0.605508  
     357A      0.613230   358A      0.618011   359A      0.619461  
     360A      0.619507   361A      0.621126   362A      0.621233  
     363A      0.622433   364A      0.624511   365A      0.630512  
     366A      0.631487   367A      0.632371   368A      0.632841  
     369A      0.638851   370A      0.641758   371A      0.642401  
     372A      0.643579   373A      0.647417   374A      0.647516  
     375A      0.648057   376A      0.648961   377A      0.650139  
     378A      0.652276   379A      0.661217   380A      0.664770  
     381A      0.665129   382A      0.665508   383A      0.665945  
     384A      0.666681   385A      0.672943   386A      0.682060  
     387A      0.686781   388A      0.690393   389A      0.690847  
     390A      0.700000   391A      0.702207   392A      0.702631  
     393A      0.704039   394A      0.705019   395A      0.706340  
     396A      0.707331   397A      0.707840   398A      0.708831  
     399A      0.709152   400A      0.709702   401A      0.712155  
     402A      0.714678   403A      0.715059   404A      0.716729  
     405A      0.718588   406A      0.719753   407A      0.726610  
     408A      0.728770   409A      0.729005   410A      0.732133  
     411A      0.733110   412A      0.736899   413A      0.737308  
     414A      0.738583   415A      0.743199   416A      0.744579  
     417A      0.747404   418A      0.747618   419A      0.748321  
     420A      0.750678   421A      0.753597   422A      0.758476  
     423A      0.760281   424A      0.781950   425A      0.785667  
     426A      0.787013   427A      0.787175   428A      0.790815  
     429A      0.790915   430A      0.801135   431A      0.801228  
     432A      0.810711   433A      0.816590   434A      0.821436  
     435A      0.822411   436A      0.822743   437A      0.827940  
     438A      0.828186   439A      0.831952   440A      0.832297  
     441A      0.840169   442A      0.840252   443A      0.847255  
     444A      0.851793   445A      0.859096   446A      0.865382  
     447A      0.865460   448A      0.888626   449A      0.889389  
     450A      0.901316   451A      0.901460   452A      0.903264  
     453A      0.909860   454A      0.909896   455A      0.919146  
     456A      0.932240   457A      0.941483   458A      0.941584  
     459A      0.944679   460A      0.950583   461A      0.952167  
     462A      0.962071   463A      0.968565   464A      0.969023  
     465A      0.978288   466A      0.982599   467A      0.983572  
     468A      0.983821   469A      1.000593   470A      1.007082  
     471A      1.007109   472A      1.009275   473A      1.009393  
     474A      1.021398   475A      1.034154   476A      1.038711  
     477A      1.044246   478A      1.044495   479A      1.046722  
     480A      1.066174   481A      1.095777   482A      1.095806  
     483A      1.102141   484A      1.102363   485A      1.103005  
     486A      1.116208   487A      1.118360   488A      1.124264  
     489A      1.124431   490A      1.125514   491A      1.128494  
     492A      1.137683   493A      1.137787   494A      1.140372  
     495A      1.142855   496A      1.152589   497A      1.161126  
     498A      1.161188   499A      1.162560   500A      1.169386  
     501A      1.170321   502A      1.228705   503A      1.236802  
     504A      1.236820   505A      1.243959   506A      1.247095  
     507A      1.247254   508A      1.263021   509A      1.263255  
     510A      1.268131   511A      1.270195   512A      1.287300  
     513A      1.288038   514A      1.305203   515A      1.311447  
     516A      1.311534   517A      1.326214   518A      1.350976  
     519A      1.361866   520A      1.383755   521A      1.384223  
     522A      1.402220   523A      1.402614   524A      1.404148  
     525A      1.407719   526A      1.407988   527A      1.410317  
     528A      1.423519   529A      1.424247   530A      1.427990  
     531A      1.465395   532A      1.479446   533A      1.484498  
     534A      1.495700   535A      1.496048   536A      1.498246  
     537A      1.499710   538A      1.503529   539A      1.509821  
     540A      1.518721   541A      1.561888   542A      1.566497  
     543A      1.576463   544A      1.579160   545A      1.588144  
     546A      1.591551   547A      1.600210   548A      1.602357  
     549A      1.604327   550A      1.607393   551A      1.620351  
     552A      1.624250   553A      1.625420   554A      1.631792  
     555A      1.632557   556A      1.643880   557A      1.664191  
     558A      1.671676   559A      1.682166   560A      1.686504  
     561A      1.686847   562A      1.687814   563A      1.689183  
     564A      1.689677   565A      1.690937   566A      1.692383  
     567A      1.700820   568A      1.703546   569A      1.704001  
     570A      1.714777   571A      1.720349   572A      1.727985  
     573A      1.731207   574A      1.733577   575A      1.733998  
     576A      1.736577   577A      1.744274   578A      1.744873  
     579A      1.748642   580A      1.751190   581A      1.756683  
     582A      1.760771   583A      1.763592   584A      1.765868  
     585A      1.767221   586A      1.770442   587A      1.771447  
     588A      1.771707   589A      1.774116   590A      1.774708  
     591A      1.779018   592A      1.784277   593A      1.785672  
     594A      1.786762   595A      1.788959   596A      1.792031  
     597A      1.798764   598A      1.801774   599A      1.802105  
     600A      1.808486   601A      1.812873   602A      1.817197  
     603A      1.818645   604A      1.820428   605A      1.821396  
     606A      1.826223   607A      1.826303   608A      1.827927  
     609A      1.830130   610A      1.836913   611A      1.838284  
     612A      1.844938   613A      1.846692   614A      1.847815  
[...]
     793A      1.644235   794A      1.650088   795A      1.661058  
     796A      1.661273   797A      1.665149   798A      1.667534  
     799A      1.676264   800A      1.676445   801A      1.676784  
     802A      1.676859   803A      1.677040   804A      1.680713  
     805A      1.685634   806A      1.686675   807A      1.686779  
     808A      1.696086   809A      1.697578   810A      1.699244  
     811A      1.699280   812A      1.700935   813A      1.704770  
     814A      1.704858   815A      1.715867   816A      1.715890  
     817A      1.741716   818A      1.751424   819A      1.759810  
     820A      1.760404   821A      1.760499   822A      1.761109  
     823A      1.761763   824A      1.776744   825A      1.776763  
     826A      1.791338   827A      1.791609   828A      1.793615  
     829A      1.801770   830A      1.812657   831A      1.816559  
     832A      1.816943   833A      1.817047   834A      1.818653  
     835A      1.820323   836A      1.824681   837A      1.824841  
     838A      1.830038   839A      1.831040   840A      1.836713  
     841A      1.838527   842A      1.842431   843A      1.843276  
     844A      1.860590   845A      1.861250   846A      1.861406  
     847A      1.861544   848A      1.864213   849A      1.868849  
     850A      1.872186   851A      1.879153   852A      1.880290  
     853A      1.880491   854A      1.894921   855A      1.896250  
     856A      1.896386   857A      1.899599   858A      1.900562  
     859A      1.903009   860A      1.903190   861A      1.908836  
     862A      1.908953   863A      1.914851   864A      1.915237  
     865A      1.917760   866A      1.917891   867A      1.919269  
     868A      1.922023   869A      1.922141   870A      1.922720  
     871A      1.940611   872A      1.941875   873A      1.942266  
     874A      1.942970   875A      1.946620   876A      1.946832  
     877A      1.947181   878A      1.954270   879A      1.954959  
     880A      1.955378   881A      1.956218   882A      1.958068  
     883A      1.970746   884A      1.983033   885A      1.983513  
     886A      1.989784   887A      1.995640   888A      1.997155  
     889A      1.998730   890A      1.998876   891A      2.004358  
     892A      2.008454   893A      2.012725   894A      2.013064  
     895A      2.026178   896A      2.027855   897A      2.028633  
     898A      2.030076   899A      2.030144   900A      2.031254  
     901A      2.031405   902A      2.035658   903A      2.037721  
     904A      2.042677   905A      2.048200   906A      2.051414  
     907A      2.052064   908A      2.052724   909A      2.057703  
     910A      2.058511   911A      2.061202   912A      2.061574  
     913A      2.064251   914A      2.069023   915A      2.071108  
     916A      2.072085   917A      2.072787   918A      2.077446  
     919A      2.078402   920A      2.082449   921A      2.084415  
     922A      2.084770   923A      2.092022   924A      2.093467  
     925A      2.095250   926A      2.096481   927A      2.096963  
     928A      2.100297   929A      2.100658   930A      2.100721  
     931A      2.107439   932A      2.108436   933A      2.108822  
     934A      2.110450   935A      2.110907   936A      2.113041  
     937A      2.114756   938A      2.118097   939A      2.119381  
     940A      2.119841   941A      2.120891   942A      2.121304  
     943A      2.126411   944A      2.126816   945A      2.129317  
     946A      2.134176   947A      2.134694   948A      2.135982  
     949A      2.136209   950A      2.138218   951A      2.141879  
     952A      2.143243   953A      2.143346   954A      2.155749  
     955A      2.159741   956A      2.159918   957A      2.162930  
     958A      2.163259   959A      2.168025   960A      2.171781  
     961A      2.178644   962A      2.179026   963A      2.190169  
     964A      2.190445   965A      2.192501   966A      2.193855  
     967A      2.195013   968A      2.195891   969A      2.196329  
     970A      2.199239   971A      2.206496   972A      2.219678  
     973A      2.220292   974A      2.220419   975A      2.220674  
     976A      2.227998   977A      2.228188   978A      2.228952  
     979A      2.229215   980A      2.243385   981A      2.243739  
     982A      2.244326   983A      2.244711   984A      2.247239  
     985A      2.259786   986A      2.260208   987A      2.260983  
     988A      2.270220   989A      2.270224   990A      2.272066  
     991A      2.272083   992A      2.274947   993A      2.281078  
     994A      2.283760   995A      2.300198   996A      2.302044  
     997A      2.306683   998A      2.310531   999A      2.312494  
    1000A      2.317955  1001A      2.321531  1002A      2.322353  
    1003A      2.331021  1004A      2.331067  1005A      2.331180  
    1006A      2.334026  1007A      2.337782  1008A      2.345988  
    1009A      2.350937  1010A      2.351562  1011A      2.352494  
    1012A      2.352874  1013A      2.366382  1014A      2.366566  
    1015A      2.374721  1016A      2.379461  1017A      2.389082  
    1018A      2.415880  1019A      2.424017  1020A      2.424390  
    1021A      2.424422  1022A      2.436459  1023A      2.441146  
    1024A      2.441381  1025A      2.448253  1026A      2.451473  
    1027A      2.461006  1028A      2.470137  1029A      2.472936  
    1030A      2.473068  1031A      2.474750  1032A      2.481862  
    1033A      2.485849  1034A      2.486371  1035A      2.502295  
    1036A      2.509921  1037A      2.519474  1038A      2.529832  
    1039A      2.530021  1040A      2.543756  1041A      2.545554  
    1042A      2.545759  1043A      2.554610  1044A      2.554655  
    1045A      2.554816  1046A      2.559845  1047A      2.559871  
    1048A      2.572993  1049A      2.573026  1050A      2.574621  
    1051A      2.575265  1052A      2.579288  1053A      2.586251  
    1054A      2.586395  1055A      2.587367  1056A      2.589840  
    1057A      2.591440  1058A      2.606531  1059A      2.623511  
    1060A      2.623683  1061A      2.625141  1062A      2.631491  
    1063A      2.632107  1064A      2.637372  1065A      2.641228  
    1066A      2.641291  1067A      2.648590  1068A      2.650896  
    1069A      2.651276  1070A      2.655427  1071A      2.656891  
    1072A      2.666021  1073A      2.681014  1074A      2.682390  
    1075A      2.683338  1076A      2.684029  1077A      2.686927  
    1078A      2.702182  1079A      2.702482  1080A      2.713023  
    1081A      2.713034  1082A      2.718716  1083A      2.718752  
    1084A      2.722957  1085A      2.723192  1086A      2.738036  
    1087A      2.739661  1088A      2.751304  1089A      2.752625  
    1090A      2.753567  1091A      2.772691  1092A      2.777957  
    1093A      2.794715  1094A      2.794907  1095A      2.812712  
    1096A      2.818172  1097A      2.827168  1098A      2.828151  
    1099A      2.837945  1100A      2.851674  1101A      2.852739  
    1102A      2.856036  1103A      2.858332  1104A      2.859852  
    1105A      2.859992  1106A      2.867428  1107A      2.876752  
    1108A      2.894603  1109A      2.915010  1110A      2.917551  
    1111A      2.918025  1112A      2.923942  1113A      2.925784  
    1114A      2.933758  1115A      2.933914  1116A      2.948809  
    1117A      2.949742  1118A      2.950043  1119A      2.963039  
    1120A      2.975440  1121A      2.998476  1122A      3.007816  
    1123A      3.008171  1124A      3.011872  1125A      3.017939  
    1126A      3.029513  1127A      3.041077  1128A      3.064315  
    1129A      3.064346  1130A      3.070897  1131A      3.070979  
    1132A      3.109445  1133A      3.110319  1134A      3.128464  
    1135A      3.129729  1136A      3.129977  1137A      3.137460  
    1138A      3.145628  1139A      3.146441  1140A      3.146893  
    1141A      3.148207  1142A      3.149405  1143A      3.150620  
    1144A      3.157941  1145A      3.158504  1146A      3.165964  
    1147A      3.166475  1148A      3.191793  1149A      3.211179  
    1150A      3.218780  1151A      3.237502  1152A      3.273246  
    1153A      3.277015  1154A      3.277147  1155A      3.281785  
    1156A      3.282111  1157A      3.288474  1158A      3.304971  
    1159A      3.319006  1160A      3.395412  1161A      3.416529  
    1162A      3.417085  1163A      3.442934  1164A      3.481604  
    1165A      3.484165  1166A      3.524884  1167A      3.549347  
    1168A      3.571787  1169A      3.577302  1170A      3.579266  
    1171A      3.593860  1172A      3.626551  1173A      3.628535  
    1174A      3.644918  1175A      3.662954  1176A      3.668354  
    1177A      3.757889  1178A      3.769241  1179A      3.782789  
    1180A      3.783786  1181A      3.816579  1182A      3.867995  
    1183A      3.870842  1184A      3.870850  1185A      3.913165  
    1186A      3.913313  1187A      3.958382  1188A      3.976917  
    1189A      4.010884  1190A      4.033057  1191A      4.044803  
    1192A      4.081112  1193A      4.207891  1194A      4.209220  
    1195A      4.351631  1196A      4.368724  1197A      4.483587  
    1198A      4.735270  1199A      4.775412  1200A      4.829834  
    1201A      4.847987  1202A      4.936960  1203A      5.049198  
    1204A      5.056969  1205A      5.065838  1206A      5.110962  
    1207A      5.125733  1208A      5.390523  1209A      5.422052  
    1210A      5.734164  1211A      5.750745  1212A      6.067236  
    1213A     18.201072  1214A     18.453063  1215A     18.470908  
    1216A     18.559104  1217A     18.833504  1218A     25.342176  
    1219A     25.375791  

    Final Occupation by Irrep:
              A 
    DOCC [   171 ]
    NA   [   171 ]
    NB   [   171 ]

  @DF-RHF Final Energy: -2055.89181398975052

   => Energetics <=

    Nuclear Repulsion Energy =           6452.5568002797772351
    One-Electron Energy =              -15636.4318675308950333
    Two-Electron Energy =                7127.9832532613672811
    Total Energy =                      -2055.8918139897505171

Computation Completed


Properties will be evaluated at   0.000000,   0.000000,   0.000000 [a0]

Properties computed using the SCF density matrix


 Multipole Moments:

 ------------------------------------------------------------------------------------
     Multipole            Electronic (a.u.)      Nuclear  (a.u.)        Total (a.u.)
 ------------------------------------------------------------------------------------

 L = 1.  Multiply by 2.5417464519 to convert [e a0] to [Debye]
 Dipole X            :          0.0000991           -0.0000085            0.0000906
 Dipole Y            :          0.0028639           -0.0028843           -0.0000203
 Dipole Z            :        575.4223269         -575.4256281           -0.0033013
 Magnitude           :                                                    0.0033026

 ------------------------------------------------------------------------------------

*** tstop() called on d-3-8-3 at Mon Jan 22 17:25:31 2024
Module time:
	user time   =    2343.64 seconds =      39.06 minutes
	system time =      48.54 seconds =       0.81 minutes
	total time  =        416 seconds =       6.93 minutes
Total time:
	user time   =    7606.46 seconds =     126.77 minutes
	system time =     151.89 seconds =       2.53 minutes
	total time  =       1075 seconds =      17.92 minutes
  Constructing Basis Sets for SAPT...

   => Loading Basis Set <=

    Name: (JUN-CC-PVDZ AUX)
    Role: RIFIT
    Keyword: DF_BASIS_SAPT
    atoms 1-2, 4-5, 10, 17-70 entry C          line   100 file /home/gridsan/tfroembgen/.conda/envs/psi4test/share/psi4/basis/jun-cc-pvdz-ri.gbs 
    atoms 3, 6                entry N          line   144 file /home/gridsan/tfroembgen/.conda/envs/psi4test/share/psi4/basis/jun-cc-pvdz-ri.gbs 
    atoms 7-9, 11-16, 71-88   entry H          line    30 file /home/gridsan/tfroembgen/.conda/envs/psi4test/share/psi4/basis/jun-cc-pvdz-ri.gbs 

   => Loading Basis Set <=

    Name: (JUN-CC-PVDZ AUX)
    Role: JKFIT
    Keyword: DF_BASIS_ELST
    atoms 1-2, 4-5, 10, 17-70 entry C          line   146 file /home/gridsan/tfroembgen/.conda/envs/psi4test/share/psi4/basis/jun-cc-pvdz-jkfit.gbs 
    atoms 3, 6                entry N          line   202 file /home/gridsan/tfroembgen/.conda/envs/psi4test/share/psi4/basis/jun-cc-pvdz-jkfit.gbs 
    atoms 7-9, 11-16, 71-88   entry H          line    70 file /home/gridsan/tfroembgen/.conda/envs/psi4test/share/psi4/basis/jun-cc-pvdz-jkfit.gbs 


  //>>>>>>>>>>>>>>>>>>>>>>>>>>>>>>>>>>>//
  //               SSAPT0              //
  //<<<<<<<<<<<<<<<<<<<<<<<<<<<<<<<<<<<//


*** tstart() called on d-3-8-3
*** at Mon Jan 22 17:25:32 2024

        SAPT0  
    Ed Hohenstein
     6 June 2009

      Orbital Information
  --------------------------
    NSO        =      1233
    NMO        =      1219
    NRI        =      4343
    NRI (Elst) =      5440
    NOCC A     =        26
    NOCC B     =       171
    FOCC A     =         7
    FOCC B     =        54
    NVIR A     =      1193
    NVIR B     =      1048

    Elst10,r            =    -0.006859464756 [Eh]
    Exch10              =    -0.000000327601 [Eh]
    Exch10 (S^2)        =    -0.000000327601 [Eh]

    Iter     Energy [mEh]          dE [mEh]         Residual      Time [s]
       1      -0.01553834       0.015538343       1.085580153           279
       2      -0.01411270      -0.001425642       0.224128735           578
       3      -0.01521557       0.001102872       0.053607012           823
       4      -0.01523846       0.000022887       0.017226551          1023
       5      -0.01520925      -0.000029207       0.004377767          1244
       6      -0.01520981       0.000000559       0.002417603          1544
       7      -0.01521127       0.000001459       0.000970290          1816
       8      -0.01521130       0.000000025       0.000354782          1967
       9      -0.01521115      -0.000000144       0.000097404          2294
      10      -0.01521113      -0.000000026       0.000021563          2344
      11      -0.01521114       0.000000010       0.000007716          2528
      12      -0.01521114       0.000000002       0.000002400          2718
      13      -0.01521114      -0.000000001       0.000000895          3024

    CHF Iterations converged


    Iter     Energy [mEh]          dE [mEh]         Residual      Time [s]
       1      -2.59770211       2.597702105      26.471075793           272
       2      -1.77710667      -0.820595436       3.248849323           580
       3      -1.78261683       0.005510157       1.225568185           613
       4      -1.82569014       0.043073313       0.278517507           645
       5      -1.82764908       0.001958944       0.076373380           670
       6      -1.82679886      -0.000850226       0.035562909           710
       7      -1.82651050      -0.000288357       0.015870360           732
       8      -1.82665374       0.000143236       0.011195049           758
       9      -1.82670728       0.000053546       0.006630086           785
      10      -1.82667142      -0.000035859       0.004260603           807
      11      -1.82665631      -0.000015118       0.001967443           879
      12      -1.82666142       0.000005114       0.000862971           918
      13      -1.82666489       0.000003467       0.000351905           945
      14      -1.82666460      -0.000000282       0.000170108           968
      15      -1.82666391      -0.000000691       0.000098286          1007
      16      -1.82666372      -0.000000189       0.000044759          1048
      17      -1.82666398       0.000000258       0.000016816          1103
      18      -1.82666398       0.000000002       0.000006771          1146
      19      -1.82666396      -0.000000025       0.000003581          1169
      20      -1.82666395      -0.000000006       0.000001313          1208
      21      -1.82666396       0.000000006       0.000000579          1367

    CHF Iterations converged

    Ind20,r (A<-B)      =    -0.000015211138 [Eh]
    Ind20,r (B<-A)      =    -0.001826663958 [Eh]
    Ind20,r             =    -0.001841875096 [Eh]
    Exch-Ind20,r (A<-B) =     0.000000057277 [Eh]
    Exch-Ind20,r (B<-A) =     0.000000321662 [Eh]
    Exch-Ind20,r        =     0.000000378939 [Eh]
    Disp20              =    -0.001209338281 [Eh]
    Disp20 (SS)         =    -0.000604669140 [Eh]
    Disp20 (OS)         =    -0.000604669140 [Eh]
    Exch-Disp20         =     0.000000128591 [Eh]
    Exch-Disp20 (SS)    =     0.000000098489 [Eh]
    Exch-Disp20 (OS)    =     0.000000030102 [Eh]

    SAPT Results 
  --------------------------------------------------------------------------------------------------------
    Electrostatics                 -6.85946476 [mEh]      -4.30437912 [kcal/mol]     -18.00952224 [kJ/mol]
      Elst10,r                     -6.85946476 [mEh]      -4.30437912 [kcal/mol]     -18.00952224 [kJ/mol]

    Exchange                       -0.00032760 [mEh]      -0.00020557 [kcal/mol]      -0.00086012 [kJ/mol]
      Exch10                       -0.00032760 [mEh]      -0.00020557 [kcal/mol]      -0.00086012 [kJ/mol]
      Exch10(S^2)                  -0.00032760 [mEh]      -0.00020557 [kcal/mol]      -0.00086012 [kJ/mol]

    Induction                      -1.86758220 [mEh]      -1.17192552 [kcal/mol]      -4.90333638 [kJ/mol]
      Ind20,r                      -1.84187510 [mEh]      -1.15579407 [kcal/mol]      -4.83584240 [kJ/mol]
      Exch-Ind20,r                  0.00037894 [mEh]       0.00023779 [kcal/mol]       0.00099490 [kJ/mol]
      delta HF,r (2)               -0.02608604 [mEh]      -0.01636924 [kcal/mol]      -0.06848888 [kJ/mol]

    Dispersion                     -1.20920969 [mEh]      -0.75879054 [kcal/mol]      -3.17477960 [kJ/mol]
      Disp20                       -1.20933828 [mEh]      -0.75887123 [kcal/mol]      -3.17511722 [kJ/mol]
      Exch-Disp20                   0.00012859 [mEh]       0.00008069 [kcal/mol]       0.00033762 [kJ/mol]
      Disp20 (SS)                  -0.60466914 [mEh]      -0.37943561 [kcal/mol]      -1.58755861 [kJ/mol]
      Disp20 (OS)                  -0.60466914 [mEh]      -0.37943561 [kcal/mol]      -1.58755861 [kJ/mol]
      Exch-Disp20 (SS)              0.00009849 [mEh]       0.00006180 [kcal/mol]       0.00025858 [kJ/mol]
      Exch-Disp20 (OS)              0.00003010 [mEh]       0.00001889 [kcal/mol]       0.00007903 [kJ/mol]

  Total HF                         -8.72737455 [mEh]      -5.47651021 [kcal/mol]     -22.91371873 [kJ/mol]
  Total SAPT0                      -9.93658424 [mEh]      -6.23530075 [kcal/mol]     -26.08849833 [kJ/mol]

  Special recipe for scaled SAPT0 (see Manual):
    Electrostatics sSAPT0          -6.85946476 [mEh]      -4.30437912 [kcal/mol]     -18.00952224 [kJ/mol]
    Exchange sSAPT0                -0.00032760 [mEh]      -0.00020557 [kcal/mol]      -0.00086012 [kJ/mol]
    Induction sSAPT0               -1.86758220 [mEh]      -1.17192552 [kcal/mol]      -4.90333638 [kJ/mol]
    Dispersion sSAPT0              -1.20920969 [mEh]      -0.75879054 [kcal/mol]      -3.17477960 [kJ/mol]
  Total sSAPT0                     -9.93658424 [mEh]      -6.23530075 [kcal/mol]     -26.08849833 [kJ/mol]
  --------------------------------------------------------------------------------------------------------

*** tstop() called on d-3-8-3 at Mon Jan 22 19:30:19 2024
Module time:
	user time   =    7802.56 seconds =     130.04 minutes
	system time =    1139.37 seconds =      18.99 minutes
	total time  =       7487 seconds =     124.78 minutes
Total time:
	user time   =   15409.91 seconds =     256.83 minutes
	system time =    1291.27 seconds =      21.52 minutes
	total time  =       8563 seconds =     142.72 minutes

    Psi4 stopped on: Monday, 22 January 2024 07:30PM
    Psi4 wall time for execution: 2:22:44.22

*** Psi4 exiting successfully. Buy a developer a beer!
