
    -----------------------------------------------------------------------
          Psi4: An Open-Source Ab Initio Electronic Structure Package
                               Psi4 1.9 release

                         Git: Rev {} zzzzzzz 


    D. G. A. Smith, L. A. Burns, A. C. Simmonett, R. M. Parrish,
    M. C. Schieber, R. Galvelis, P. Kraus, H. Kruse, R. Di Remigio,
    A. Alenaizan, A. M. James, S. Lehtola, J. P. Misiewicz, M. Scheurer,
    R. A. Shaw, J. B. Schriber, Y. Xie, Z. L. Glick, D. A. Sirianni,
    J. S. O'Brien, J. M. Waldrop, A. Kumar, E. G. Hohenstein,
    B. P. Pritchard, B. R. Brooks, H. F. Schaefer III, A. Yu. Sokolov,
    K. Patkowski, A. E. DePrince III, U. Bozkaya, R. A. King,
    F. A. Evangelista, J. M. Turney, T. D. Crawford, C. D. Sherrill,
    J. Chem. Phys. 152(18) 184108 (2020). https://doi.org/10.1063/5.0006002

                            Additional Code Authors
    E. T. Seidl, C. L. Janssen, E. F. Valeev, M. L. Leininger,
    J. F. Gonthier, R. M. Richard, H. R. McAlexander, M. Saitow, X. Wang,
    P. Verma, M. H. Lechner, A. Jiang, S. Behnle, A. G. Heide,
    M. F. Herbst, and D. L. Poole

             Previous Authors, Complete List of Code Contributors,
                       and Citations for Specific Modules
    https://github.com/psi4/psi4/blob/master/codemeta.json
    https://github.com/psi4/psi4/graphs/contributors
    http://psicode.org/psi4manual/master/introduction.html#citing-psifour

    -----------------------------------------------------------------------


    Psi4 started on: Saturday, 03 February 2024 10:48AM

    Process ID: 1563758
    Host:       n2cn1050
    PSIDATADIR: /opt/software/pc2/EB-SW/software/PSI4/1.9-foss-2022a/share/psi4
    Memory:     500.0 MiB
    Threads:    16
    
  ==> Input File <==

--------------------------------------------------------------------------
memory 32 GB # how much memory is available ! Depends on the nodes/cores !

molecule dimer {
# monomer A
+1 1    # Charge and multiplicity
C  0.680067 -0.008042 -4.615929
C -0.680504 -0.006014 -4.615545
N -1.085635 -0.005016 -3.297221
C  0.000108 -0.001740 -2.515820
C -2.477365  0.044390 -2.829242
N  1.085222 -0.005016 -3.297221
H  1.385146 -0.015870 -5.433368
H -1.385302 -0.006204 -5.433214
H -0.000009  0.000007 -1.434731
C  2.478117 -0.021908 -2.832123
H  2.490592  0.005437 -1.741870
H  2.967028 -0.935354 -3.179299
H  3.001428  0.853575 -3.223595
H -2.857359  1.066461 -2.909201
H -3.082679 -0.625694 -3.442306
H -2.518128 -0.282594 -1.789294
--
# monomer B
0 1     # Charge and multiplicity
C   1.22531237526482      0.70753866091955      0.00613762728373
C   1.22532433589282     -0.70753852257020     -0.00619318228664
C   -0.00000567409046      1.41496628609039     -0.00672680580738
C   2.45644923379077      1.41832825917820      0.00902448468363
C   0.00001130712078     -1.41497612663474      0.00347275151708
C   -1.22530046906674      0.70754574598412      0.00838914760619
C   2.45643823516184     -1.41832293188077     -0.00843833914343
C   -0.00000085313587      2.83680140328112     -0.00913035594137
C   3.68182717731192      0.70931832800114     -0.00808954934571
C   2.45512052870677      2.83422403348893     -0.00819210630633
C   3.68182158506039     -0.70933346742900      0.00798293467272
C   -1.22531311884624     -0.70752714354401     -0.00512042085974
C   1.22670006104402      3.54346985599427      0.00816696660346
C   0.00000526469929     -2.83678176723568      0.00832091913869
C   -2.45643555300670      1.41831729028492      0.00842454345199
C   2.45512389762097     -2.83422965658853      0.00783102630520
C   -1.22671388474763      3.54346943575023      0.00827029982280
C   4.91451777504333      1.42717324448953     -0.00160886631602
C   3.69315067131765      3.54279566454522     -0.00155906667985
C   -2.45643712022637     -1.41831290883911     -0.00846337726810
C   1.22670532178455     -3.54347386990643     -0.00780316414624
C   -2.45512491866593      2.83421703463423     -0.00818572995999
C   4.91452486062398     -1.42718653794377      0.00136387641845
C   1.22142509354026      4.97013443726031      0.00150231067809
C   4.89300870916237      2.82518837202648     -0.00039219795739
C   -1.22669652864725     -3.54347062507680     -0.00753595973677
C   -3.68181849668397      0.70932533873199     -0.00807686886569
C   3.69314758099218     -3.54280096939050      0.00148176697923
C   -1.22143177215231      4.97012866986289      0.00168580605083
C   6.13477145276790      0.68054831910577     -0.00083909176631
C   3.65678936045204      4.97295361556775     -0.00065042889723
C   -2.45512642789169     -2.83421472106065      0.00758666850712
C   -3.68181869921921     -0.70932533146830      0.00810055625144
C   4.89301309775526     -2.82519973363176      0.00021895393805
C   -0.00000059327114      5.65044773803267      0.00045449734393
C   6.13477559217374     -0.68055448207492      0.00042622874941
C   2.47813196269732      5.65357712333155      0.00063835075260
C   1.22142288457925     -4.97012668293268     -0.00129718634452
C   -3.69316190412301      3.54279732619245     -0.00139355922051
C   -1.22142804110313     -4.97011793159564     -0.00140994817719
C   -4.91452132810043      1.42717581899491     -0.00153192130862
C   3.65678749952045     -4.97295485423912      0.00080007163680
C   -2.47813805026426      5.65357479452875      0.00092287576113
C   -3.69314125872231     -3.54278984697859      0.00136564082345
C   -4.91451200321153     -1.42718062802730      0.00139857359209
C   -0.00000552908399     -5.65043791501335      0.00005899322272
C   -4.89302000425900      2.82518897091939     -0.00040227981744
C   2.47812647313991     -5.65357317188818     -0.00029052915548
C   -3.65679823041642      4.97295655404175     -0.00047374852278
C   -4.89299899901461     -2.82519139505969      0.00006491824035
C   -2.47812801824129     -5.65356579800621     -0.00056571680280
C   -6.13477002348955      0.68054913825639     -0.00086464346868
C   -3.65678835334731     -4.97294365097028      0.00058578382008
C   -6.13476456307132     -0.68055354348201      0.00040575295444
H   5.83528897565761      3.36927626695423      0.00396712770529
H   7.07385965258860      1.22821762089947     -0.00037744837300
H   4.60066374401555      5.51238117445323     -0.00014522814529
H   5.83528386714679     -3.36930568472863     -0.00423551337640
H   -0.00001167146422      6.73853104613662     -0.00389474766392
H   7.07386165167227     -1.22822657074368     -0.00008250934481
H   2.47331421164041      6.74068466339473      0.00017162982210
H   4.60066897122302     -5.51237575717576      0.00039007446835
H   -2.47331820069565      6.74068209160650      0.00047297644710
H   -0.00000978838621     -6.73852780445195      0.00458867820736
H   -5.83530143450167      3.36927132229595      0.00410314985360
H   2.47330840367253     -6.74068500242887      0.00027980126949
H   -4.60067436136587      5.51237839860371      0.00002010017831
H   -5.83527902699321     -3.36928859177951     -0.00451481925734
H   -2.47329986759855     -6.74067870613986     -0.00016951527498
H   -7.07385728692578      1.22822084484047     -0.00046143985387
H   -4.60067330624313     -5.51236229778631      0.00021776644566
H   -7.07385645456741     -1.22822025997701     -0.00017736581114

    units angstrom      # Angstroms are the default
    no_reorient         # Geometry fixed, default
    symmetry c1         # C1 symmetry, default
}

set {
    scf_type DF         # Density fitting, faster than exact integrals
    freeze_core True    # Freeze core electrons
    basis jun-cc-pVDZ   # Jun-cc-pVDZ basis set, recommended for sSAPT0 in https://doi.org/10.1063/1.4867135
}

energy('ssapt0')        # Compute sSAPT0 energy, includes also SAPT0
--------------------------------------------------------------------------

  Memory set to  29.802 GiB by Python driver.

Scratch directory: /tmp/
   => Loading Basis Set <=

    Name: JUN-CC-PVDZ
    Role: ORBITAL
    Keyword: BASIS
    atoms 1-2, 4-5, 10, 17-70 entry C          line   164 file /opt/software/pc2/EB-SW/software/PSI4/1.9-foss-2022a/share/psi4/basis/jun-cc-pvdz.gbs 
    atoms 3, 6                entry N          line   198 file /opt/software/pc2/EB-SW/software/PSI4/1.9-foss-2022a/share/psi4/basis/jun-cc-pvdz.gbs 
    atoms 7-9, 11-16, 71-88   entry H          line    36 file /opt/software/pc2/EB-SW/software/PSI4/1.9-foss-2022a/share/psi4/basis/jun-cc-pvdz.gbs 

   => Loading Basis Set <=

    Name: JUN-CC-PVDZ
    Role: ORBITAL
    Keyword: BASIS
    atoms 1-2, 4-5, 10, 17-70 entry C          line   164 file /opt/software/pc2/EB-SW/software/PSI4/1.9-foss-2022a/share/psi4/basis/jun-cc-pvdz.gbs 
    atoms 3, 6                entry N          line   198 file /opt/software/pc2/EB-SW/software/PSI4/1.9-foss-2022a/share/psi4/basis/jun-cc-pvdz.gbs 
    atoms 7-9, 11-16, 71-88   entry H          line    36 file /opt/software/pc2/EB-SW/software/PSI4/1.9-foss-2022a/share/psi4/basis/jun-cc-pvdz.gbs 


  //>>>>>>>>>>>>>>>>>>>>>>>>>>>>>>>>>>>//
  //              Dimer HF             //
  //<<<<<<<<<<<<<<<<<<<<<<<<<<<<<<<<<<<//

   => Libint2 <=

    Primary   basis highest AM E, G, H:  5, 4, 3
    Auxiliary basis highest AM E, G, H:  6, 5, 4
    Onebody   basis highest AM E, G, H:  6, 5, 4
    Solid Harmonics ordering:            gaussian

*** tstart() called on n2cn1050
*** at Sat Feb  3 10:49:01 2024

   => Loading Basis Set <=

    Name: JUN-CC-PVDZ
    Role: ORBITAL
    Keyword: BASIS
    atoms 1-2, 4-5, 10, 17-70 entry C          line   164 file /opt/software/pc2/EB-SW/software/PSI4/1.9-foss-2022a/share/psi4/basis/jun-cc-pvdz.gbs 
    atoms 3, 6                entry N          line   198 file /opt/software/pc2/EB-SW/software/PSI4/1.9-foss-2022a/share/psi4/basis/jun-cc-pvdz.gbs 
    atoms 7-9, 11-16, 71-88   entry H          line    36 file /opt/software/pc2/EB-SW/software/PSI4/1.9-foss-2022a/share/psi4/basis/jun-cc-pvdz.gbs 


         ---------------------------------------------------------
                                   SCF
               by Justin Turney, Rob Parrish, Andy Simmonett
                          and Daniel G. A. Smith
                              RHF Reference
                       16 Threads,  30517 MiB Core
         ---------------------------------------------------------

  ==> Geometry <==

    Molecular point group: c1
    Full point group: C1

    Geometry (in Angstrom), charge = 1, multiplicity = 1:

       Center              X                  Y                   Z               Mass       
    ------------   -----------------  -----------------  -----------------  -----------------
         C            0.680066520158    -0.008042372515    -4.183472131283    12.000000000000
         C           -0.680504479842    -0.006014372515    -4.183088131283    12.000000000000
         N           -1.085635479842    -0.005016372515    -2.864764131283    14.003074004430
         C            0.000107520158    -0.001740372515    -2.083363131283    12.000000000000
         C           -2.477365479842     0.044389627485    -2.396785131283    12.000000000000
         N            1.085221520158    -0.005016372515    -2.864764131283    14.003074004430
         H            1.385145520158    -0.015870372515    -5.000911131283     1.007825032230
         H           -1.385302479842    -0.006204372515    -5.000757131283     1.007825032230
         H           -0.000009479842     0.000006627485    -1.002274131283     1.007825032230
         C            2.478116520158    -0.021908372515    -2.399666131283    12.000000000000
         H            2.490591520158     0.005436627485    -1.309413131283     1.007825032230
         H            2.967027520158    -0.935354372515    -2.746842131283     1.007825032230
         H            3.001427520158     0.853574627485    -2.791138131283     1.007825032230
         H           -2.857359479842     1.066460627485    -2.476744131283     1.007825032230
         H           -3.082679479842    -0.625694372515    -3.009849131283     1.007825032230
         H           -2.518128479842    -0.282594372515    -1.356837131283     1.007825032230
         C            1.225311895423     0.707538288405     0.438594496001    12.000000000000
         C            1.225323856051    -0.707538895085     0.426263686430    12.000000000000
         C           -0.000006153932     1.414965913575     0.425730062909    12.000000000000
         C            2.456448753949     1.418327886663     0.441481353400    12.000000000000
         C            0.000010827279    -1.414976499150     0.435929620234    12.000000000000
         C           -1.225300948908     0.707545373469     0.440846016323    12.000000000000
         C            2.456437755320    -1.418323304396     0.424018529573    12.000000000000
         C           -0.000001332978     2.836801030766     0.423326512775    12.000000000000
         C            3.681826697470     0.709317955486     0.424367319371    12.000000000000
         C            2.455120048865     2.834223660974     0.424264762411    12.000000000000
         C            3.681821105219    -0.709333839944     0.440439803390    12.000000000000
         C           -1.225313598688    -0.707527516059     0.427336447857    12.000000000000
         C            1.226699581202     3.543469483479     0.440623835320    12.000000000000
         C            0.000004784858    -2.836782139751     0.440777787856    12.000000000000
         C           -2.456436032848     1.418316917770     0.440881412169    12.000000000000
         C            2.455123417779    -2.834230029103     0.440287895022    12.000000000000
         C           -1.226714364589     3.543469063235     0.440727168540    12.000000000000
         C            4.914517295202     1.427172871975     0.430848002401    12.000000000000
         C            3.693150191476     3.542795292030     0.430897802037    12.000000000000
         C           -2.456437600068    -1.418313281354     0.423993491449    12.000000000000
         C            1.226704841943    -3.543474242421     0.424653704571    12.000000000000
         C           -2.455125398508     2.834216662119     0.424271138757    12.000000000000
         C            4.914524380782    -1.427186910459     0.433820745135    12.000000000000
         C            1.221424613699     4.970134064745     0.433959179395    12.000000000000
         C            4.893008229321     2.825187999512     0.432064670759    12.000000000000
         C           -1.226697008489    -3.543470997592     0.424920908980    12.000000000000
         C           -3.681818976526     0.709324966217     0.424379999851    12.000000000000
         C            3.693147101150    -3.542801341905     0.433938635696    12.000000000000
         C           -1.221432251994     4.970128297348     0.434142674768    12.000000000000
         C            6.134770972926     0.680547946591     0.431617776951    12.000000000000
         C            3.656788880610     4.972953243053     0.431806439820    12.000000000000
         C           -2.455126907733    -2.834215093576     0.440043537224    12.000000000000
         C           -3.681819179061    -0.709325703983     0.440557424968    12.000000000000
         C            4.893012617914    -2.825200106147     0.432675822655    12.000000000000
         C           -0.000001073113     5.650447365518     0.432911366061    12.000000000000
         C            6.134775112332    -0.680554854590     0.432883097466    12.000000000000
         C            2.478131482856     5.653576750817     0.433095219469    12.000000000000
         C            1.221422404738    -4.970127055448     0.431159682372    12.000000000000
         C           -3.693162383965     3.542796953677     0.431063309496    12.000000000000
         C           -1.221428520945    -4.970118304111     0.431046920540    12.000000000000
         C           -4.914521807942     1.427175446480     0.430924947408    12.000000000000
         C            3.656787019679    -4.972955226754     0.433256940354    12.000000000000
         C           -2.478138530106     5.653574422014     0.433379744478    12.000000000000
         C           -3.693141738564    -3.542790219494     0.433822509540    12.000000000000
         C           -4.914512483053    -1.427181000542     0.433855442309    12.000000000000
         C           -0.000006008926    -5.650438287528     0.432515861940    12.000000000000
         C           -4.893020484101     2.825188598404     0.432054588899    12.000000000000
         C            2.478125993298    -5.653573544403     0.432166339561    12.000000000000
         C           -3.656798710258     4.972956181527     0.431983120194    12.000000000000
         C           -4.892999478856    -2.825191767575     0.432521786957    12.000000000000
         C           -2.478128498083    -5.653566170521     0.431891151914    12.000000000000
         C           -6.134770503331     0.680548765741     0.431592225248    12.000000000000
         C           -3.656788833189    -4.972944023485     0.433042652537    12.000000000000
         C           -6.134765042913    -0.680553915997     0.432862621671    12.000000000000
         H            5.835288495816     3.369275894439     0.436423996422     1.007825032230
         H            7.073859172747     1.228217248385     0.432079420344     1.007825032230
         H            4.600663264174     5.512380801938     0.432311640572     1.007825032230
         H            5.835283387305    -3.369306057244     0.428221355340     1.007825032230
         H           -0.000012151306     6.738530673622     0.428562121053     1.007825032230
         H            7.073861171831    -1.228226943259     0.432374359372     1.007825032230
         H            2.473313731799     6.740684290880     0.432628498539     1.007825032230
         H            4.600668491381    -5.512376129691     0.432846943185     1.007825032230
         H           -2.473318680537     6.740681719092     0.432929845164     1.007825032230
         H           -0.000010268228    -6.738528176967     0.437045546924     1.007825032230
         H           -5.835301914343     3.369270949781     0.436560018570     1.007825032230
         H            2.473307923831    -6.740685374944     0.432736669986     1.007825032230
         H           -4.600674841208     5.512378026089     0.432476968895     1.007825032230
         H           -5.835279506835    -3.369288964294     0.427942049459     1.007825032230
         H           -2.473300347440    -6.740679078655     0.432287353442     1.007825032230
         H           -7.073857766768     1.228220472326     0.431995428863     1.007825032230
         H           -4.600673786085    -5.512362670301     0.432674635162     1.007825032230
         H           -7.073856934409    -1.228220632492     0.432279502906     1.007825032230

  Running in c1 symmetry.

  Rotational constants: A =      0.00195  B =      0.00190  C =      0.00109 [cm^-1]
  Rotational constants: A =     58.38733  B =     56.81649  C =     32.71081 [MHz]
  Nuclear repulsion = 8482.596875267883661

  Charge       = 1
  Multiplicity = 1
  Electrons    = 394
  Nalpha       = 197
  Nbeta        = 197

  ==> Algorithm <==

  SCF Algorithm Type is DF.
  DIIS enabled.
  MOM disabled.
  Fractional occupation disabled.
  Guess Type is SAD.
  Energy threshold   = 1.00e-08
  Density threshold  = 1.00e-08
  Integral threshold = 1.00e-12

  ==> Primary Basis <==

  Basis Set: JUN-CC-PVDZ
    Blend: JUN-CC-PVDZ
    Number of shells: 569
    Number of basis functions: 1233
    Number of Cartesian functions: 1294
    Spherical Harmonics?: true
    Max angular momentum: 2

   => Loading Basis Set <=

    Name: (JUN-CC-PVDZ AUX)
    Role: JKFIT
    Keyword: DF_BASIS_SCF
    atoms 1-2, 4-5, 10, 17-70 entry C          line   146 file /opt/software/pc2/EB-SW/software/PSI4/1.9-foss-2022a/share/psi4/basis/jun-cc-pvdz-jkfit.gbs 
    atoms 3, 6                entry N          line   202 file /opt/software/pc2/EB-SW/software/PSI4/1.9-foss-2022a/share/psi4/basis/jun-cc-pvdz-jkfit.gbs 
    atoms 7-9, 11-16, 71-88   entry H          line    70 file /opt/software/pc2/EB-SW/software/PSI4/1.9-foss-2022a/share/psi4/basis/jun-cc-pvdz-jkfit.gbs 

  ==> Integral Setup <==

  ==> DiskDFJK: Density-Fitted J/K Matrices <==

    J tasked:                  Yes
    K tasked:                  Yes
    wK tasked:                  No
    OpenMP threads:             16
    Integrals threads:          16
    Memory [MiB]:            22888
    Algorithm:                Disk
    Integral Cache:           SAVE
    Schwarz Cutoff:          1E-12
    Fitting Condition:       1E-10

   => Auxiliary Basis Set <=

  Basis Set: (JUN-CC-PVDZ AUX)
    Blend: JUN-CC-PVDZ-JKFIT
    Number of shells: 1890
    Number of basis functions: 5440
    Number of Cartesian functions: 6226
    Spherical Harmonics?: true
    Max angular momentum: 3

  Minimum eigenvalue in the overlap matrix is 2.7557596192E-10.
  Reciprocal condition number of the overlap matrix is 1.0461499447E-11.
    Using canonical orthogonalization.
  Overall, 14 of 1233 possible MOs eliminated.


  ==> Pre-Iterations <==

  SCF Guess: Superposition of Atomic Densities via on-the-fly atomic UHF (no occupation information).

   -------------------------
    Irrep   Nso     Nmo    
   -------------------------
     A       1233    1219 
   -------------------------
    Total    1233    1219
   -------------------------

  ==> Iterations <==

                           Total Energy        Delta E     RMS |[F,P]|

   @DF-RHF iter SAD: -2367.01532173147598   -2.36702e+03   0.00000e+00 
   @DF-RHF iter   1: -2358.14631379166030    8.86901e+00   9.37973e-04 DIIS/ADIIS
   @DF-RHF iter   2: -2359.03069469877346   -8.84381e-01   3.10430e-04 DIIS/ADIIS
   @DF-RHF iter   3: -2359.11577964311437   -8.50849e-02   1.18908e-04 DIIS/ADIIS
   @DF-RHF iter   4: -2359.12866797922425   -1.28883e-02   4.50516e-05 DIIS
   @DF-RHF iter   5: -2359.13056434895088   -1.89637e-03   1.02769e-05 DIIS
   @DF-RHF iter   6: -2359.13075271183561   -1.88363e-04   5.61775e-06 DIIS
   @DF-RHF iter   7: -2359.13082757232814   -7.48605e-05   2.66434e-06 DIIS
   @DF-RHF iter   8: -2359.13085121536415   -2.36430e-05   1.25577e-06 DIIS
   @DF-RHF iter   9: -2359.13085747624655   -6.26088e-06   3.06896e-07 DIIS
   @DF-RHF iter  10: -2359.13085775726950   -2.81023e-07   1.07578e-07 DIIS
   @DF-RHF iter  11: -2359.13085778046843   -2.31989e-08   4.40533e-08 DIIS
   @DF-RHF iter  12: -2359.13085778494406   -4.47562e-09   2.44402e-08 DIIS
   @DF-RHF iter  13: -2359.13085778607865   -1.13459e-09   6.64210e-09 DIIS
  Energy and wave function converged.


  ==> Post-Iterations <==

    Orbital Energies [Eh]
    ---------------------

    Doubly Occupied:                                                      

       1A    -15.771543     2A    -15.771174     3A    -11.456139  
       4A    -11.406321     5A    -11.404775     6A    -11.387322  
       7A    -11.386999     8A    -11.361161     9A    -11.360706  
      10A    -11.360621    11A    -11.359551    12A    -11.359446  
      13A    -11.358966    14A    -11.352436    15A    -11.352341  
      16A    -11.352295    17A    -11.352259    18A    -11.350670  
      19A    -11.350453    20A    -11.348826    21A    -11.348806  
      22A    -11.348015    23A    -11.347827    24A    -11.347745  
      25A    -11.347623    26A    -11.347593    27A    -11.347385  
      28A    -11.346248    29A    -11.346082    30A    -11.346070  
      31A    -11.345945    32A    -11.345209    33A    -11.345159  
      34A    -11.345120    35A    -11.345113    36A    -11.344300  
      37A    -11.344264    38A    -11.344189    39A    -11.344188  
      40A    -11.342771    41A    -11.342677    42A    -11.342591  
      43A    -11.342497    44A    -11.337873    45A    -11.337610  
      46A    -11.337466    47A    -11.337424    48A    -11.335965  
      49A    -11.335746    50A    -11.334101    51A    -11.334076  
      52A    -11.332663    53A    -11.332638    54A    -11.332270  
      55A    -11.332260    56A    -11.332247    57A    -11.332174  
      58A    -11.330776    59A    -11.330764    60A    -11.330719  
      61A    -11.330662    62A     -1.518431    63A     -1.374315  
      64A     -1.345653    65A     -1.313446    66A     -1.309837  
      67A     -1.279343    68A     -1.277880    69A     -1.277660  
      70A     -1.243552    71A     -1.236511    72A     -1.230039  
      73A     -1.226912    74A     -1.198818    75A     -1.198699  
      76A     -1.183857    77A     -1.175931    78A     -1.172001  
      79A     -1.169507    80A     -1.150975    81A     -1.150927  
      82A     -1.130220    83A     -1.126874    84A     -1.116742  
      85A     -1.115595    86A     -1.114749    87A     -1.102776  
      88A     -1.097402    89A     -1.075938    90A     -1.075875  
      91A     -1.063282    92A     -1.048142    93A     -1.047879  
      94A     -0.986418    95A     -0.983943    96A     -0.983075  
      97A     -0.975669    98A     -0.975528    99A     -0.970830  
     100A     -0.970745   101A     -0.964813   102A     -0.948100  
     103A     -0.943496   104A     -0.920242   105A     -0.906729  
     106A     -0.904421   107A     -0.902457   108A     -0.901235  
     109A     -0.880088   110A     -0.879424   111A     -0.865220  
     112A     -0.836496   113A     -0.834928   114A     -0.823548  
     115A     -0.823153   116A     -0.817472   117A     -0.817358  
     118A     -0.807105   119A     -0.793654   120A     -0.785678  
     121A     -0.784630   122A     -0.781825   123A     -0.780848  
     124A     -0.770827   125A     -0.769172   126A     -0.746020  
     127A     -0.742872   128A     -0.740726   129A     -0.735867  
     130A     -0.735168   131A     -0.735089   132A     -0.732389  
     133A     -0.731403   134A     -0.724982   135A     -0.724220  
     136A     -0.717927   137A     -0.716322   138A     -0.716117  
     139A     -0.710883   140A     -0.694909   141A     -0.689740  
     142A     -0.686206   143A     -0.685173   144A     -0.684381  
     145A     -0.682282   146A     -0.681647   147A     -0.681000  
     148A     -0.668347   149A     -0.667509   150A     -0.661088  
     151A     -0.658061   152A     -0.656244   153A     -0.655585  
     154A     -0.651023   155A     -0.650544   156A     -0.647076  
     157A     -0.642112   158A     -0.639233   159A     -0.638834  
     160A     -0.625739   161A     -0.623149   162A     -0.622923  
     163A     -0.620780   164A     -0.616094   165A     -0.608850  
     166A     -0.608062   167A     -0.598274   168A     -0.584152  
     169A     -0.580268   170A     -0.577904   171A     -0.574266  
     172A     -0.572398   173A     -0.568542   174A     -0.568159  
     175A     -0.564673   176A     -0.555476   177A     -0.541365  
     178A     -0.541063   179A     -0.540723   180A     -0.523381  
     181A     -0.522933   182A     -0.494639   183A     -0.489163  
     184A     -0.488341   185A     -0.472432   186A     -0.458554  
     187A     -0.458371   188A     -0.440357   189A     -0.433350  
     190A     -0.432458   191A     -0.430379   192A     -0.395730  
     193A     -0.379211   194A     -0.375913   195A     -0.375590  
     196A     -0.313365   197A     -0.312213  

    Virtual:                                                              

     198A     -0.074344   199A     -0.073868   200A     -0.031181  
     201A     -0.028276   202A     -0.027166   203A     -0.024130  
     204A     -0.018723   205A     -0.015713   206A     -0.010813  
     207A     -0.010659   208A     -0.009153   209A     -0.006342  
     210A     -0.005097   211A     -0.004940   212A     -0.002317  
     213A     -0.001122   214A      0.002924   215A      0.003454  
     216A      0.004669   217A      0.006091   218A      0.006538  
     219A      0.008849   220A      0.013894   221A      0.015506  
     222A      0.015577   223A      0.017598   224A      0.019106  
     225A      0.021528   226A      0.029909   227A      0.030982  
     228A      0.031121   229A      0.033649   230A      0.038133  
     231A      0.039085   232A      0.039928   233A      0.040349  
     234A      0.041713   235A      0.042560   236A      0.044159  
     237A      0.045326   238A      0.048563   239A      0.049394  
     240A      0.050931   241A      0.051846   242A      0.056989  
     243A      0.062065   244A      0.064383   245A      0.065394  
     246A      0.066772   247A      0.072517   248A      0.073060  
     249A      0.073165   250A      0.076565   251A      0.076823  
     252A      0.077887   253A      0.080809   254A      0.083733  
     255A      0.084135   256A      0.084656   257A      0.087201  
     258A      0.088681   259A      0.095770   260A      0.096408  
     261A      0.097585   262A      0.100059   263A      0.102325  
     264A      0.102513   265A      0.102634   266A      0.103266  
     267A      0.106940   268A      0.110463   269A      0.111804  
     270A      0.114330   271A      0.117416   272A      0.117581  
     273A      0.117746   274A      0.117848   275A      0.122891  
     276A      0.123161   277A      0.124898   278A      0.128575  
     279A      0.132838   280A      0.136237   281A      0.136935  
     282A      0.138917   283A      0.141461   284A      0.144452  
     285A      0.145510   286A      0.146039   287A      0.146558  
     288A      0.146774   289A      0.147214   290A      0.148235  
     291A      0.149533   292A      0.149894   293A      0.150975  
     294A      0.154751   295A      0.155759   296A      0.157378  
     297A      0.157784   298A      0.159605   299A      0.161931  
     300A      0.162543   301A      0.164512   302A      0.164880  
     303A      0.165492   304A      0.166243   305A      0.167207  
     306A      0.169041   307A      0.172002   308A      0.177353  
     309A      0.178707   310A      0.179554   311A      0.181930  
     312A      0.184112   313A      0.184473   314A      0.184571  
     315A      0.185739   316A      0.186897   317A      0.188339  
     318A      0.188430   319A      0.191923   320A      0.191987  
     321A      0.193461   322A      0.193948   323A      0.195158  
     324A      0.195822   325A      0.199292   326A      0.202342  
     327A      0.202796   328A      0.203030   329A      0.203278  
     330A      0.207631   331A      0.209086   332A      0.209579  
     333A      0.211696   334A      0.215414   335A      0.217074  
     336A      0.219165   337A      0.221825   338A      0.226352  
     339A      0.227295   340A      0.229212   341A      0.229898  
     342A      0.233640   343A      0.236132   344A      0.236837  
     345A      0.236907   346A      0.238111   347A      0.238730  
     348A      0.239493   349A      0.240215   350A      0.240750  
     351A      0.242128   352A      0.242257   353A      0.243424  
     354A      0.243964   355A      0.244864   356A      0.245150  
     357A      0.247370   358A      0.249537   359A      0.251269  
     360A      0.252545   361A      0.255806   362A      0.256361  
     363A      0.259611   364A      0.260459   365A      0.261687  
     366A      0.262976   367A      0.263490   368A      0.266784  
     369A      0.268386   370A      0.270235   371A      0.271494  
     372A      0.271880   373A      0.274390   374A      0.275065  
     375A      0.276091   376A      0.278650   377A      0.279324  
     378A      0.279903   379A      0.284463   380A      0.284842  
     381A      0.286010   382A      0.287215   383A      0.287419  
     384A      0.291377   385A      0.291837   386A      0.292887  
     387A      0.293281   388A      0.294582   389A      0.297361  
     390A      0.300871   391A      0.301974   392A      0.303106  
     393A      0.305316   394A      0.305994   395A      0.308616  
     396A      0.309384   397A      0.310778   398A      0.311695  
     399A      0.313187   400A      0.314141   401A      0.315915  
     402A      0.316132   403A      0.316937   404A      0.320188  
     405A      0.321405   406A      0.322949   407A      0.324800  
     408A      0.325355   409A      0.326183   410A      0.327076  
     411A      0.329329   412A      0.331620   413A      0.332715  
     414A      0.334260   415A      0.334712   416A      0.335185  
     417A      0.335839   418A      0.336905   419A      0.337477  
     420A      0.339866   421A      0.340953   422A      0.342788  
     423A      0.345313   424A      0.345732   425A      0.346560  
     426A      0.352796   427A      0.353352   428A      0.356895  
     429A      0.359512   430A      0.360027   431A      0.360886  
     432A      0.361766   433A      0.363964   434A      0.365204  
     435A      0.366472   436A      0.368468   437A      0.369570  
     438A      0.371244   439A      0.372399   440A      0.374799  
     441A      0.376006   442A      0.377880   443A      0.378942  
     444A      0.380484   445A      0.380728   446A      0.381590  
     447A      0.382228   448A      0.384084   449A      0.386161  
     450A      0.387417   451A      0.388866   452A      0.389522  
     453A      0.393795   454A      0.394625   455A      0.396086  
     456A      0.398473   457A      0.400668   458A      0.403219  
     459A      0.404897   460A      0.406112   461A      0.407655  
     462A      0.413489   463A      0.414534   464A      0.415057  
     465A      0.415658   466A      0.416455   467A      0.417210  
     468A      0.418982   469A      0.421457   470A      0.422396  
     471A      0.423419   472A      0.426501   473A      0.429552  
     474A      0.432609   475A      0.434998   476A      0.436328  
     477A      0.438660   478A      0.440142   479A      0.441672  
     480A      0.443019   481A      0.444963   482A      0.448340  
     483A      0.449739   484A      0.454463   485A      0.460432  
     486A      0.461707   487A      0.463406   488A      0.466919  
     489A      0.468201   490A      0.468712   491A      0.470221  
     492A      0.471976   493A      0.473067   494A      0.473856  
     495A      0.477079   496A      0.477224   497A      0.479923  
     498A      0.481472   499A      0.483225   500A      0.485188  
     501A      0.486463   502A      0.488964   503A      0.493485  
     504A      0.498589   505A      0.501779   506A      0.507806  
     507A      0.508828   508A      0.512065   509A      0.514027  
     510A      0.515360   511A      0.518650   512A      0.531633  
     513A      0.533241   514A      0.534249   515A      0.536428  
     516A      0.538131   517A      0.540946   518A      0.544054  
     519A      0.544898   520A      0.552314   521A      0.565350  
     522A      0.571271   523A      0.571645   524A      0.577791  
     525A      0.584657   526A      0.585208   527A      0.585910  
     528A      0.587065   529A      0.592436   530A      0.592942  
     531A      0.599884   532A      0.605188   533A      0.630222  
     534A      0.631246   535A      0.658204   536A      0.659270  
     537A      0.659838   538A      0.660802   539A      0.661099  
     540A      0.661740   541A      0.671993   542A      0.673680  
     543A      0.686153   544A      0.688958   545A      0.706368  
     546A      0.714725   547A      0.715122   548A      0.718463  
     549A      0.727884   550A      0.734979   551A      0.736404  
     552A      0.742071   553A      0.743155   554A      0.743694  
     555A      0.746734   556A      0.749591   557A      0.754549  
     558A      0.755966   559A      0.760247   560A      0.769152  
     561A      0.772180   562A      0.774709   563A      0.778176  
     564A      0.779680   565A      0.780062   566A      0.784217  
     567A      0.785869   568A      0.791329   569A      0.795064  
     570A      0.795644   571A      0.801031   572A      0.805842  
     573A      0.806107   574A      0.806769   575A      0.811454  
     576A      0.813145   577A      0.816405   578A      0.818777  
     579A      0.819371   580A      0.822165   581A      0.824806  
     582A      0.829598   583A      0.831482   584A      0.832144  
     585A      0.832832   586A      0.835752   587A      0.836279  
     588A      0.837212   589A      0.840543   590A      0.841343  
     591A      0.842487   592A      0.844048   593A      0.848281  
     594A      0.849082   595A      0.849885   596A      0.855259  
     597A      0.857268   598A      0.859298   599A      0.862997  
     600A      0.864475   601A      0.865556   602A      0.870332  
     603A      0.872655   604A      0.876938   605A      0.877138  
     606A      0.878229   607A      0.879696   608A      0.882646  
     609A      0.884502   610A      0.888812   611A      0.890165  
     612A      0.891549   613A      0.892503   614A      0.894055  
     615A      0.897124   616A      0.898993   617A      0.899704  
     618A      0.902481   619A      0.903240   620A      0.905325  
     621A      0.911034   622A      0.913896   623A      0.914602  
     624A      0.916717   625A      0.919392   626A      0.922083  
     627A      0.923941   628A      0.927895   629A      0.935813  
     630A      0.936370   631A      0.937852   632A      0.938658  
     633A      0.939099   634A      0.942763   635A      0.946764  
     636A      0.947380   637A      0.947799   638A      0.949947  
     639A      0.952639   640A      0.956868   641A      0.957194  
     642A      0.958295   643A      0.960888   644A      0.961571  
     645A      0.963782   646A      0.965825   647A      0.969005  
     648A      0.970831   649A      0.972497   650A      0.973553  
     651A      0.974611   652A      0.975292   653A      0.975671  
     654A      0.979697   655A      0.980576   656A      0.981624  
     657A      0.985662   658A      0.987282   659A      0.988971  
     660A      0.989184   661A      0.993102   662A      0.999833  
     663A      1.002364   664A      1.003773   665A      1.005905  
     666A      1.008300   667A      1.011438   668A      1.014376  
     669A      1.014700   670A      1.015887   671A      1.018375  
     672A      1.021528   673A      1.022974   674A      1.024009  
     675A      1.026085   676A      1.027952   677A      1.028457  
     678A      1.033325   679A      1.034895   680A      1.035509  
     681A      1.038088   682A      1.039468   683A      1.040991  
     684A      1.047223   685A      1.047876   686A      1.051061  
     687A      1.054271   688A      1.054636   689A      1.057595  
     690A      1.058863   691A      1.062096   692A      1.063879  
     693A      1.070471   694A      1.075514   695A      1.080002  
     696A      1.082538   697A      1.085721   698A      1.087793  
     699A      1.091703   700A      1.094311   701A      1.096684  
     702A      1.107336   703A      1.111807   704A      1.113427  
     705A      1.116625   706A      1.122103   707A      1.123943  
     708A      1.129013   709A      1.132433   710A      1.133252  
     711A      1.138245   712A      1.140413   713A      1.141961  
     714A      1.143756   715A      1.147043   716A      1.149662  
     717A      1.154578   718A      1.155870   719A      1.158476  
     720A      1.161603   721A      1.162337   722A      1.164211  
     723A      1.169285   724A      1.171172   725A      1.174847  
     726A      1.177000   727A      1.178572   728A      1.179916  
     729A      1.180827   730A      1.181567   731A      1.183625  
     732A      1.185373   733A      1.189423   734A      1.193496  
     735A      1.199553   736A      1.203984   737A      1.205974  
     738A      1.208170   739A      1.210177   740A      1.213323  
     741A      1.215070   742A      1.217374   743A      1.218110  
     744A      1.224455   745A      1.227515   746A      1.227786  
     747A      1.236907   748A      1.237574   749A      1.240516  
     750A      1.243331   751A      1.246947   752A      1.248501  
     753A      1.249731   754A      1.252574   755A      1.257870  
     756A      1.259347   757A      1.259767   758A      1.263175  
     759A      1.264248   760A      1.264879   761A      1.268041  
     762A      1.271223   763A      1.271857   764A      1.276137  
     765A      1.280951   766A      1.285870   767A      1.289085  
     768A      1.293687   769A      1.297229   770A      1.298128  
     771A      1.302433   772A      1.306178   773A      1.311847  
     774A      1.312721   775A      1.314862   776A      1.318939  
     777A      1.323769   778A      1.324055   779A      1.327180  
     780A      1.333251   781A      1.336239   782A      1.340166  
     783A      1.341629   784A      1.343795   785A      1.349297  
     786A      1.355094   787A      1.357186   788A      1.358625  
     789A      1.359853   790A      1.361475   791A      1.363892  
     792A      1.364962   793A      1.368126   794A      1.368407  
     795A      1.371028   796A      1.373648   797A      1.380204  
     798A      1.389790   799A      1.398955   800A      1.405015  
     801A      1.406516   802A      1.414991   803A      1.416875  
     804A      1.432463   805A      1.435161   806A      1.439536  
     807A      1.449754   808A      1.453858   809A      1.457096  
     810A      1.460048   811A      1.471352   812A      1.488599  
     813A      1.490052   814A      1.500542   815A      1.507527  
     816A      1.512059   817A      1.516081   818A      1.517396  
     819A      1.523364   820A      1.526087   821A      1.527922  
     822A      1.531575   823A      1.534760   824A      1.535684  
     825A      1.543322   826A      1.548975   827A      1.550877  
     828A      1.555889   829A      1.560157   830A      1.565636  
     831A      1.568786   832A      1.571531   833A      1.572355  
     834A      1.574830   835A      1.575625   836A      1.577173  
     837A      1.583723   838A      1.586157   839A      1.587903  
     840A      1.591313   841A      1.593969   842A      1.597101  
     843A      1.598290   844A      1.602252   845A      1.608190  
     846A      1.611257   847A      1.612129   848A      1.613856  
     849A      1.616415   850A      1.618763   851A      1.620754  
     852A      1.629515   853A      1.633180   854A      1.636801  
     855A      1.637384   856A      1.645963   857A      1.652824  
     858A      1.656055   859A      1.665544   860A      1.670970  
     861A      1.677907   862A      1.681131   863A      1.681769  
     864A      1.684269   865A      1.686878   866A      1.694414  
     867A      1.699737   868A      1.706622   869A      1.707911  
     870A      1.710835   871A      1.714644   872A      1.717033  
     873A      1.722926   874A      1.735614   875A      1.737337  
     876A      1.741779   877A      1.746540   878A      1.749931  
     879A      1.752839   880A      1.761470   881A      1.766091  
     882A      1.769257   883A      1.771695   884A      1.776090  
     885A      1.776988   886A      1.780206   887A      1.780994  
     888A      1.783774   889A      1.784838   890A      1.789167  
     891A      1.792137   892A      1.803417   893A      1.807302  
     894A      1.809722   895A      1.811147   896A      1.814479  
     897A      1.815612   898A      1.818060   899A      1.819077  
     900A      1.823367   901A      1.824696   902A      1.828385  
     903A      1.829514   904A      1.834169   905A      1.835957  
     906A      1.837522   907A      1.840799   908A      1.841229  
     909A      1.850470   910A      1.851060   911A      1.857662  
     912A      1.859488   913A      1.863569   914A      1.864902  
     915A      1.867711   916A      1.869887   917A      1.870824  
     918A      1.872661   919A      1.877586   920A      1.882517  
     921A      1.886911   922A      1.888267   923A      1.892661  
     924A      1.899302   925A      1.904128   926A      1.907077  
     927A      1.911475   928A      1.911920   929A      1.914362  
     930A      1.917557   931A      1.921138   932A      1.922248  
     933A      1.924426   934A      1.926296   935A      1.929485  
     936A      1.932704   937A      1.937304   938A      1.939980  
     939A      1.941102   940A      1.942344   941A      1.945506  
     942A      1.946962   943A      1.951866   944A      1.953526  
     945A      1.958057   946A      1.961775   947A      1.962324  
     948A      1.964545   949A      1.966106   950A      1.970118  
     951A      1.971532   952A      1.976134   953A      1.977977  
     954A      1.987192   955A      1.988519   956A      1.992545  
     957A      1.993832   958A      1.996118   959A      2.000283  
     960A      2.003632   961A      2.005630   962A      2.009630  
     963A      2.011975   964A      2.014497   965A      2.015240  
     966A      2.017595   967A      2.019325   968A      2.021390  
     969A      2.023355   970A      2.025029   971A      2.026365  
     972A      2.028432   973A      2.028913   974A      2.032882  
     975A      2.033623   976A      2.034202   977A      2.037589  
     978A      2.038716   979A      2.040078   980A      2.042216  
     981A      2.045645   982A      2.048124   983A      2.048731  
     984A      2.050780   985A      2.054907   986A      2.057057  
     987A      2.059966   988A      2.061207   989A      2.061475  
     990A      2.066295   991A      2.069749   992A      2.078759  
     993A      2.079449   994A      2.084604   995A      2.089114  
     996A      2.093231   997A      2.094443   998A      2.098459  
     999A      2.099901  1000A      2.107373  1001A      2.108900  
    1002A      2.113242  1003A      2.116106  1004A      2.117994  
    1005A      2.122704  1006A      2.127055  1007A      2.131532  
    1008A      2.132857  1009A      2.138133  1010A      2.142022  
    1011A      2.144869  1012A      2.149160  1013A      2.151531  
    1014A      2.154622  1015A      2.158050  1016A      2.165028  
    1017A      2.166135  1018A      2.168435  1019A      2.168776  
    1020A      2.171259  1021A      2.173473  1022A      2.180129  
    1023A      2.181682  1024A      2.184831  1025A      2.185838  
    1026A      2.189078  1027A      2.192069  1028A      2.193964  
    1029A      2.197140  1030A      2.201400  1031A      2.221466  
    1032A      2.225366  1033A      2.227241  1034A      2.229283  
    1035A      2.235431  1036A      2.237782  1037A      2.240288  
    1038A      2.246626  1039A      2.251514  1040A      2.254057  
    1041A      2.257003  1042A      2.263197  1043A      2.266301  
    1044A      2.272979  1045A      2.275770  1046A      2.281659  
    1047A      2.282014  1048A      2.288585  1049A      2.291276  
    1050A      2.294664  1051A      2.314792  1052A      2.319212  
    1053A      2.331563  1054A      2.332226  1055A      2.335297  
    1056A      2.336544  1057A      2.338908  1058A      2.349188  
    1059A      2.351566  1060A      2.359590  1061A      2.369860  
    1062A      2.376734  1063A      2.389846  1064A      2.394959  
    1065A      2.398785  1066A      2.404333  1067A      2.407476  
    1068A      2.411578  1069A      2.424211  1070A      2.430053  
    1071A      2.440989  1072A      2.441734  1073A      2.448028  
    1074A      2.456678  1075A      2.462087  1076A      2.462950  
    1077A      2.466618  1078A      2.470494  1079A      2.472911  
    1080A      2.475158  1081A      2.477307  1082A      2.480778  
    1083A      2.484300  1084A      2.486519  1085A      2.488868  
    1086A      2.496439  1087A      2.500933  1088A      2.502750  
    1089A      2.507765  1090A      2.514714  1091A      2.517726  
    1092A      2.519084  1093A      2.523953  1094A      2.528386  
    1095A      2.537010  1096A      2.540532  1097A      2.546688  
    1098A      2.553448  1099A      2.557145  1100A      2.562533  
    1101A      2.568190  1102A      2.573195  1103A      2.576469  
    1104A      2.584330  1105A      2.589715  1106A      2.597581  
    1107A      2.603775  1108A      2.610536  1109A      2.614030  
    1110A      2.618143  1111A      2.622392  1112A      2.625487  
    1113A      2.626803  1114A      2.627375  1115A      2.632550  
    1116A      2.634992  1117A      2.638042  1118A      2.647436  
    1119A      2.659031  1120A      2.664889  1121A      2.676259  
    1122A      2.679385  1123A      2.687230  1124A      2.705055  
    1125A      2.709687  1126A      2.721078  1127A      2.734652  
    1128A      2.740731  1129A      2.743115  1130A      2.745585  
    1131A      2.757601  1132A      2.760595  1133A      2.764691  
    1134A      2.766268  1135A      2.768569  1136A      2.777895  
    1137A      2.785687  1138A      2.793144  1139A      2.810887  
    1140A      2.817161  1141A      2.835193  1142A      2.837461  
    1143A      2.841292  1144A      2.847806  1145A      2.855270  
    1146A      2.864102  1147A      2.869622  1148A      2.877652  
    1149A      2.882275  1150A      2.885555  1151A      2.891255  
    1152A      2.894034  1153A      2.920332  1154A      2.935141  
    1155A      2.940208  1156A      2.940835  1157A      2.955504  
    1158A      2.973946  1159A      2.974692  1160A      2.975822  
    1161A      2.988894  1162A      2.998931  1163A      3.016857  
    1164A      3.026778  1165A      3.042362  1166A      3.046149  
    1167A      3.054670  1168A      3.058952  1169A      3.063130  
    1170A      3.064882  1171A      3.066672  1172A      3.068317  
    1173A      3.068893  1174A      3.075975  1175A      3.077203  
    1176A      3.084460  1177A      3.090631  1178A      3.096521  
    1179A      3.099628  1180A      3.112072  1181A      3.130513  
    1182A      3.138440  1183A      3.145058  1184A      3.164939  
    1185A      3.192190  1186A      3.197172  1187A      3.200649  
    1188A      3.204453  1189A      3.214012  1190A      3.224836  
    1191A      3.257808  1192A      3.282574  1193A      3.334226  
    1194A      3.334914  1195A      3.371205  1196A      3.405912  
    1197A      3.409947  1198A      3.478904  1199A      3.511360  
    1200A      3.512830  1201A      3.552107  1202A      3.553712  
    1203A      3.574164  1204A      3.588350  1205A      3.605879  
    1206A      3.624676  1207A      3.639601  1208A      3.711489  
    1209A      3.723945  1210A      3.753914  1211A      3.788149  
    1212A      3.789759  1213A      3.830270  1214A      3.830602  
    1215A      3.899675  1216A      3.921075  1217A      4.035190  
    1218A      4.049379  1219A      4.171979  

    Final Occupation by Irrep:
              A 
    DOCC [   197 ]
    NA   [   197 ]
    NB   [   197 ]

  @DF-RHF Final Energy: -2359.13085778607865

   => Energetics <=

    Nuclear Repulsion Energy =           8482.5968752678836609
    One-Electron Energy =              -20062.6195321600062016
    Two-Electron Energy =                9220.8917991060443455
    Total Energy =                      -2359.1308577860781952

Computation Completed


Properties will be evaluated at   0.000000,   0.000000,   0.000000 [a0]

Properties computed using the SCF density matrix


 Multipole Moments:

 ------------------------------------------------------------------------------------
     Multipole            Electronic (a.u.)      Nuclear  (a.u.)        Total (a.u.)
 ------------------------------------------------------------------------------------

 L = 1.  Multiply by 2.5417464519 to convert [e a0] to [Debye]
 Dipole X            :         -0.0037885            0.0006313           -0.0031572
 Dipole Y            :         -0.0638243            0.0560211           -0.0078032
 Dipole Z            :         12.7311162          -15.8363328           -3.1052166
 Magnitude           :                                                    3.1052281

 ------------------------------------------------------------------------------------

*** tstop() called on n2cn1050 at Sat Feb  3 11:01:23 2024
Module time:
	user time   =    5281.98 seconds =      88.03 minutes
	system time =     275.97 seconds =       4.60 minutes
	total time  =        742 seconds =      12.37 minutes
Total time:
	user time   =    5281.98 seconds =      88.03 minutes
	system time =     275.97 seconds =       4.60 minutes
	total time  =        742 seconds =      12.37 minutes

  //>>>>>>>>>>>>>>>>>>>>>>>>>>>>>>>>>>>//
  //            Monomer A HF           //
  //<<<<<<<<<<<<<<<<<<<<<<<<<<<<<<<<<<<//

   => Libint2 <=

    Primary   basis highest AM E, G, H:  5, 4, 3
    Auxiliary basis highest AM E, G, H:  6, 5, 4
    Onebody   basis highest AM E, G, H:  6, 5, 4
    Solid Harmonics ordering:            gaussian

*** tstart() called on n2cn1050
*** at Sat Feb  3 11:01:23 2024

   => Loading Basis Set <=

    Name: JUN-CC-PVDZ
    Role: ORBITAL
    Keyword: BASIS
    atoms 1-2, 4-5, 10, 17-70 entry C          line   164 file /opt/software/pc2/EB-SW/software/PSI4/1.9-foss-2022a/share/psi4/basis/jun-cc-pvdz.gbs 
    atoms 3, 6                entry N          line   198 file /opt/software/pc2/EB-SW/software/PSI4/1.9-foss-2022a/share/psi4/basis/jun-cc-pvdz.gbs 
    atoms 7-9, 11-16, 71-88   entry H          line    36 file /opt/software/pc2/EB-SW/software/PSI4/1.9-foss-2022a/share/psi4/basis/jun-cc-pvdz.gbs 


         ---------------------------------------------------------
                                   SCF
               by Justin Turney, Rob Parrish, Andy Simmonett
                          and Daniel G. A. Smith
                              RHF Reference
                       16 Threads,  30517 MiB Core
         ---------------------------------------------------------

  ==> Geometry <==

    Molecular point group: c1
    Full point group: C1

    Geometry (in Angstrom), charge = 1, multiplicity = 1:

       Center              X                  Y                   Z               Mass       
    ------------   -----------------  -----------------  -----------------  -----------------
         C            0.680066520158    -0.008042372515    -4.183472131283    12.000000000000
         C           -0.680504479842    -0.006014372515    -4.183088131283    12.000000000000
         N           -1.085635479842    -0.005016372515    -2.864764131283    14.003074004430
         C            0.000107520158    -0.001740372515    -2.083363131283    12.000000000000
         C           -2.477365479842     0.044389627485    -2.396785131283    12.000000000000
         N            1.085221520158    -0.005016372515    -2.864764131283    14.003074004430
         H            1.385145520158    -0.015870372515    -5.000911131283     1.007825032230
         H           -1.385302479842    -0.006204372515    -5.000757131283     1.007825032230
         H           -0.000009479842     0.000006627485    -1.002274131283     1.007825032230
         C            2.478116520158    -0.021908372515    -2.399666131283    12.000000000000
         H            2.490591520158     0.005436627485    -1.309413131283     1.007825032230
         H            2.967027520158    -0.935354372515    -2.746842131283     1.007825032230
         H            3.001427520158     0.853574627485    -2.791138131283     1.007825032230
         H           -2.857359479842     1.066460627485    -2.476744131283     1.007825032230
         H           -3.082679479842    -0.625694372515    -3.009849131283     1.007825032230
         H           -2.518128479842    -0.282594372515    -1.356837131283     1.007825032230
      Gh(C)           1.225311895423     0.707538288405     0.438594496001    12.000000000000
      Gh(C)           1.225323856051    -0.707538895085     0.426263686430    12.000000000000
      Gh(C)          -0.000006153932     1.414965913575     0.425730062909    12.000000000000
      Gh(C)           2.456448753949     1.418327886663     0.441481353400    12.000000000000
      Gh(C)           0.000010827279    -1.414976499150     0.435929620234    12.000000000000
      Gh(C)          -1.225300948908     0.707545373469     0.440846016323    12.000000000000
      Gh(C)           2.456437755320    -1.418323304396     0.424018529573    12.000000000000
      Gh(C)          -0.000001332978     2.836801030766     0.423326512775    12.000000000000
      Gh(C)           3.681826697470     0.709317955486     0.424367319371    12.000000000000
      Gh(C)           2.455120048865     2.834223660974     0.424264762411    12.000000000000
      Gh(C)           3.681821105219    -0.709333839944     0.440439803390    12.000000000000
      Gh(C)          -1.225313598688    -0.707527516059     0.427336447857    12.000000000000
      Gh(C)           1.226699581202     3.543469483479     0.440623835320    12.000000000000
      Gh(C)           0.000004784858    -2.836782139751     0.440777787856    12.000000000000
      Gh(C)          -2.456436032848     1.418316917770     0.440881412169    12.000000000000
      Gh(C)           2.455123417779    -2.834230029103     0.440287895022    12.000000000000
      Gh(C)          -1.226714364589     3.543469063235     0.440727168540    12.000000000000
      Gh(C)           4.914517295202     1.427172871975     0.430848002401    12.000000000000
      Gh(C)           3.693150191476     3.542795292030     0.430897802037    12.000000000000
      Gh(C)          -2.456437600068    -1.418313281354     0.423993491449    12.000000000000
      Gh(C)           1.226704841943    -3.543474242421     0.424653704571    12.000000000000
      Gh(C)          -2.455125398508     2.834216662119     0.424271138757    12.000000000000
      Gh(C)           4.914524380782    -1.427186910459     0.433820745135    12.000000000000
      Gh(C)           1.221424613699     4.970134064745     0.433959179395    12.000000000000
      Gh(C)           4.893008229321     2.825187999512     0.432064670759    12.000000000000
      Gh(C)          -1.226697008489    -3.543470997592     0.424920908980    12.000000000000
      Gh(C)          -3.681818976526     0.709324966217     0.424379999851    12.000000000000
      Gh(C)           3.693147101150    -3.542801341905     0.433938635696    12.000000000000
      Gh(C)          -1.221432251994     4.970128297348     0.434142674768    12.000000000000
      Gh(C)           6.134770972926     0.680547946591     0.431617776951    12.000000000000
      Gh(C)           3.656788880610     4.972953243053     0.431806439820    12.000000000000
      Gh(C)          -2.455126907733    -2.834215093576     0.440043537224    12.000000000000
      Gh(C)          -3.681819179061    -0.709325703983     0.440557424968    12.000000000000
      Gh(C)           4.893012617914    -2.825200106147     0.432675822655    12.000000000000
      Gh(C)          -0.000001073113     5.650447365518     0.432911366061    12.000000000000
      Gh(C)           6.134775112332    -0.680554854590     0.432883097466    12.000000000000
      Gh(C)           2.478131482856     5.653576750817     0.433095219469    12.000000000000
      Gh(C)           1.221422404738    -4.970127055448     0.431159682372    12.000000000000
      Gh(C)          -3.693162383965     3.542796953677     0.431063309496    12.000000000000
      Gh(C)          -1.221428520945    -4.970118304111     0.431046920540    12.000000000000
      Gh(C)          -4.914521807942     1.427175446480     0.430924947408    12.000000000000
      Gh(C)           3.656787019679    -4.972955226754     0.433256940354    12.000000000000
      Gh(C)          -2.478138530106     5.653574422014     0.433379744478    12.000000000000
      Gh(C)          -3.693141738564    -3.542790219494     0.433822509540    12.000000000000
      Gh(C)          -4.914512483053    -1.427181000542     0.433855442309    12.000000000000
      Gh(C)          -0.000006008926    -5.650438287528     0.432515861940    12.000000000000
      Gh(C)          -4.893020484101     2.825188598404     0.432054588899    12.000000000000
      Gh(C)           2.478125993298    -5.653573544403     0.432166339561    12.000000000000
      Gh(C)          -3.656798710258     4.972956181527     0.431983120194    12.000000000000
      Gh(C)          -4.892999478856    -2.825191767575     0.432521786957    12.000000000000
      Gh(C)          -2.478128498083    -5.653566170521     0.431891151914    12.000000000000
      Gh(C)          -6.134770503331     0.680548765741     0.431592225248    12.000000000000
      Gh(C)          -3.656788833189    -4.972944023485     0.433042652537    12.000000000000
      Gh(C)          -6.134765042913    -0.680553915997     0.432862621671    12.000000000000
      Gh(H)           5.835288495816     3.369275894439     0.436423996422     1.007825032230
      Gh(H)           7.073859172747     1.228217248385     0.432079420344     1.007825032230
      Gh(H)           4.600663264174     5.512380801938     0.432311640572     1.007825032230
      Gh(H)           5.835283387305    -3.369306057244     0.428221355340     1.007825032230
      Gh(H)          -0.000012151306     6.738530673622     0.428562121053     1.007825032230
      Gh(H)           7.073861171831    -1.228226943259     0.432374359372     1.007825032230
      Gh(H)           2.473313731799     6.740684290880     0.432628498539     1.007825032230
      Gh(H)           4.600668491381    -5.512376129691     0.432846943185     1.007825032230
      Gh(H)          -2.473318680537     6.740681719092     0.432929845164     1.007825032230
      Gh(H)          -0.000010268228    -6.738528176967     0.437045546924     1.007825032230
      Gh(H)          -5.835301914343     3.369270949781     0.436560018570     1.007825032230
      Gh(H)           2.473307923831    -6.740685374944     0.432736669986     1.007825032230
      Gh(H)          -4.600674841208     5.512378026089     0.432476968895     1.007825032230
      Gh(H)          -5.835279506835    -3.369288964294     0.427942049459     1.007825032230
      Gh(H)          -2.473300347440    -6.740679078655     0.432287353442     1.007825032230
      Gh(H)          -7.073857766768     1.228220472326     0.431995428863     1.007825032230
      Gh(H)          -4.600673786085    -5.512362670301     0.432674635162     1.007825032230
      Gh(H)          -7.073856934409    -1.228220632492     0.432279502906     1.007825032230

  Running in c1 symmetry.

  Rotational constants: A =      0.00195  B =      0.00190  C =      0.00109 [cm^-1]
  Rotational constants: A =     58.38733  B =     56.81649  C =     32.71081 [MHz]
  Nuclear repulsion =  306.774908447733083

  Charge       = 1
  Multiplicity = 1
  Electrons    = 52
  Nalpha       = 26
  Nbeta        = 26

  ==> Algorithm <==

  SCF Algorithm Type is DF.
  DIIS enabled.
  MOM disabled.
  Fractional occupation disabled.
  Guess Type is SAD.
  Energy threshold   = 1.00e-08
  Density threshold  = 1.00e-08
  Integral threshold = 1.00e-12

  ==> Primary Basis <==

  Basis Set: JUN-CC-PVDZ
    Blend: JUN-CC-PVDZ
    Number of shells: 569
    Number of basis functions: 1233
    Number of Cartesian functions: 1294
    Spherical Harmonics?: true
    Max angular momentum: 2

   => Loading Basis Set <=

    Name: (JUN-CC-PVDZ AUX)
    Role: JKFIT
    Keyword: DF_BASIS_SCF
    atoms 1-2, 4-5, 10, 17-70 entry C          line   146 file /opt/software/pc2/EB-SW/software/PSI4/1.9-foss-2022a/share/psi4/basis/jun-cc-pvdz-jkfit.gbs 
    atoms 3, 6                entry N          line   202 file /opt/software/pc2/EB-SW/software/PSI4/1.9-foss-2022a/share/psi4/basis/jun-cc-pvdz-jkfit.gbs 
    atoms 7-9, 11-16, 71-88   entry H          line    70 file /opt/software/pc2/EB-SW/software/PSI4/1.9-foss-2022a/share/psi4/basis/jun-cc-pvdz-jkfit.gbs 

  ==> Integral Setup <==

  ==> DiskDFJK: Density-Fitted J/K Matrices <==

    J tasked:                  Yes
    K tasked:                  Yes
    wK tasked:                  No
    OpenMP threads:             16
    Integrals threads:          16
    Memory [MiB]:            22888
    Algorithm:                Disk
    Integral Cache:           LOAD
    Schwarz Cutoff:          1E-12
    Fitting Condition:       1E-10

   => Auxiliary Basis Set <=

  Basis Set: (JUN-CC-PVDZ AUX)
    Blend: JUN-CC-PVDZ-JKFIT
    Number of shells: 1890
    Number of basis functions: 5440
    Number of Cartesian functions: 6226
    Spherical Harmonics?: true
    Max angular momentum: 3

  Minimum eigenvalue in the overlap matrix is 2.7557596192E-10.
  Reciprocal condition number of the overlap matrix is 1.0461499447E-11.
    Using canonical orthogonalization.
  Overall, 14 of 1233 possible MOs eliminated.


  ==> Pre-Iterations <==

  SCF Guess: Superposition of Atomic Densities via on-the-fly atomic UHF (no occupation information).

   -------------------------
    Irrep   Nso     Nmo    
   -------------------------
     A       1233    1219 
   -------------------------
    Total    1233    1219
   -------------------------

  ==> Iterations <==

                           Total Energy        Delta E     RMS |[F,P]|

   @DF-RHF iter SAD:  -303.36538246494126   -3.03365e+02   0.00000e+00 
   @DF-RHF iter   1:  -303.17100261901766    1.94380e-01   3.45260e-04 DIIS/ADIIS
   @DF-RHF iter   2:  -303.28551087411006   -1.14508e-01   1.16216e-04 DIIS/ADIIS
   @DF-RHF iter   3:  -303.29705642294567   -1.15455e-02   4.55889e-05 DIIS
   @DF-RHF iter   4:  -303.29899043616967   -1.93401e-03   1.00369e-05 DIIS
   @DF-RHF iter   5:  -303.29910005432873   -1.09618e-04   2.45446e-06 DIIS
   @DF-RHF iter   6:  -303.29910973456873   -9.68024e-06   6.62481e-07 DIIS
   @DF-RHF iter   7:  -303.29911084712967   -1.11256e-06   3.39122e-07 DIIS
   @DF-RHF iter   8:  -303.29911111378163   -2.66652e-07   1.36829e-07 DIIS
   @DF-RHF iter   9:  -303.29911116531986   -5.15382e-08   3.39756e-08 DIIS
   @DF-RHF iter  10:  -303.29911116818329   -2.86343e-09   1.26076e-08 DIIS
   @DF-RHF iter  11:  -303.29911116842260   -2.39311e-10   2.98685e-09 DIIS
  Energy and wave function converged.


  ==> Post-Iterations <==

    Orbital Energies [Eh]
    ---------------------

    Doubly Occupied:                                                      

       1A    -15.834523     2A    -15.833967     3A    -11.528954  
       4A    -11.459608     5A    -11.458053     6A    -11.449474  
       7A    -11.449334     8A     -1.577563     9A     -1.433218  
      10A     -1.238095    11A     -1.188883    12A     -1.118517  
      13A     -1.021964    14A     -0.996450    15A     -0.916586  
      16A     -0.850094    17A     -0.815786    18A     -0.812663  
      19A     -0.789647    20A     -0.785929    21A     -0.781316  
      22A     -0.729413    23A     -0.725490    24A     -0.716947  
      25A     -0.595816    26A     -0.523452  

    Virtual:                                                              

      27A     -0.080898    28A     -0.073998    29A     -0.063293  
      30A     -0.056645    31A     -0.044673    32A     -0.041553  
      33A     -0.041015    34A     -0.039046    35A     -0.038866  
      36A     -0.026814    37A     -0.026540    38A     -0.023654  
      39A     -0.022630    40A     -0.017148    41A     -0.015831  
      42A     -0.013936    43A     -0.008299    44A     -0.006886  
      45A      0.001764    46A      0.003112    47A      0.004298  
      48A      0.005112    49A      0.005589    50A      0.005957  
      51A      0.011255    52A      0.011706    53A      0.013021  
      54A      0.018647    55A      0.021656    56A      0.024236  
      57A      0.026126    58A      0.026495    59A      0.027981  
      60A      0.029103    61A      0.035634    62A      0.037807  
      63A      0.040540    64A      0.040948    65A      0.041510  
      66A      0.047636    67A      0.049040    68A      0.051637  
      69A      0.052867    70A      0.053047    71A      0.054823  
      72A      0.055212    73A      0.058917    74A      0.061137  
      75A      0.061572    76A      0.062458    77A      0.063377  
      78A      0.065462    79A      0.065818    80A      0.069969  
      81A      0.070907    82A      0.072812    83A      0.074564  
      84A      0.074822    85A      0.078930    86A      0.079666  
      87A      0.081773    88A      0.084826    89A      0.085529  
      90A      0.086311    91A      0.086893    92A      0.087685  
      93A      0.089572    94A      0.092161    95A      0.098785  
      96A      0.099509    97A      0.100927    98A      0.102959  
      99A      0.103930   100A      0.105187   101A      0.105968  
     102A      0.108044   103A      0.109547   104A      0.110283  
     105A      0.110499   106A      0.111625   107A      0.112574  
     108A      0.113465   109A      0.116128   110A      0.116848  
     111A      0.120037   112A      0.120699   113A      0.122169  
     114A      0.122676   115A      0.124250   116A      0.126017  
     117A      0.126934   118A      0.131040   119A      0.132295  
     120A      0.132802   121A      0.135850   122A      0.139367  
     123A      0.139651   124A      0.140113   125A      0.143284  
     126A      0.143899   127A      0.144776   128A      0.148202  
     129A      0.149862   130A      0.150600   131A      0.151029  
     132A      0.151837   133A      0.153202   134A      0.156064  
     135A      0.157375   136A      0.157774   137A      0.160150  
     138A      0.161430   139A      0.164015   140A      0.167782  
     141A      0.168013   142A      0.168658   143A      0.170147  
     144A      0.170417   145A      0.172657   146A      0.173710  
     147A      0.175202   148A      0.175717   149A      0.175911  
     150A      0.177578   151A      0.178153   152A      0.182336  
     153A      0.184129   154A      0.186337   155A      0.191275  
     156A      0.193172   157A      0.195424   158A      0.198504  
     159A      0.201025   160A      0.201085   161A      0.201519  
     162A      0.201956   163A      0.204440   164A      0.205924  
     165A      0.207516   166A      0.208024   167A      0.208527  
     168A      0.210239   169A      0.212175   170A      0.212324  
     171A      0.212776   172A      0.217726   173A      0.220351  
     174A      0.220663   175A      0.221151   176A      0.221932  
     177A      0.223996   178A      0.224912   179A      0.227015  
     180A      0.228016   181A      0.229599   182A      0.230948  
     183A      0.233841   184A      0.234175   185A      0.239759  
     186A      0.241360   187A      0.243300   188A      0.243981  
     189A      0.249165   190A      0.252204   191A      0.256019  
     192A      0.257696   193A      0.258712   194A      0.258992  
     195A      0.260899   196A      0.262503   197A      0.265152  
     198A      0.266872   199A      0.266904   200A      0.271102  
     201A      0.272007   202A      0.273203   203A      0.274570  
     204A      0.274907   205A      0.275348   206A      0.279266  
     207A      0.280442   208A      0.281178   209A      0.283011  
     210A      0.284599   211A      0.286518   212A      0.286668  
     213A      0.289197   214A      0.290900   215A      0.293398  
     216A      0.294943   217A      0.298225   218A      0.299511  
     219A      0.303378   220A      0.305009   221A      0.306521  
     222A      0.309634   223A      0.310567   224A      0.310780  
     225A      0.311103   226A      0.318540   227A      0.319049  
     228A      0.321343   229A      0.324394   230A      0.328249  
     231A      0.330367   232A      0.331584   233A      0.336093  
     234A      0.338021   235A      0.339868   236A      0.341821  
     237A      0.342752   238A      0.344454   239A      0.346349  
     240A      0.347841   241A      0.349540   242A      0.351932  
     243A      0.354776   244A      0.357766   245A      0.358839  
     246A      0.360186   247A      0.362224   248A      0.363219  
     249A      0.364056   250A      0.365166   251A      0.368488  
     252A      0.371443   253A      0.373345   254A      0.373775  
     255A      0.376675   256A      0.377570   257A      0.378580  
     258A      0.379259   259A      0.379737   260A      0.382984  
     261A      0.383464   262A      0.384717   263A      0.387773  
     264A      0.388515   265A      0.390011   266A      0.390254  
     267A      0.394087   268A      0.394446   269A      0.396545  
     270A      0.399025   271A      0.402045   272A      0.402985  
     273A      0.403877   274A      0.410686   275A      0.414286  
     276A      0.416121   277A      0.418166   278A      0.419096  
     279A      0.419470   280A      0.420231   281A      0.424486  
     282A      0.428819   283A      0.431524   284A      0.432140  
     285A      0.435857   286A      0.437915   287A      0.440865  
     288A      0.441669   289A      0.443865   290A      0.444632  
     291A      0.446745   292A      0.447155   293A      0.450883  
     294A      0.452450   295A      0.453206   296A      0.454576  
     297A      0.457625   298A      0.459197   299A      0.459641  
     300A      0.463776   301A      0.465164   302A      0.466394  
     303A      0.468255   304A      0.472532   305A      0.476487  
     306A      0.481421   307A      0.483858   308A      0.485269  
     309A      0.486705   310A      0.488240   311A      0.489001  
     312A      0.494967   313A      0.495287   314A      0.495931  
     315A      0.497686   316A      0.498434   317A      0.499677  
     318A      0.500438   319A      0.502793   320A      0.506081  
     321A      0.506921   322A      0.514716   323A      0.519805  
     324A      0.521273   325A      0.522273   326A      0.523687  
     327A      0.525912   328A      0.528009   329A      0.530887  
     330A      0.531475   331A      0.534471   332A      0.536628  
     333A      0.539998   334A      0.542271   335A      0.546052  
     336A      0.548191   337A      0.551678   338A      0.552226  
     339A      0.553400   340A      0.554661   341A      0.555208  
     342A      0.559043   343A      0.560704   344A      0.561694  
     345A      0.563223   346A      0.568286   347A      0.570679  
     348A      0.573407   349A      0.574392   350A      0.578142  
     351A      0.582680   352A      0.585003   353A      0.587791  
     354A      0.590962   355A      0.592639   356A      0.594324  
     357A      0.596520   358A      0.598603   359A      0.599733  
     360A      0.601393   361A      0.603562   362A      0.604277  
     363A      0.605388   364A      0.608571   365A      0.609151  
     366A      0.610971   367A      0.612311   368A      0.615699  
     369A      0.617293   370A      0.619801   371A      0.624100  
     372A      0.629675   373A      0.639518   374A      0.640917  
     375A      0.644883   376A      0.646575   377A      0.650744  
     378A      0.654196   379A      0.656280   380A      0.662067  
     381A      0.665276   382A      0.668836   383A      0.670281  
     384A      0.673095   385A      0.673878   386A      0.675124  
     387A      0.676054   388A      0.677123   389A      0.678776  
     390A      0.679778   391A      0.681497   392A      0.682149  
     393A      0.683600   394A      0.683838   395A      0.689176  
     396A      0.696045   397A      0.700016   398A      0.703048  
     399A      0.705145   400A      0.706908   401A      0.708191  
     402A      0.710443   403A      0.714687   404A      0.721464  
     405A      0.721792   406A      0.722147   407A      0.727491  
     408A      0.741845   409A      0.744904   410A      0.748477  
     411A      0.754821   412A      0.763389   413A      0.764706  
     414A      0.767429   415A      0.769113   416A      0.772587  
     417A      0.782283   418A      0.783816   419A      0.791232  
     420A      0.793485   421A      0.794555   422A      0.795596  
     423A      0.800025   424A      0.802931   425A      0.806197  
     426A      0.808444   427A      0.813932   428A      0.814398  
     429A      0.817034   430A      0.821593   431A      0.831236  
     432A      0.831719   433A      0.839841   434A      0.841095  
     435A      0.846930   436A      0.855057   437A      0.864703  
     438A      0.868601   439A      0.871420   440A      0.871914  
     441A      0.877947   442A      0.878825   443A      0.881795  
     444A      0.889579   445A      0.899636   446A      0.900277  
     447A      0.909906   448A      0.911961   449A      0.917884  
     450A      0.918658   451A      0.919262   452A      0.920210  
     453A      0.925061   454A      0.933882   455A      0.934390  
     456A      0.942104   457A      0.949535   458A      0.955942  
     459A      0.967912   460A      0.971565   461A      0.973235  
     462A      0.977728   463A      0.979450   464A      0.995468  
     465A      1.000031   466A      1.009454   467A      1.013032  
     468A      1.016792   469A      1.019607   470A      1.023809  
     471A      1.036930   472A      1.048183   473A      1.052892  
     474A      1.056088   475A      1.058374   476A      1.069230  
     477A      1.073218   478A      1.080607   479A      1.086196  
     480A      1.091093   481A      1.095001   482A      1.096102  
     483A      1.098950   484A      1.100161   485A      1.103887  
     486A      1.105862   487A      1.107475   488A      1.120656  
     489A      1.121265   490A      1.128885   491A      1.131921  
     492A      1.149957   493A      1.154198   494A      1.168102  
     495A      1.171823   496A      1.172860   497A      1.194663  
     498A      1.199730   499A      1.207323   500A      1.210937  
     501A      1.212455   502A      1.214716   503A      1.215416  
     504A      1.217276   505A      1.225684   506A      1.233080  
     507A      1.236728   508A      1.238551   509A      1.239997  
     510A      1.251034   511A      1.273994   512A      1.277074  
     513A      1.294440   514A      1.350701   515A      1.351688  
     516A      1.353086   517A      1.358994   518A      1.363693  
     519A      1.365204   520A      1.368887   521A      1.388573  
     522A      1.400679   523A      1.408494   524A      1.416338  
     525A      1.430715   526A      1.435845   527A      1.442111  
     528A      1.455770   529A      1.462775   530A      1.468648  
     531A      1.473809   532A      1.481060   533A      1.485704  
     534A      1.493494   535A      1.497102   536A      1.507852  
     537A      1.511650   538A      1.521074   539A      1.521830  
     540A      1.540247   541A      1.550543   542A      1.562689  
     543A      1.565131   544A      1.576042   545A      1.584339  
     546A      1.586391   547A      1.589424   548A      1.597106  
     549A      1.605717   550A      1.607607   551A      1.614456  
     552A      1.624087   553A      1.629445   554A      1.636268  
     555A      1.642472   556A      1.651733   557A      1.657508  
     558A      1.662514   559A      1.667164   560A      1.668202  
     561A      1.670246   562A      1.678037   563A      1.678958  
     564A      1.685116   565A      1.686534   566A      1.690433  
     567A      1.693325   568A      1.697344   569A      1.699580  
     570A      1.707811   571A      1.711329   572A      1.716042  
     573A      1.723366   574A      1.724366   575A      1.728433  
     576A      1.732127   577A      1.735587   578A      1.738355  
     579A      1.738998   580A      1.740703   581A      1.743945  
     582A      1.745891   583A      1.747219   584A      1.758290  
     585A      1.760674   586A      1.761337   587A      1.763875  
     588A      1.768682   589A      1.779582   590A      1.782633  
     591A      1.784452   592A      1.784826   593A      1.786630  
     594A      1.787889   595A      1.792401   596A      1.793612  
     597A      1.797226   598A      1.799281   599A      1.800205  
     600A      1.805430   601A      1.809268   602A      1.810274  
     603A      1.811936   604A      1.812529   605A      1.817183  
     606A      1.817796   607A      1.818793   608A      1.822868  
     609A      1.831416   610A      1.832285   611A      1.836874  
[...]
     817A      1.762595   818A      1.775325   819A      1.777547  
     820A      1.783829   821A      1.791251   822A      1.794487  
     823A      1.801972   824A      1.807448   825A      1.813984  
     826A      1.817895   827A      1.819369   828A      1.820932  
     829A      1.825185   830A      1.830073   831A      1.833621  
     832A      1.835304   833A      1.839482   834A      1.842158  
     835A      1.845977   836A      1.849478   837A      1.853503  
     838A      1.856411   839A      1.861349   840A      1.866946  
     841A      1.867818   842A      1.870535   843A      1.872817  
     844A      1.875977   845A      1.878541   846A      1.880398  
     847A      1.881275   848A      1.893211   849A      1.893892  
     850A      1.899446   851A      1.904450   852A      1.904759  
     853A      1.905279   854A      1.907973   855A      1.909867  
     856A      1.915660   857A      1.916607   858A      1.920002  
     859A      1.921675   860A      1.923571   861A      1.934351  
     862A      1.936421   863A      1.940624   864A      1.943692  
     865A      1.946642   866A      1.948879   867A      1.949095  
     868A      1.950415   869A      1.953307   870A      1.955537  
     871A      1.956801   872A      1.960815   873A      1.964854  
     874A      1.972463   875A      1.978170   876A      1.983290  
     877A      1.988919   878A      1.990379   879A      1.996504  
     880A      2.000847   881A      2.002317   882A      2.004318  
     883A      2.008405   884A      2.009618   885A      2.016045  
     886A      2.016600   887A      2.019615   888A      2.022024  
     889A      2.026791   890A      2.028707   891A      2.030071  
     892A      2.031634   893A      2.035183   894A      2.036095  
     895A      2.040073   896A      2.041994   897A      2.048610  
     898A      2.053572   899A      2.056280   900A      2.056452  
     901A      2.062731   902A      2.063127   903A      2.065519  
     904A      2.069078   905A      2.070112   906A      2.072264  
     907A      2.076110   908A      2.078063   909A      2.079931  
     910A      2.083374   911A      2.087585   912A      2.093138  
     913A      2.094056   914A      2.095365   915A      2.098108  
     916A      2.100332   917A      2.101126   918A      2.102065  
     919A      2.105513   920A      2.108437   921A      2.108910  
     922A      2.110965   923A      2.112756   924A      2.115079  
     925A      2.116236   926A      2.118432   927A      2.120479  
     928A      2.122082   929A      2.123506   930A      2.127106  
     931A      2.130687   932A      2.131960   933A      2.133668  
     934A      2.134631   935A      2.136148   936A      2.138265  
     937A      2.140989   938A      2.143918   939A      2.145690  
     940A      2.151576   941A      2.151870   942A      2.154620  
     943A      2.156316   944A      2.159405   945A      2.168479  
     946A      2.172786   947A      2.175290   948A      2.177452  
     949A      2.180053   950A      2.182859   951A      2.189042  
     952A      2.189704   953A      2.191320   954A      2.194326  
     955A      2.198115   956A      2.204752   957A      2.205727  
     958A      2.210561   959A      2.213602   960A      2.217520  
     961A      2.224427   962A      2.229201   963A      2.231560  
     964A      2.235063   965A      2.238794   966A      2.240073  
     967A      2.243955   968A      2.244814   969A      2.246126  
     970A      2.247502   971A      2.248462   972A      2.250163  
     973A      2.252757   974A      2.257269   975A      2.265603  
     976A      2.268100   977A      2.270022   978A      2.271355  
     979A      2.272498   980A      2.275416   981A      2.281913  
     982A      2.288875   983A      2.291934   984A      2.295014  
     985A      2.299982   986A      2.303283   987A      2.311476  
     988A      2.314763   989A      2.316278   990A      2.324530  
     991A      2.332502   992A      2.337264   993A      2.341231  
     994A      2.343716   995A      2.345960   996A      2.350760  
     997A      2.354367   998A      2.359043   999A      2.364748  
    1000A      2.365929  1001A      2.367749  1002A      2.373364  
    1003A      2.378206  1004A      2.388724  1005A      2.396874  
    1006A      2.402057  1007A      2.415982  1008A      2.418642  
    1009A      2.424154  1010A      2.425401  1011A      2.428016  
    1012A      2.430400  1013A      2.438335  1014A      2.438931  
    1015A      2.447743  1016A      2.462366  1017A      2.471059  
    1018A      2.474909  1019A      2.485938  1020A      2.488977  
    1021A      2.492810  1022A      2.494994  1023A      2.505374  
    1024A      2.507605  1025A      2.511869  1026A      2.520070  
    1027A      2.526253  1028A      2.530046  1029A      2.533528  
    1030A      2.539495  1031A      2.545243  1032A      2.546229  
    1033A      2.549710  1034A      2.554528  1035A      2.556649  
    1036A      2.559645  1037A      2.560524  1038A      2.560864  
    1039A      2.565756  1040A      2.569523  1041A      2.573353  
    1042A      2.574910  1043A      2.579431  1044A      2.579994  
    1045A      2.584698  1046A      2.588748  1047A      2.592626  
    1048A      2.595171  1049A      2.600182  1050A      2.606042  
    1051A      2.606771  1052A      2.617175  1053A      2.623990  
    1054A      2.624957  1055A      2.629545  1056A      2.638259  
    1057A      2.641715  1058A      2.644688  1059A      2.647691  
    1060A      2.655634  1061A      2.662638  1062A      2.672467  
    1063A      2.676324  1064A      2.685134  1065A      2.688851  
    1066A      2.693135  1067A      2.699522  1068A      2.702371  
    1069A      2.708999  1070A      2.713044  1071A      2.713702  
    1072A      2.714790  1073A      2.716456  1074A      2.721822  
    1075A      2.728232  1076A      2.731692  1077A      2.735961  
    1078A      2.746921  1079A      2.751029  1080A      2.752415  
    1081A      2.764769  1082A      2.775181  1083A      2.778318  
    1084A      2.783126  1085A      2.788714  1086A      2.794139  
    1087A      2.800411  1088A      2.816259  1089A      2.824792  
    1090A      2.832614  1091A      2.839145  1092A      2.847368  
    1093A      2.856069  1094A      2.856156  1095A      2.858952  
    1096A      2.860141  1097A      2.864294  1098A      2.870655  
    1099A      2.878170  1100A      2.889911  1101A      2.903336  
    1102A      2.911033  1103A      2.919287  1104A      2.921073  
    1105A      2.926682  1106A      2.943531  1107A      2.949222  
    1108A      2.957282  1109A      2.958923  1110A      2.966079  
    1111A      2.978028  1112A      2.997316  1113A      3.007016  
    1114A      3.023775  1115A      3.036470  1116A      3.043901  
    1117A      3.051471  1118A      3.061997  1119A      3.066052  
    1120A      3.067552  1121A      3.072386  1122A      3.074082  
    1123A      3.086303  1124A      3.093879  1125A      3.102699  
    1126A      3.103740  1127A      3.123099  1128A      3.127958  
    1129A      3.138474  1130A      3.144743  1131A      3.145116  
    1132A      3.149040  1133A      3.150215  1134A      3.151192  
    1135A      3.152601  1136A      3.154904  1137A      3.159123  
    1138A      3.163298  1139A      3.171425  1140A      3.180733  
    1141A      3.185569  1142A      3.192777  1143A      3.209032  
    1144A      3.213077  1145A      3.231347  1146A      3.242535  
    1147A      3.245211  1148A      3.254819  1149A      3.282215  
    1150A      3.285074  1151A      3.291758  1152A      3.297392  
    1153A      3.311295  1154A      3.314495  1155A      3.344893  
    1156A      3.347808  1157A      3.406846  1158A      3.415812  
    1159A      3.426382  1160A      3.436092  1161A      3.458769  
    1162A      3.497066  1163A      3.500559  1164A      3.518074  
    1165A      3.555716  1166A      3.584020  1167A      3.596204  
    1168A      3.609542  1169A      3.635622  1170A      3.646470  
    1171A      3.659830  1172A      3.669838  1173A      3.692648  
    1174A      3.697854  1175A      3.729093  1176A      3.732718  
    1177A      3.773696  1178A      3.808187  1179A      3.830958  
    1180A      3.852123  1181A      3.866327  1182A      3.873570  
    1183A      3.883469  1184A      3.907253  1185A      3.917711  
    1186A      3.918221  1187A      3.993149  1188A      4.012600  
    1189A      4.052708  1190A      4.132128  1191A      4.159455  
    1192A      4.260215  1193A      4.277400  1194A      4.306508  
    1195A      4.484180  1196A      4.489675  1197A      4.556782  
    1198A      4.878652  1199A      4.882972  1200A      4.932853  
    1201A      4.983241  1202A      5.004504  1203A      5.103371  
    1204A      5.114801  1205A      5.141614  1206A      5.166086  
    1207A      5.286603  1208A      5.436111  1209A      5.457082  
    1210A      5.812638  1211A      5.823169  1212A      6.099753  
    1213A     18.212511  1214A     18.514066  1215A     18.538865  
    1216A     18.678149  1217A     18.871435  1218A     25.365406  
    1219A     25.404817  

    Final Occupation by Irrep:
              A 
    DOCC [   171 ]
    NA   [   171 ]
    NB   [   171 ]

  @DF-RHF Final Energy: -2055.89632351451337

   => Energetics <=

    Nuclear Repulsion Energy =           6452.5568002797781446
    One-Electron Energy =              -15636.5466841218039917
    Two-Electron Energy =                7128.0935603275138419
    Total Energy =                      -2055.8963235145129147

Computation Completed


Properties will be evaluated at   0.000000,   0.000000,   0.000000 [a0]

Properties computed using the SCF density matrix


 Multipole Moments:

 ------------------------------------------------------------------------------------
     Multipole            Electronic (a.u.)      Nuclear  (a.u.)        Total (a.u.)
 ------------------------------------------------------------------------------------

 L = 1.  Multiply by 2.5417464519 to convert [e a0] to [Debye]
 Dipole X            :          0.0000883           -0.0000085            0.0000798
 Dipole Y            :          0.0006782            0.0000167            0.0006948
 Dipole Z            :       -279.4912096          279.4895217           -0.0016879
 Magnitude           :                                                    0.0018271

 ------------------------------------------------------------------------------------

*** tstop() called on n2cn1050 at Sat Feb  3 11:22:28 2024
Module time:
	user time   =    3459.87 seconds =      57.66 minutes
	system time =     180.96 seconds =       3.02 minutes
	total time  =        605 seconds =      10.08 minutes
Total time:
	user time   =   10616.11 seconds =     176.94 minutes
	system time =     571.06 seconds =       9.52 minutes
	total time  =       2007 seconds =      33.45 minutes
  Constructing Basis Sets for SAPT...

   => Loading Basis Set <=

    Name: (JUN-CC-PVDZ AUX)
    Role: RIFIT
    Keyword: DF_BASIS_SAPT
    atoms 1-2, 4-5, 10, 17-70 entry C          line   100 file /opt/software/pc2/EB-SW/software/PSI4/1.9-foss-2022a/share/psi4/basis/jun-cc-pvdz-ri.gbs 
    atoms 3, 6                entry N          line   144 file /opt/software/pc2/EB-SW/software/PSI4/1.9-foss-2022a/share/psi4/basis/jun-cc-pvdz-ri.gbs 
    atoms 7-9, 11-16, 71-88   entry H          line    30 file /opt/software/pc2/EB-SW/software/PSI4/1.9-foss-2022a/share/psi4/basis/jun-cc-pvdz-ri.gbs 

   => Loading Basis Set <=

    Name: (JUN-CC-PVDZ AUX)
    Role: JKFIT
    Keyword: DF_BASIS_ELST
    atoms 1-2, 4-5, 10, 17-70 entry C          line   146 file /opt/software/pc2/EB-SW/software/PSI4/1.9-foss-2022a/share/psi4/basis/jun-cc-pvdz-jkfit.gbs 
    atoms 3, 6                entry N          line   202 file /opt/software/pc2/EB-SW/software/PSI4/1.9-foss-2022a/share/psi4/basis/jun-cc-pvdz-jkfit.gbs 
    atoms 7-9, 11-16, 71-88   entry H          line    70 file /opt/software/pc2/EB-SW/software/PSI4/1.9-foss-2022a/share/psi4/basis/jun-cc-pvdz-jkfit.gbs 


  //>>>>>>>>>>>>>>>>>>>>>>>>>>>>>>>>>>>//
  //               SSAPT0              //
  //<<<<<<<<<<<<<<<<<<<<<<<<<<<<<<<<<<<//


*** tstart() called on n2cn1050
*** at Sat Feb  3 11:22:29 2024

        SAPT0  
    Ed Hohenstein
     6 June 2009

      Orbital Information
  --------------------------
    NSO        =      1233
    NMO        =      1219
    NRI        =      4343
    NRI (Elst) =      5440
    NOCC A     =        26
    NOCC B     =       171
    FOCC A     =         7
    FOCC B     =        54
    NVIR A     =      1193
    NVIR B     =      1048

    Elst10,r            =    -0.058887031025 [Eh]
    Exch10              =     0.169252751846 [Eh]
    Exch10 (S^2)        =     0.162804862965 [Eh]

    Iter     Energy [mEh]          dE [mEh]         Residual      Time [s]
       1     -24.52172436      24.521724360      26.964534532           355
       2     -30.54299739       6.021273034       8.589775812           671
       3     -31.20944135       0.666443955       1.775823268          1037
       4     -31.17321831      -0.036223040       0.637721436          1425
       5     -31.13893561      -0.034282695       0.162116937          1770
       6     -31.14691447       0.007978858       0.076828439          2075
       7     -31.14675724      -0.000157231       0.032967029          2384
       8     -31.14594750      -0.000809744       0.007640277          2581
       9     -31.14589032      -0.000057174       0.002265069          2595
      10     -31.14591749       0.000027168       0.000641794          2608
      11     -31.14592431       0.000006819       0.000162729          2621
      12     -31.14592313      -0.000001179       0.000052391          2634
      13     -31.14592230      -0.000000831       0.000014281          2648
      14     -31.14592254       0.000000243       0.000004087          2661
      15     -31.14592253      -0.000000010       0.000001275          2674
      16     -31.14592252      -0.000000017       0.000000371          2687

    CHF Iterations converged


    Iter     Energy [mEh]          dE [mEh]         Residual      Time [s]
       1     -57.70777313      57.707773125     104.277618273           199
       2     -47.44113798     -10.266635147      19.055885757           250
       3     -49.97037841       2.529240432       8.612112864           265
       4     -51.45246303       1.482084618       1.662884868           280
       5     -51.46634297       0.013879939       0.676023291           295
       6     -51.40596136      -0.060381603       0.297245624           310
       7     -51.40147819      -0.004483176       0.142632306           325
       8     -51.41124146       0.009763276       0.058094342           340
       9     -51.41245224       0.001210773       0.024084375           355
      10     -51.41140985      -0.001042389       0.010433120           370
      11     -51.41120193      -0.000207921       0.004689709           386
      12     -51.41133763       0.000135702       0.002463844           401
      13     -51.41141167       0.000074042       0.001089035           420
      14     -51.41137469      -0.000036985       0.000698678           435
      15     -51.41136172      -0.000012965       0.000393219           451
      16     -51.41137034       0.000008615       0.000237240           466
      17     -51.41137576       0.000005422       0.000113628           481
      18     -51.41137369      -0.000002066       0.000060870           499
      19     -51.41137253      -0.000001162       0.000033632           514
      20     -51.41137268       0.000000152       0.000017274          1537
      21     -51.41137312       0.000000434       0.000007290          2743
      22     -51.41137309      -0.000000030       0.000003490          3859
      23     -51.41137302      -0.000000064       0.000001899          4197
      24     -51.41137301      -0.000000016       0.000000972          4383

    CHF Iterations converged

    Ind20,r (A<-B)      =    -0.031145922516 [Eh]
    Ind20,r (B<-A)      =    -0.051411373006 [Eh]
    Ind20,r             =    -0.082557295522 [Eh]
    Exch-Ind20,r (A<-B) =     0.027795557699 [Eh]
    Exch-Ind20,r (B<-A) =     0.023315395139 [Eh]
    Exch-Ind20,r        =     0.051110952838 [Eh]
    Disp20              =    -0.080812039121 [Eh]
    Disp20 (SS)         =    -0.040406019561 [Eh]
    Disp20 (OS)         =    -0.040406019561 [Eh]
    Exch-Disp20         =     0.011328624036 [Eh]
    Exch-Disp20 (SS)    =     0.006656559308 [Eh]
    Exch-Disp20 (OS)    =     0.004672064728 [Eh]

    SAPT Results 
  --------------------------------------------------------------------------------------------------------
    Electrostatics                -58.88703102 [mEh]     -36.95216985 [kcal/mol]    -154.60787866 [kJ/mol]
      Elst10,r                    -58.88703102 [mEh]     -36.95216985 [kcal/mol]    -154.60787866 [kJ/mol]

    Exchange                      169.25275185 [mEh]     106.20770525 [kcal/mol]     444.37303875 [kJ/mol]
      Exch10                      169.25275185 [mEh]     106.20770525 [kcal/mol]     444.37303875 [kJ/mol]
      Exch10(S^2)                 162.80486297 [mEh]     102.16159389 [kcal/mol]     427.44410883 [kJ/mol]

    Induction                     -45.78882396 [mEh]     -28.73292083 [kcal/mol]    -120.21854075 [kJ/mol]
      Ind20,r                     -82.55729552 [mEh]     -51.80548507 [kcal/mol]    -216.75414953 [kJ/mol]
      Exch-Ind20,r                 51.11095284 [mEh]      32.07260712 [kcal/mol]     134.19178819 [kJ/mol]
      delta HF,r (2)              -14.34248128 [mEh]      -9.00004288 [kcal/mol]     -37.65617941 [kJ/mol]

    Dispersion                    -69.48341508 [mEh]     -43.60150124 [kcal/mol]    -182.42868117 [kJ/mol]
      Disp20                      -80.81203912 [mEh]     -50.71032014 [kcal/mol]    -212.17197948 [kJ/mol]
      Exch-Disp20                  11.32862404 [mEh]       7.10881891 [kcal/mol]      29.74329831 [kJ/mol]
      Disp20 (SS)                 -40.40601956 [mEh]     -25.35516007 [kcal/mol]    -106.08598974 [kJ/mol]
      Disp20 (OS)                 -40.40601956 [mEh]     -25.35516007 [kcal/mol]    -106.08598974 [kJ/mol]
      Exch-Disp20 (SS)              6.65655931 [mEh]       4.17705403 [kcal/mol]      17.47679406 [kJ/mol]
      Exch-Disp20 (OS)              4.67206473 [mEh]       2.93176488 [kcal/mol]      12.26650425 [kJ/mol]

  Total HF                         64.57689686 [mEh]      40.52261457 [kcal/mol]     169.54661934 [kJ/mol]
  Total SAPT0                      -4.90651823 [mEh]      -3.07888667 [kcal/mol]     -12.88206183 [kJ/mol]

  Special recipe for scaled SAPT0 (see Manual):
    Electrostatics sSAPT0         -58.88703102 [mEh]     -36.95216985 [kcal/mol]    -154.60787866 [kJ/mol]
    Exchange sSAPT0               169.25275185 [mEh]     106.20770525 [kcal/mol]     444.37303875 [kJ/mol]
    Induction sSAPT0              -39.47238745 [mEh]     -24.76929708 [kcal/mol]    -103.63473897 [kJ/mol]
    Dispersion sSAPT0             -68.08339160 [mEh]     -42.72297323 [kcal/mol]    -178.75292001 [kJ/mol]
  Total sSAPT0                      2.80994177 [mEh]       1.76326508 [kcal/mol]       7.37750111 [kJ/mol]
  --------------------------------------------------------------------------------------------------------

*** tstop() called on n2cn1050 at Sat Feb  3 16:14:37 2024
Module time:
	user time   =   12768.31 seconds =     212.81 minutes
	system time =     772.26 seconds =      12.87 minutes
	total time  =      17528 seconds =     292.13 minutes
Total time:
	user time   =   23385.25 seconds =     389.75 minutes
	system time =    1343.33 seconds =      22.39 minutes
	total time  =      19536 seconds =     325.60 minutes

    Psi4 stopped on: Saturday, 03 February 2024 04:14PM
    Psi4 wall time for execution: 5:25:38.36

*** Psi4 exiting successfully. Buy a developer a beer!
