
    -----------------------------------------------------------------------
          Psi4: An Open-Source Ab Initio Electronic Structure Package
                               Psi4 1.9 release

                         Git: Rev {} zzzzzzz 


    D. G. A. Smith, L. A. Burns, A. C. Simmonett, R. M. Parrish,
    M. C. Schieber, R. Galvelis, P. Kraus, H. Kruse, R. Di Remigio,
    A. Alenaizan, A. M. James, S. Lehtola, J. P. Misiewicz, M. Scheurer,
    R. A. Shaw, J. B. Schriber, Y. Xie, Z. L. Glick, D. A. Sirianni,
    J. S. O'Brien, J. M. Waldrop, A. Kumar, E. G. Hohenstein,
    B. P. Pritchard, B. R. Brooks, H. F. Schaefer III, A. Yu. Sokolov,
    K. Patkowski, A. E. DePrince III, U. Bozkaya, R. A. King,
    F. A. Evangelista, J. M. Turney, T. D. Crawford, C. D. Sherrill,
    J. Chem. Phys. 152(18) 184108 (2020). https://doi.org/10.1063/5.0006002

                            Additional Code Authors
    E. T. Seidl, C. L. Janssen, E. F. Valeev, M. L. Leininger,
    J. F. Gonthier, R. M. Richard, H. R. McAlexander, M. Saitow, X. Wang,
    P. Verma, M. H. Lechner, A. Jiang, S. Behnle, A. G. Heide,
    M. F. Herbst, and D. L. Poole

             Previous Authors, Complete List of Code Contributors,
                       and Citations for Specific Modules
    https://github.com/psi4/psi4/blob/master/codemeta.json
    https://github.com/psi4/psi4/graphs/contributors
    http://psicode.org/psi4manual/master/introduction.html#citing-psifour

    -----------------------------------------------------------------------


    Psi4 started on: Wednesday, 24 January 2024 10:36PM

    Process ID: 4030559
    Host:       n2cn0795
    PSIDATADIR: /opt/software/pc2/EB-SW/software/PSI4/1.9-foss-2022a/share/psi4
    Memory:     500.0 MiB
    Threads:    16
    
  ==> Input File <==

--------------------------------------------------------------------------
memory 47 GB # how much memory is available ! Depends on the nodes/cores !

molecule dimer {
# monomer A
-1 1    # Charge and multiplicity
B -1.977592e-04  2.742729e-04 7.200034
F  1.123153e-16  1.430594e-17 8.612819
F  1.147860e+00  6.757812e-01 6.728893
F  1.191806e-02 -1.332011e+00 6.729095
F -1.159666e+00  6.560735e-01 6.729174
--
# monomer B
0 1     # Charge and multiplicity
C   -3.66844126402057      7.80375217008252      0.00190004133558
C   -4.84759871934653      7.13124183134024     -0.00046653359696
C   -4.89495929917518      5.69633040353158     -0.00103944469517
C   -3.65374067877320      4.98073034095895      0.00662099703436
C   -2.40942512149445      7.11398103667468      0.00209438359570
C   -2.42547734410473      5.68112195090346     -0.00491050527438
C   -1.19474401643570      7.78614419430947      0.00356656413763
C   0.03795902893699      7.09942164575698      0.00139585983271
C   0.03033258741920      5.66948955970466     -0.00408752508301
C   -1.20098450790502      4.96927034791531      0.00488220885047
C   1.27795782581485      7.77285944319479      0.00277170839332
C   2.48535808472416      7.08769688523756      0.00049722048857
C   2.48612868491717      5.65477081024076     -0.00644052849921
C   1.25408291964399      4.95607811366431      0.00518741308898
C   3.75171459140595      7.76391215098033      0.00062407186893
C   4.92356605618520      7.07878077698995     -0.00143240883900
C   4.95560727132542      5.64344746336949     -0.00159282164606
C   3.70680153420475      4.94121020833308      0.00349873852374
H   -3.65852113775815      8.89082741913536      0.00358502958574
H   -1.18921332975660      8.87412108735996      0.00753844057883
H   1.28429423888630      8.86083343548850      0.00693053253426
H   3.75354208679975      8.85103527897216      0.00214659618464
H   5.86995870320703      7.61379483465560     -0.00235777588134
H   -5.78823170750226      7.67630221293400     -0.00202638095293
C   -6.09197395869619      4.99326001364347     -0.00291168518608
C   -6.12866148031747      3.58258016879823     -0.00171050815740
C   -3.66457974004527      3.56418217974434     -0.00463560277484
C   -4.89429820469869      2.86108077590057      0.00453338221034
C   -2.43733499489796      2.84761165708481      0.00719617576166
C   -1.20922785759670      3.54788693497833     -0.00648285103018
C   1.24714157216223      3.53468075142962     -0.00729145743546
C   0.01517603956900      2.83311183930540      0.00439272578912
C   2.46764517244071      2.82128997725533      0.00449278391269
C   3.70254947457969      3.52466015442405     -0.00899517692985
C   6.14498038638375      4.92757236613191     -0.00282626685777
C   6.16658835886151      3.51658447594213     -0.00065971342101
C   4.92460995845939      2.80840792535402      0.00587903281610
H   7.08990550964105      5.46688776622306     -0.00658814770723
H   -7.03104175110130      5.54268795285765     -0.00714490013730
C   -7.33969804112295      2.85841153457957     -0.00333767559888
C   -7.36488195805880      1.47032337158330     -0.00157213747140
C   -4.90350460894690      1.44442681216000     -0.00628840166334
C   -6.13225715261081      0.73993935705394      0.00600164231964
C   -3.67687480051673      0.72669714267312      0.00433931473643
C   -2.44565658606518      1.42964113326212     -0.00597039546461
C   -1.22360068130162      0.71532450163492      0.00545886906656
C   0.00763786931376      1.41738314923765      0.00392452278437
C   1.23121980774686      0.70211669058719     -0.01490206287210
C   2.46082110053113      1.40329203612573      0.00460244601878
C   3.68443025419614      0.68719842821222      0.00377365974158
C   4.91870890153864      1.39173456118907     -0.00862816189375
C   7.36980207796101      2.77948220318441     -0.00242013321349
C   7.38016266612146      1.39121750785509     -0.00087345036788
C   6.13979953912259      0.67411862320065      0.00545489144369
H   -8.27919079934664      3.40711804112415     -0.00763522772059
H   8.31511347147953      3.31811809662368     -0.00663070901292
C   -8.59175593758115      0.72483255304480     -0.00123170985383
C   -8.59902460370342     -0.63263980622873      0.00089141472904
C   -6.13981313911873     -0.67413663715361     -0.00609792660607
C   -7.38018411213749     -1.39126618958160      0.00131813493501
C   -4.91868448025621     -1.39175501803000      0.00624257154343
C   -3.68443829568458     -0.68723731573599     -0.00478966852105
C   -2.46081704024768     -1.40334517882457      0.00575341766833
C   -1.23116201232071     -0.70217386488055     -0.00636696112346
C   -0.00756962538737     -1.41741884941102      0.00108956317991
C   1.22364771588843     -0.71527537726392      0.01109518512883
C   2.44567064933149     -1.42964328900682     -0.00065482763106
C   3.67686670284649     -0.72670743155550     -0.00479541202602
C   6.13224884641929     -0.73997883984993     -0.00632338623858
C   4.90351914550401     -1.44445752054090      0.00751768830159
C   8.59901484869081      0.63260386666793     -0.00101133422380
C   8.59174548810050     -0.72485086719319      0.00072504603735
C   7.36486276438985     -1.47033266560598      0.00049486934466
H   -9.52830597181814      1.27684744919284     -0.00270163681798
H   9.54141097460619      1.17457248844457     -0.00206336648518
C   -7.36983790976868     -2.77954514593389      0.00312634335708
C   -4.92459910905015     -2.80843725734101     -0.00460528907921
C   -6.16662249566744     -3.51665219282533      0.00169655107992
C   -3.70251035970491     -3.52468154912026      0.00571878010666
C   -2.46764698511392     -2.82132596280400     -0.00632585824990
C   -0.01513347410770     -2.83314164539971     -0.00604426974092
C   -1.24712184122656     -3.53473217556300      0.00551968366725
C   1.20924506964357     -3.54791467864352      0.00805871345849
C   2.43733602215464     -2.84764173817541     -0.00608104485234
C   4.89430234377080     -2.86112296828604     -0.00526030478103
C   3.66461525504104     -3.56421984553201      0.00761911515957
C   6.12863901474565     -3.58258405771778      0.00096495711699
C   7.33967266469532     -2.85841330737039      0.00248018319869
H   -9.54144911125902     -1.17456346666430      0.00226083090216
H   9.52826186807155     -1.27691907390448      0.00197485379837
H   -8.31516504384864     -3.31814985321231      0.00729857188773
H   8.27915514249207     -3.40714078989363      0.00681973918158
C   -6.14499418870218     -4.92764727278338      0.00302254913999
C   -3.70678334799751     -4.94126171411716     -0.00679841894792
C   -4.95559005800169     -5.64349397349412      0.00116871569699
C   -2.48612132622665     -5.65478557440947      0.00614125209662
C   -1.25405833548005     -4.95612205000132     -0.00503435388927
C   1.20101257386816     -4.96928038819302     -0.00385322963129
C   -0.03033667441341     -5.66952030313900      0.00398997003238
C   3.65375010132847     -4.98074377541453     -0.00309522988330
C   2.42549269587528     -5.68117463552727      0.00628170066869
C   6.09196561781097     -4.99325796338655      0.00325918379042
C   4.89497644461045     -5.69634842095790      0.00202298796027
H   -7.08989238804069     -5.46699984223871      0.00742531082125
H   7.03105520920009     -5.54265853633254      0.00683896355417
C   -4.92354532219813     -7.07882109967734      0.00061394679214
C   -2.48534208823777     -7.08772807792913     -0.00189594564379
C   -3.75168589177895     -7.76394715763627     -0.00170126671874
C   -0.03794895698805     -7.09946487446944     -0.00168022049625
C   -1.27795610040136     -7.77290438466689     -0.00366491325785
C   2.40944432072629     -7.11402201200282     -0.00081701968533
C   1.19474993715296     -7.78618536556242     -0.00296931056689
C   4.84762105249800     -7.13126211057943      0.00168979497423
C   3.66847160587561     -7.80378799294376     -0.00065863938960
H   -5.86994035041618     -7.61383059804164      0.00215798365757
H   5.78824962538815     -7.67633218931421      0.00281691445618
H   -3.75352693944918     -8.85107156923607     -0.00353718114765
H   -1.28430440589466     -8.86087539249706     -0.00809229711623
H   1.18922157469537     -8.87416062058945     -0.00706194725726
H   3.65854661482387     -8.89086063405326     -0.00231318081200

    units angstrom      # Angstroms are the default
    no_reorient         # Geometry fixed, default
    symmetry c1         # C1 symmetry, default
}

set {
    scf_type DF         # Density fitting, faster than exact integrals
    freeze_core True    # Freeze core electrons
    basis jun-cc-pVDZ   # Jun-cc-pVDZ basis set, recommended for sSAPT0 in https://doi.org/10.1063/1.4867135
}

energy('ssapt0')        # Compute sSAPT0 energy, includes also SAPT0
--------------------------------------------------------------------------

  Memory set to  43.772 GiB by Python driver.

Scratch directory: /tmp/
   => Loading Basis Set <=

    Name: JUN-CC-PVDZ
    Role: ORBITAL
    Keyword: BASIS
    atoms 1                                                   entry B          line   130 file /opt/software/pc2/EB-SW/software/PSI4/1.9-foss-2022a/share/psi4/basis/jun-cc-pvdz.gbs 
    atoms 2-5                                                 entry F          line   266 file /opt/software/pc2/EB-SW/software/PSI4/1.9-foss-2022a/share/psi4/basis/jun-cc-pvdz.gbs 
    atoms 6-23, 30-42, 45-59, 62-78, 81-93, 98-108, 111-119   entry C          line   164 file /opt/software/pc2/EB-SW/software/PSI4/1.9-foss-2022a/share/psi4/basis/jun-cc-pvdz.gbs 
    atoms 24-29, 43-44, 60-61, 79-80, 94-97, 109-110, 120-125 entry H          line    36 file /opt/software/pc2/EB-SW/software/PSI4/1.9-foss-2022a/share/psi4/basis/jun-cc-pvdz.gbs 

   => Loading Basis Set <=

    Name: JUN-CC-PVDZ
    Role: ORBITAL
    Keyword: BASIS
    atoms 1                                                   entry B          line   130 file /opt/software/pc2/EB-SW/software/PSI4/1.9-foss-2022a/share/psi4/basis/jun-cc-pvdz.gbs 
    atoms 2-5                                                 entry F          line   266 file /opt/software/pc2/EB-SW/software/PSI4/1.9-foss-2022a/share/psi4/basis/jun-cc-pvdz.gbs 
    atoms 6-23, 30-42, 45-59, 62-78, 81-93, 98-108, 111-119   entry C          line   164 file /opt/software/pc2/EB-SW/software/PSI4/1.9-foss-2022a/share/psi4/basis/jun-cc-pvdz.gbs 
    atoms 24-29, 43-44, 60-61, 79-80, 94-97, 109-110, 120-125 entry H          line    36 file /opt/software/pc2/EB-SW/software/PSI4/1.9-foss-2022a/share/psi4/basis/jun-cc-pvdz.gbs 


  //>>>>>>>>>>>>>>>>>>>>>>>>>>>>>>>>>>>//
  //              Dimer HF             //
  //<<<<<<<<<<<<<<<<<<<<<<<<<<<<<<<<<<<//

   => Libint2 <=

    Primary   basis highest AM E, G, H:  5, 4, 3
    Auxiliary basis highest AM E, G, H:  6, 5, 4
    Onebody   basis highest AM E, G, H:  6, 5, 4
    Solid Harmonics ordering:            gaussian

*** tstart() called on n2cn0795
*** at Wed Jan 24 22:36:42 2024

   => Loading Basis Set <=

    Name: JUN-CC-PVDZ
    Role: ORBITAL
    Keyword: BASIS
    atoms 1                                                   entry B          line   130 file /opt/software/pc2/EB-SW/software/PSI4/1.9-foss-2022a/share/psi4/basis/jun-cc-pvdz.gbs 
    atoms 2-5                                                 entry F          line   266 file /opt/software/pc2/EB-SW/software/PSI4/1.9-foss-2022a/share/psi4/basis/jun-cc-pvdz.gbs 
    atoms 6-23, 30-42, 45-59, 62-78, 81-93, 98-108, 111-119   entry C          line   164 file /opt/software/pc2/EB-SW/software/PSI4/1.9-foss-2022a/share/psi4/basis/jun-cc-pvdz.gbs 
    atoms 24-29, 43-44, 60-61, 79-80, 94-97, 109-110, 120-125 entry H          line    36 file /opt/software/pc2/EB-SW/software/PSI4/1.9-foss-2022a/share/psi4/basis/jun-cc-pvdz.gbs 


         ---------------------------------------------------------
                                   SCF
               by Justin Turney, Rob Parrish, Andy Simmonett
                          and Daniel G. A. Smith
                              RHF Reference
                       16 Threads,  44822 MiB Core
         ---------------------------------------------------------

  ==> Geometry <==

    Molecular point group: c1
    Full point group: C1

    Geometry (in Angstrom), charge = -1, multiplicity = 1:

       Center              X                  Y                   Z               Mass       
    ------------   -----------------  -----------------  -----------------  -----------------
         B           -0.000201921932     0.000288800891     6.704127119334    11.009305360000
         F           -0.000004162732     0.000014527991     8.116912119334    18.998403162730
         F            1.147855837268     0.675795727991     6.232986119334    18.998403162730
         F            0.011913897268    -1.331996472009     6.233188119334    18.998403162730
         F           -1.159670162732     0.656088027991     6.233267119334    18.998403162730
         C           -3.668445426752     7.803766698073    -0.494006839331    12.000000000000
         C           -4.847602882078     7.131256359331    -0.496373414263    12.000000000000
         C           -4.894963461907     5.696344931522    -0.496946325362    12.000000000000
         C           -3.653744841505     4.980744868950    -0.489285883632    12.000000000000
         C           -2.409429284226     7.113995564665    -0.493812497071    12.000000000000
         C           -2.425481506836     5.681136478894    -0.500817385941    12.000000000000
         C           -1.194748179167     7.786158722300    -0.492340316529    12.000000000000
         C            0.037954866205     7.099436173748    -0.494511020834    12.000000000000
         C            0.030328424687     5.669504087695    -0.499994405750    12.000000000000
         C           -1.200988670637     4.969284875906    -0.491024671816    12.000000000000
         C            1.277953663083     7.772873971185    -0.493135172273    12.000000000000
         C            2.485353921992     7.087711413228    -0.495409660178    12.000000000000
         C            2.486124522185     5.654785338231    -0.502347409166    12.000000000000
         C            1.254078756912     4.956092641655    -0.490719467578    12.000000000000
         C            3.751710428674     7.763926678971    -0.495282808798    12.000000000000
         C            4.923561893453     7.078795304981    -0.497339289505    12.000000000000
         C            4.955603108594     5.643461991360    -0.497499702313    12.000000000000
         C            3.706797371473     4.941224736324    -0.492408142143    12.000000000000
         H           -3.658525300490     8.890841947126    -0.492321851081     1.007825032230
         H           -1.189217492488     8.874135615351    -0.488368440088     1.007825032230
         H            1.284290076155     8.860847963479    -0.488976348132     1.007825032230
         H            3.753537924068     8.851049806963    -0.493760284482     1.007825032230
         H            5.869954540475     7.613809362646    -0.498264656548     1.007825032230
         H           -5.788235870234     7.676316740925    -0.497933261619     1.007825032230
         C           -6.091978121428     4.993274541634    -0.498818565853    12.000000000000
         C           -6.128665643049     3.582594696789    -0.497617388824    12.000000000000
         C           -3.664583902777     3.564196707735    -0.500542483441    12.000000000000
         C           -4.894302367430     2.861095303891    -0.491373498456    12.000000000000
         C           -2.437339157630     2.847626185075    -0.488710704905    12.000000000000
         C           -1.209232020328     3.547901462969    -0.502389731697    12.000000000000
         C            1.247137409430     3.534695279420    -0.503198338102    12.000000000000
         C            0.015171876837     2.833126367296    -0.491514154877    12.000000000000
         C            2.467641009709     2.821304505246    -0.491414096754    12.000000000000
         C            3.702545311848     3.524674682415    -0.504902057596    12.000000000000
         C            6.144976223652     4.927586894122    -0.498733147524    12.000000000000
         C            6.166584196130     3.516599003933    -0.496566594087    12.000000000000
         C            4.924605795728     2.808422453345    -0.490027847850    12.000000000000
         H            7.089901346909     5.466902294214    -0.502495028374     1.007825032230
         H           -7.031045913833     5.542702480848    -0.503051780804     1.007825032230
         C           -7.339702203855     2.858426062570    -0.499244556265    12.000000000000
         C           -7.364886120791     1.470337899574    -0.497479018138    12.000000000000
         C           -4.903508771679     1.444441340151    -0.502195282330    12.000000000000
         C           -6.132261315343     0.739953885044    -0.489905238347    12.000000000000
         C           -3.676878963248     0.726711670664    -0.491567565930    12.000000000000
         C           -2.445660748797     1.429655661253    -0.501877276131    12.000000000000
         C           -1.223604844033     0.715339029625    -0.490448011600    12.000000000000
         C            0.007633706582     1.417397677228    -0.491982357882    12.000000000000
         C            1.231215645015     0.702131218578    -0.510808943539    12.000000000000
         C            2.460816937799     1.403306564116    -0.491304434648    12.000000000000
         C            3.684426091464     0.687212956203    -0.492133220925    12.000000000000
         C            4.918704738807     1.391749089180    -0.504535042560    12.000000000000
         C            7.369797915229     2.779496731175    -0.498327013880    12.000000000000
         C            7.380158503390     1.391232035846    -0.496780331034    12.000000000000
         C            6.139795376391     0.674133151191    -0.490451989223    12.000000000000
         H           -8.279194962078     3.407132569115    -0.503542108387     1.007825032230
         H            8.315109308748     3.318132624614    -0.502537589679     1.007825032230
         C           -8.591760100313     0.724847081035    -0.497138590520    12.000000000000
         C           -8.599028766435    -0.632625278238    -0.495015465937    12.000000000000
         C           -6.139817301850    -0.674122109163    -0.502004807273    12.000000000000
         C           -7.380188274869    -1.391251661591    -0.494588745731    12.000000000000
         C           -4.918688642988    -1.391740490039    -0.489664309123    12.000000000000
         C           -3.684442458416    -0.687222787745    -0.500696549188    12.000000000000
         C           -2.460821202979    -1.403330650834    -0.490153462998    12.000000000000
         C           -1.231166175052    -0.702159336890    -0.502273841790    12.000000000000
         C           -0.007573788119    -1.417404321420    -0.494817317487    12.000000000000
         C            1.223643553157    -0.715260849273    -0.484811695538    12.000000000000
         C            2.445666486600    -1.429628761016    -0.496561708298    12.000000000000
         C            3.676862540115    -0.726692903565    -0.500702292693    12.000000000000
         C            6.132244683688    -0.739964311859    -0.502230266905    12.000000000000
         C            4.903514982772    -1.444442992550    -0.488389192365    12.000000000000
         C            8.599010685959     0.632618394658    -0.496918214890    12.000000000000
         C            8.591741325369    -0.724836339203    -0.495181834629    12.000000000000
         C            7.364858601658    -1.470318137615    -0.495412011322    12.000000000000
         H           -9.528310134550     1.276861977183    -0.498608517484     1.007825032230
         H            9.541406811874     1.174587016435    -0.497970247152     1.007825032230
         C           -7.369842072500    -2.779530617943    -0.492780537309    12.000000000000
         C           -4.924603271782    -2.808422729350    -0.500512169746    12.000000000000
         C           -6.166626658399    -3.516637664835    -0.494210329587    12.000000000000
         C           -3.702514522437    -3.524667021130    -0.490188100560    12.000000000000
         C           -2.467651147846    -2.821311434813    -0.502232738916    12.000000000000
         C           -0.015137636839    -2.833127117409    -0.501951150407    12.000000000000
         C           -1.247126003958    -3.534717647572    -0.490387196999    12.000000000000
         C            1.209240906912    -3.547900150653    -0.487848167208    12.000000000000
         C            2.437331859423    -2.847627210185    -0.501987925519    12.000000000000
         C            4.894298181039    -2.861108440295    -0.501167185448    12.000000000000
         C            3.664611092309    -3.564205317541    -0.488287765507    12.000000000000
         C            6.128634852014    -3.582569529727    -0.494941923550    12.000000000000
         C            7.339668501964    -2.858398779380    -0.493426697468    12.000000000000
         H           -9.541453273991    -1.174548938674    -0.493646049764     1.007825032230
         H            9.528257705340    -1.276904545914    -0.493932026868     1.007825032230
         H           -8.315169206580    -3.318135325222    -0.488608308779     1.007825032230
         H            8.279150979760    -3.407126261903    -0.489087141485     1.007825032230
         C           -6.144998351434    -4.927632744793    -0.492884331527    12.000000000000
         C           -3.706787510729    -4.941247186127    -0.502705299614    12.000000000000
         C           -4.955594220733    -5.643479445504    -0.494738164969    12.000000000000
         C           -2.486125488958    -5.654771046419    -0.489765628570    12.000000000000
         C           -1.254062498212    -4.956107522011    -0.500941234556    12.000000000000
         C            1.201008411136    -4.969265860202    -0.499760110298    12.000000000000
         C           -0.030340837145    -5.669505775148    -0.491916910634    12.000000000000
         C            3.653745938597    -4.980729247424    -0.499002110550    12.000000000000
         C            2.425488533144    -5.681160107537    -0.489625179998    12.000000000000
         C            6.091961455079    -4.993243435396    -0.492647696876    12.000000000000
         C            4.894972281879    -5.696333892967    -0.493883892706    12.000000000000
         H           -7.089896550772    -5.466985314248    -0.488481569845     1.007825032230
         H            7.031051046468    -5.542644008342    -0.489067917112     1.007825032230
         C           -4.923549484930    -7.078806571687    -0.495292933874    12.000000000000
         C           -2.485346250970    -7.087713549939    -0.497802826310    12.000000000000
         C           -3.751690054511    -7.763932629646    -0.497608147385    12.000000000000
         C           -0.037953119720    -7.099450346479    -0.497587101163    12.000000000000
         C           -1.277960263133    -7.772889856676    -0.499571793924    12.000000000000
         C            2.409440157995    -7.114007484012    -0.496723900352    12.000000000000
         C            1.194745774421    -7.786170837572    -0.498876191233    12.000000000000
         C            4.847616889766    -7.131247582589    -0.494217085692    12.000000000000
         C            3.668467443144    -7.803773464953    -0.496565520056    12.000000000000
         H           -5.869944513148    -7.613816070051    -0.493748897009     1.007825032230
         H            5.788245462656    -7.676317661324    -0.493089966210     1.007825032230
         H           -3.753531102181    -8.851057041246    -0.499444061814     1.007825032230
         H           -1.284308568626    -8.860860864507    -0.503999177783     1.007825032230
         H            1.189217411964    -8.874146092599    -0.502968827924     1.007825032230
         H            3.658542452092    -8.890846106063    -0.498220061478     1.007825032230

  Running in c1 symmetry.

  Rotational constants: A =      0.00060  B =      0.00060  C =      0.00035 [cm^-1]
  Rotational constants: A =     17.92316  B =     17.92044  C =     10.55117 [MHz]
  Nuclear repulsion = 17173.512331276462646

  Charge       = -1
  Multiplicity = 1
  Electrons    = 642
  Nalpha       = 321
  Nbeta        = 321

  ==> Algorithm <==

  SCF Algorithm Type is DF.
  DIIS enabled.
  MOM disabled.
  Fractional occupation disabled.
  Guess Type is SAD.
  Energy threshold   = 1.00e-08
  Density threshold  = 1.00e-08
  Integral threshold = 1.00e-12

  ==> Primary Basis <==

  Basis Set: JUN-CC-PVDZ
    Blend: JUN-CC-PVDZ
    Number of shells: 880
    Number of basis functions: 1938
    Number of Cartesian functions: 2039
    Spherical Harmonics?: true
    Max angular momentum: 2

   => Loading Basis Set <=

    Name: (JUN-CC-PVDZ AUX)
    Role: JKFIT
    Keyword: DF_BASIS_SCF
    atoms 1                                                   entry B          line    90 file /opt/software/pc2/EB-SW/software/PSI4/1.9-foss-2022a/share/psi4/basis/jun-cc-pvdz-jkfit.gbs 
    atoms 2-5                                                 entry F          line   314 file /opt/software/pc2/EB-SW/software/PSI4/1.9-foss-2022a/share/psi4/basis/jun-cc-pvdz-jkfit.gbs 
    atoms 6-23, 30-42, 45-59, 62-78, 81-93, 98-108, 111-119   entry C          line   146 file /opt/software/pc2/EB-SW/software/PSI4/1.9-foss-2022a/share/psi4/basis/jun-cc-pvdz-jkfit.gbs 
    atoms 24-29, 43-44, 60-61, 79-80, 94-97, 109-110, 120-125 entry H          line    70 file /opt/software/pc2/EB-SW/software/PSI4/1.9-foss-2022a/share/psi4/basis/jun-cc-pvdz-jkfit.gbs 

  ==> Integral Setup <==

  ==> DiskDFJK: Density-Fitted J/K Matrices <==

    J tasked:                  Yes
    K tasked:                  Yes
    wK tasked:                  No
    OpenMP threads:             16
    Integrals threads:          16
    Memory [MiB]:            33617
    Algorithm:                Disk
    Integral Cache:           SAVE
    Schwarz Cutoff:          1E-12
    Fitting Condition:       1E-10

   => Auxiliary Basis Set <=

  Basis Set: (JUN-CC-PVDZ AUX)
    Blend: JUN-CC-PVDZ-JKFIT
    Number of shells: 2943
    Number of basis functions: 8531
    Number of Cartesian functions: 9791
    Spherical Harmonics?: true
    Max angular momentum: 3

  Minimum eigenvalue in the overlap matrix is 9.0471053441E-11.
  Reciprocal condition number of the overlap matrix is 3.9674090898E-12.
    Using canonical orthogonalization.
  Overall, 38 of 1938 possible MOs eliminated.


  ==> Pre-Iterations <==

  SCF Guess: Superposition of Atomic Densities via on-the-fly atomic UHF (no occupation information).

   -------------------------
    Irrep   Nso     Nmo    
   -------------------------
     A       1938    1900 
   -------------------------
    Total    1938    1900
   -------------------------

  ==> Iterations <==

                           Total Energy        Delta E     RMS |[F,P]|

   @DF-RHF iter SAD: -4084.99866953272249   -4.08500e+03   0.00000e+00 
   @DF-RHF iter   1: -4071.52551952846352    1.34732e+01   7.88010e-04 ADIIS/DIIS
   @DF-RHF iter   2: -4072.91707467472952   -1.39156e+00   3.07104e-04 ADIIS/DIIS
   @DF-RHF iter   3: -4073.07845564726085   -1.61381e-01   1.01671e-04 ADIIS/DIIS
   @DF-RHF iter   4: -4073.09994392746512   -2.14883e-02   3.67707e-05 DIIS
   @DF-RHF iter   5: -4073.10312315926103   -3.17923e-03   1.07443e-05 DIIS
   @DF-RHF iter   6: -4073.10354435900308   -4.21200e-04   4.19008e-06 DIIS
   @DF-RHF iter   7: -4073.10372025619699   -1.75897e-04   2.15777e-06 DIIS
   @DF-RHF iter   8: -4073.10377260673340   -5.23505e-05   1.16705e-06 DIIS
   @DF-RHF iter   9: -4073.10378845329251   -1.58466e-05   3.62464e-07 DIIS
   @DF-RHF iter  10: -4073.10378944103104   -9.87739e-07   1.70875e-07 DIIS
   @DF-RHF iter  11: -4073.10378961170818   -1.70677e-07   6.18706e-08 DIIS
   @DF-RHF iter  12: -4073.10378964566007   -3.39519e-08   3.15098e-08 DIIS
   @DF-RHF iter  13: -4073.10378965302698   -7.36691e-09   1.06392e-08 DIIS
   @DF-RHF iter  14: -4073.10378965385462   -8.27640e-10   4.79634e-09 DIIS
  Energy and wave function converged.


  ==> Post-Iterations <==

    Orbital Energies [Eh]
    ---------------------

    Doubly Occupied:                                                      

       1A    -26.064944     2A    -26.064802     3A    -26.064709  
       4A    -26.064622     5A    -11.211156     6A    -11.211149  
       7A    -11.211142     8A    -11.211140     9A    -11.211134  
      10A    -11.211129    11A    -11.211118    12A    -11.211115  
      13A    -11.211109    14A    -11.211107    15A    -11.211100  
      16A    -11.211092    17A    -11.210965    18A    -11.210952  
      19A    -11.210944    20A    -11.210935    21A    -11.210921  
      22A    -11.210910    23A    -11.209837    24A    -11.209814  
      25A    -11.209811    26A    -11.209740    27A    -11.209739  
      28A    -11.209655    29A    -11.209636    30A    -11.209547  
      31A    -11.209543    32A    -11.209459    33A    -11.209457  
      34A    -11.209423    35A    -11.209050    36A    -11.208968  
      37A    -11.208964    38A    -11.208800    39A    -11.208800  
      40A    -11.208644    41A    -11.208480    42A    -11.208459  
      43A    -11.208317    44A    -11.208311    45A    -11.208273  
      46A    -11.208271    47A    -11.208224    48A    -11.208092  
      49A    -11.208084    50A    -11.208025    51A    -11.208021  
      52A    -11.208017    53A    -11.207663    54A    -11.207659  
      55A    -11.207602    56A    -11.207509    57A    -11.207466  
      58A    -11.207464    59A    -11.207352    60A    -11.207351  
      61A    -11.207308    62A    -11.207295    63A    -11.207293  
      64A    -11.207211    65A    -11.207163    66A    -11.207156  
      67A    -11.207156    68A    -11.207075    69A    -11.207003  
      70A    -11.206999    71A    -11.206915    72A    -11.206900  
      73A    -11.206896    74A    -11.206444    75A    -11.206433  
      76A    -11.206194    77A    -11.206190    78A    -11.206189  
      79A    -11.206188    80A    -11.206185    81A    -11.206182  
      82A    -11.206036    83A    -11.204733    84A    -11.204730  
      85A    -11.204729    86A    -11.204728    87A    -11.204725  
      88A    -11.204722    89A    -11.203475    90A    -11.203473  
      91A    -11.203461    92A    -11.203418    93A    -11.203413  
      94A    -11.203409    95A    -11.203384    96A    -11.203382  
      97A    -11.203370    98A    -11.203328    99A    -11.203322  
     100A    -11.203319   101A     -7.537051   102A     -1.408723  
     103A     -1.349074   104A     -1.348939   105A     -1.348774  
     106A     -1.200146   107A     -1.186340   108A     -1.186338  
     109A     -1.168528   110A     -1.168523   111A     -1.162565  
     112A     -1.149772   113A     -1.143951   114A     -1.135560  
     115A     -1.135557   116A     -1.122678   117A     -1.122674  
     118A     -1.103312   119A     -1.103306   120A     -1.100333  
     121A     -1.093847   122A     -1.093845   123A     -1.076886  
     124A     -1.062474   125A     -1.062347   126A     -1.060926  
     127A     -1.060268   128A     -1.060254   129A     -1.036881  
     130A     -1.036865   131A     -1.026249   132A     -1.026248  
     133A     -1.015683   134A     -1.015653   135A     -1.012766  
     136A     -0.995477   137A     -0.995469   138A     -0.989181  
     139A     -0.988017   140A     -0.988016   141A     -0.973036  
     142A     -0.968474   143A     -0.968424   144A     -0.956200  
     145A     -0.954939   146A     -0.952399   147A     -0.948675  
     148A     -0.948628   149A     -0.940651   150A     -0.919326  
     151A     -0.919280   152A     -0.904915   153A     -0.904860  
     154A     -0.855263   155A     -0.855222   156A     -0.853107  
     157A     -0.853065   158A     -0.851475   159A     -0.839741  
     160A     -0.839681   161A     -0.838136   162A     -0.838078  
     163A     -0.837587   164A     -0.821552   165A     -0.819324  
     166A     -0.800765   167A     -0.795937   168A     -0.795916  
     169A     -0.793416   170A     -0.791275   171A     -0.783418  
     172A     -0.783405   173A     -0.777804   174A     -0.777801  
     175A     -0.734212   176A     -0.734197   177A     -0.731636  
     178A     -0.731614   179A     -0.730952   180A     -0.730932  
     181A     -0.730136   182A     -0.715641   183A     -0.708566  
     184A     -0.698881   185A     -0.683142   186A     -0.675803  
     187A     -0.675790   188A     -0.673751   189A     -0.673237  
     190A     -0.673218   191A     -0.666451   192A     -0.662030  
     193A     -0.662022   194A     -0.648863   195A     -0.648852  
     196A     -0.635214   197A     -0.635214   198A     -0.634343  
     199A     -0.631118   200A     -0.631108   201A     -0.627714  
     202A     -0.603083   203A     -0.600058   204A     -0.600029  
     205A     -0.599997   206A     -0.598908   207A     -0.598099  
     208A     -0.598084   209A     -0.589430   210A     -0.589404  
     211A     -0.589193   212A     -0.588374   213A     -0.584693  
     214A     -0.584665   215A     -0.577993   216A     -0.564871  
     217A     -0.564843   218A     -0.563071   219A     -0.557984  
     220A     -0.557979   221A     -0.547732   222A     -0.546970  
     223A     -0.546958   224A     -0.546711   225A     -0.546045  
     226A     -0.546004   227A     -0.544443   228A     -0.544431  
     229A     -0.543942   230A     -0.541780   231A     -0.540665  
     232A     -0.540662   233A     -0.535271   234A     -0.527943  
     235A     -0.527932   236A     -0.526227   237A     -0.526185  
     238A     -0.526100   239A     -0.523573   240A     -0.523569  
     241A     -0.522604   242A     -0.516876   243A     -0.516861  
     244A     -0.516086   245A     -0.515481   246A     -0.515450  
     247A     -0.511072   248A     -0.508276   249A     -0.507327  
     250A     -0.507309   251A     -0.503039   252A     -0.499297  
     253A     -0.497971   254A     -0.492553   255A     -0.482842  
     256A     -0.482829   257A     -0.481912   258A     -0.481900  
     259A     -0.477317   260A     -0.477300   261A     -0.475835  
     262A     -0.466072   263A     -0.466040   264A     -0.464344  
     265A     -0.464338   266A     -0.459194   267A     -0.459176  
     268A     -0.446878   269A     -0.445125   270A     -0.445098  
     271A     -0.445068   272A     -0.445026   273A     -0.441175  
     274A     -0.441160   275A     -0.436563   276A     -0.431000  
     277A     -0.426695   278A     -0.426692   279A     -0.423148  
     280A     -0.417512   281A     -0.415148   282A     -0.415142  
     283A     -0.406999   284A     -0.406230   285A     -0.406197  
     286A     -0.406115   287A     -0.394170   288A     -0.394109  
     289A     -0.388535   290A     -0.388154   291A     -0.388117  
     292A     -0.384236   293A     -0.383280   294A     -0.382779  
     295A     -0.382719   296A     -0.382634   297A     -0.355672  
     298A     -0.355648   299A     -0.335308   300A     -0.335307  
     301A     -0.334011   302A     -0.333962   303A     -0.331103  
     304A     -0.302810   305A     -0.302793   306A     -0.299088  
     307A     -0.284414   308A     -0.282278   309A     -0.282273  
     310A     -0.281524   311A     -0.281455   312A     -0.254449  
     313A     -0.249646   314A     -0.249410   315A     -0.249348  
     316A     -0.234918   317A     -0.206702   318A     -0.201077  
     319A     -0.201026   320A     -0.152890   321A     -0.152802  

    Virtual:                                                              

     322A      0.039758   323A      0.039839   324A      0.087029  
     325A      0.087254   326A      0.087282   327A      0.087433  
     328A      0.087503   329A      0.089082   330A      0.089777  
     331A      0.089796   332A      0.095151   333A      0.097757  
     334A      0.103210   335A      0.103226   336A      0.114490  
     337A      0.114496   338A      0.117609   339A      0.118305  
     340A      0.122319   341A      0.122375   342A      0.123643  
     343A      0.125650   344A      0.126005   345A      0.126128  
     346A      0.127883   347A      0.128190   348A      0.128312  
     349A      0.129863   350A      0.134041   351A      0.134064  
     352A      0.134421   353A      0.138729   354A      0.138739  
     355A      0.139793   356A      0.141933   357A      0.141968  
     358A      0.146249   359A      0.150251   360A      0.150306  
     361A      0.151670   362A      0.152979   363A      0.154827  
     364A      0.156342   365A      0.156454   366A      0.156897  
     367A      0.156965   368A      0.159956   369A      0.161682  
     370A      0.162138   371A      0.162180   372A      0.162653  
     373A      0.162718   374A      0.168669   375A      0.169722  
     376A      0.169777   377A      0.169934   378A      0.173026  
     379A      0.173170   380A      0.176976   381A      0.177007  
     382A      0.182107   383A      0.183786   384A      0.183947  
     385A      0.188614   386A      0.189064   387A      0.189365  
     388A      0.189571   389A      0.189596   390A      0.195725  
     391A      0.195868   392A      0.198338   393A      0.199529  
     394A      0.202167   395A      0.202583   396A      0.203332  
     397A      0.203371   398A      0.204670   399A      0.204895  
     400A      0.205552   401A      0.207924   402A      0.208066  
     403A      0.209033   404A      0.209106   405A      0.211320  
     406A      0.213296   407A      0.213563   408A      0.214435  
     409A      0.214590   410A      0.215629   411A      0.217303  
     412A      0.217388   413A      0.222633   414A      0.223619  
     415A      0.226355   416A      0.226368   417A      0.231927  
     418A      0.232037   419A      0.234717   420A      0.234903  
     421A      0.235119   422A      0.236524   423A      0.238668  
     424A      0.238954   425A      0.241305   426A      0.241611  
     427A      0.242541   428A      0.242587   429A      0.247946  
     430A      0.248127   431A      0.248265   432A      0.249001  
     433A      0.249272   434A      0.249340   435A      0.250193  
     436A      0.250311   437A      0.253626   438A      0.257751  
     439A      0.258775   440A      0.258787   441A      0.259454  
     442A      0.259519   443A      0.260137   444A      0.260431  
     445A      0.261831   446A      0.263504   447A      0.263954  
     448A      0.263971   449A      0.265144   450A      0.265256  
     451A      0.267105   452A      0.267146   453A      0.267914  
     454A      0.267924   455A      0.270669   456A      0.270839  
     457A      0.272827   458A      0.274997   459A      0.275091  
     460A      0.275916   461A      0.278996   462A      0.281095  
     463A      0.282289   464A      0.282351   465A      0.283119  
     466A      0.284757   467A      0.285584   468A      0.285677  
     469A      0.287887   470A      0.288034   471A      0.291030  
     472A      0.292522   473A      0.295686   474A      0.298995  
     475A      0.299317   476A      0.299383   477A      0.302119  
     478A      0.302267   479A      0.302801   480A      0.304429  
     481A      0.304934   482A      0.306464   483A      0.307133  
     484A      0.307182   485A      0.307848   486A      0.308543  
     487A      0.310190   488A      0.310212   489A      0.314391  
     490A      0.314543   491A      0.315405   492A      0.315538  
     493A      0.315582   494A      0.319707   495A      0.319738  
     496A      0.325742   497A      0.326979   498A      0.327026  
     499A      0.328775   500A      0.329149   501A      0.330420  
     502A      0.331052   503A      0.332483   504A      0.332664  
     505A      0.333448   506A      0.334319   507A      0.336217  
     508A      0.336348   509A      0.337506   510A      0.340934  
     511A      0.343057   512A      0.344022   513A      0.344511  
     514A      0.345453   515A      0.346278   516A      0.347898  
     517A      0.347930   518A      0.351841   519A      0.353083  
     520A      0.353148   521A      0.354347   522A      0.354428  
     523A      0.356194   524A      0.356504   525A      0.356761  
     526A      0.357278   527A      0.358523   528A      0.359741  
     529A      0.359781   530A      0.361160   531A      0.361263  
     532A      0.363844   533A      0.363921   534A      0.364619  
     535A      0.368804   536A      0.368961   537A      0.369393  
     538A      0.370579   539A      0.370735   540A      0.375553  
     541A      0.375586   542A      0.375685   543A      0.376646  
     544A      0.377087   545A      0.377540   546A      0.377605  
     547A      0.378671   548A      0.379092   549A      0.379583  
     550A      0.379680   551A      0.382244   552A      0.385322  
     553A      0.387394   554A      0.387495   555A      0.387754  
     556A      0.390397   557A      0.390424   558A      0.391730  
     559A      0.393562   560A      0.393938   561A      0.394025  
     562A      0.396134   563A      0.401098   564A      0.401619  
     565A      0.402503   566A      0.403305   567A      0.403591  
     568A      0.403876   569A      0.404596   570A      0.404828  
     571A      0.405146   572A      0.406714   573A      0.408262  
     574A      0.408894   575A      0.411804   576A      0.411947  
     577A      0.414303   578A      0.414788   579A      0.415223  
     580A      0.415551   581A      0.416340   582A      0.416371  
     583A      0.421570   584A      0.422747   585A      0.422856  
     586A      0.426584   587A      0.426646   588A      0.427111  
     589A      0.428995   590A      0.429204   591A      0.431300  
     592A      0.431314   593A      0.435478   594A      0.436294  
     595A      0.436391   596A      0.436653   597A      0.436689  
     598A      0.440427   599A      0.440665   600A      0.440898  
     601A      0.441874   602A      0.444053   603A      0.444270  
     604A      0.445501   605A      0.445559   606A      0.446344  
     607A      0.447824   608A      0.447903   609A      0.448620  
     610A      0.448787   611A      0.449424   612A      0.450824  
     613A      0.451907   614A      0.452258   615A      0.452659  
     616A      0.455854   617A      0.455892   618A      0.456207  
     619A      0.456410   620A      0.456997   621A      0.457255  
     622A      0.460469   623A      0.460504   624A      0.461210  
     625A      0.461350   626A      0.461486   627A      0.464562  
     628A      0.464591   629A      0.465444   630A      0.465574  
     631A      0.465951   632A      0.466326   633A      0.467606  
     634A      0.467844   635A      0.469153   636A      0.469221  
     637A      0.469312   638A      0.471308   639A      0.471318  
     640A      0.472255   641A      0.472363   642A      0.475315  
     643A      0.476499   644A      0.477887   645A      0.479216  
     646A      0.479316   647A      0.480251   648A      0.480885  
     649A      0.481758   650A      0.482615   651A      0.482872  
     652A      0.484390   653A      0.484524   654A      0.485167  
     655A      0.485386   656A      0.487134   657A      0.488879  
     658A      0.490943   659A      0.491073   660A      0.491466  
     661A      0.491969   662A      0.492159   663A      0.493279  
     664A      0.495986   665A      0.496258   666A      0.498404  
     667A      0.498721   668A      0.499036   669A      0.501689  
     670A      0.503538   671A      0.503632   672A      0.504726  
     673A      0.505600   674A      0.505824   675A      0.506305  
     676A      0.508744   677A      0.510074   678A      0.511886  
     679A      0.512788   680A      0.512991   681A      0.513009  
     682A      0.513231   683A      0.516947   684A      0.517098  
     685A      0.517606   686A      0.518318   687A      0.523442  
     688A      0.523757   689A      0.524253   690A      0.524371  
     691A      0.526384   692A      0.526522   693A      0.527266  
     694A      0.527309   695A      0.530080   696A      0.531350  
     697A      0.532587   698A      0.533392   699A      0.533585  
     700A      0.534634   701A      0.535184   702A      0.536558  
     703A      0.537006   704A      0.537077   705A      0.538080  
     706A      0.539064   707A      0.539638   708A      0.540718  
     709A      0.542458   710A      0.543542   711A      0.544578  
     712A      0.545123   713A      0.545718   714A      0.546305  
     715A      0.546678   716A      0.547450   717A      0.549544  
     718A      0.549758   719A      0.551432   720A      0.553171  
     721A      0.553341   722A      0.557394   723A      0.557730  
     724A      0.558453   725A      0.560494   726A      0.560720  
     727A      0.562319   728A      0.563748   729A      0.564216  
     730A      0.566662   731A      0.567113   732A      0.567821  
     733A      0.569131   734A      0.569245   735A      0.570240  
     736A      0.572215   737A      0.576096   738A      0.576138  
     739A      0.577991   740A      0.578204   741A      0.578891  
     742A      0.581052   743A      0.584895   744A      0.585991  
     745A      0.587959   746A      0.588062   747A      0.588275  
     748A      0.588579   749A      0.596160   750A      0.596929  
     751A      0.600930   752A      0.601239   753A      0.604035  
     754A      0.610044   755A      0.610188   756A      0.611482  
     757A      0.613194   758A      0.614507   759A      0.615518  
     760A      0.615995   761A      0.618395   762A      0.618555  
     763A      0.623333   764A      0.625389   765A      0.626084  
     766A      0.628532   767A      0.629303   768A      0.631231  
     769A      0.633536   770A      0.634514   771A      0.636405  
     772A      0.637233   773A      0.637583   774A      0.637813  
     775A      0.638707   776A      0.639164   777A      0.639896  
     778A      0.642700   779A      0.643253   780A      0.648198  
     781A      0.649737   782A      0.650691   783A      0.653849  
     784A      0.655725   785A      0.656603   786A      0.656707  
     787A      0.657908   788A      0.658529   789A      0.658995  
     790A      0.667700   791A      0.669425   792A      0.671240  
     793A      0.671800   794A      0.672184   795A      0.672607  
     796A      0.677526   797A      0.678713   798A      0.681232  
     799A      0.684234   800A      0.686742   801A      0.687144  
     802A      0.689875   803A      0.693796   804A      0.694886  
     805A      0.698415   806A      0.699858   807A      0.700471  
     808A      0.705602   809A      0.709747   810A      0.709881  
     811A      0.712041   812A      0.712441   813A      0.712466  
     814A      0.715411   815A      0.716111   816A      0.717739  
     817A      0.724165   818A      0.724724   819A      0.728206  
     820A      0.730662   821A      0.736844   822A      0.737977  
     823A      0.739895   824A      0.741710   825A      0.741757  
     826A      0.742780   827A      0.743844   828A      0.744612  
     829A      0.745314   830A      0.745478   831A      0.745586  
     832A      0.747292   833A      0.754069   834A      0.756447  
     835A      0.756639   836A      0.762783   837A      0.763599  
     838A      0.764065   839A      0.765659   840A      0.773666  
     841A      0.775356   842A      0.781051   843A      0.783634  
     844A      0.784779   845A      0.790774   846A      0.793134  
     847A      0.793739   848A      0.795846   849A      0.799532  
     850A      0.799777   851A      0.803360   852A      0.803827  
     853A      0.806281   854A      0.824012   855A      0.827391  
     856A      0.834418   857A      0.834773   858A      0.839664  
     859A      0.839810   860A      0.843785   861A      0.845382  
     862A      0.847368   863A      0.850492   864A      0.852332  
     865A      0.853583   866A      0.855737   867A      0.856803  
     868A      0.858199   869A      0.859222   870A      0.864647  
     871A      0.865069   872A      0.865869   873A      0.867076  
     874A      0.867865   875A      0.868671   876A      0.877295  
     877A      0.878372   878A      0.878761   879A      0.883382  
     880A      0.886422   881A      0.887092   882A      0.887723  
     883A      0.888256   884A      0.889428   885A      0.890007  
     886A      0.894109   887A      0.895049   888A      0.895652  
     889A      0.898325   890A      0.900687   891A      0.903292  
     892A      0.905245   893A      0.908360   894A      0.910449  
     895A      0.911619   896A      0.912049   897A      0.913789  
     898A      0.916584   899A      0.918451   900A      0.918493  
     901A      0.919083   902A      0.920254   903A      0.921239  
     904A      0.922370   905A      0.923086   906A      0.925513  
     907A      0.925701   908A      0.927717   909A      0.928161  
     910A      0.929312   911A      0.929655   912A      0.931096  
     913A      0.934481   914A      0.935524   915A      0.938474  
     916A      0.940489   917A      0.941638   918A      0.943501  
     919A      0.944022   920A      0.946239   921A      0.946897  
     922A      0.948268   923A      0.948706   924A      0.950884  
     925A      0.952286   926A      0.955500   927A      0.956210  
     928A      0.957600   929A      0.962808   930A      0.964479  
     931A      0.969528   932A      0.970029   933A      0.970408  
     934A      0.971120   935A      0.971636   936A      0.971766  
     937A      0.972157   938A      0.972315   939A      0.977920  
     940A      0.978667   941A      0.981992   942A      0.983534  
     943A      0.983626   944A      0.983970   945A      0.985451  
     946A      0.988480   947A      0.989971   948A      0.990471  
     949A      0.995328   950A      0.999043   951A      0.999421  
     952A      1.000247   953A      1.000617   954A      1.001408  
     955A      1.001892   956A      1.002019   957A      1.004142  
     958A      1.006625   959A      1.006750   960A      1.006945  
     961A      1.007123   962A      1.009286   963A      1.015054  
     964A      1.015990   965A      1.018226   966A      1.018657  
     967A      1.022911   968A      1.026188   969A      1.032679  
     970A      1.033297   971A      1.034359   972A      1.035105  
     973A      1.042511   974A      1.043094   975A      1.044436  
     976A      1.044552   977A      1.050430   978A      1.053437  
     979A      1.053520   980A      1.055404   981A      1.055591  
     982A      1.056273   983A      1.056907   984A      1.057031  
     985A      1.064937   986A      1.065094   987A      1.066812  
     988A      1.069471   989A      1.069567   990A      1.072049  
     991A      1.072243   992A      1.072353   993A      1.080314  
     994A      1.081941   995A      1.082217   996A      1.082441  
     997A      1.087214   998A      1.087465   999A      1.094244  
    1000A      1.096122  1001A      1.096277  1002A      1.097778  
    1003A      1.098373  1004A      1.098753  1005A      1.099959  
    1006A      1.100646  1007A      1.100895  1008A      1.101866  
    1009A      1.104225  1010A      1.104586  1011A      1.108518  
    1012A      1.108546  1013A      1.111798  1014A      1.112372  
    1015A      1.112433  1016A      1.114463  1017A      1.116278  
    1018A      1.119415  1019A      1.120131  1020A      1.120216  
    1021A      1.120478  1022A      1.121450  1023A      1.122215  
    1024A      1.122310  1025A      1.123628  1026A      1.124795  
    1027A      1.125034  1028A      1.125333  1029A      1.125521  
    1030A      1.125835  1031A      1.126685  1032A      1.127374  
    1033A      1.128745  1034A      1.129060  1035A      1.129833  
    1036A      1.130650  1037A      1.131541  1038A      1.132327  
    1039A      1.133277  1040A      1.133432  1041A      1.133818  
    1042A      1.134084  1043A      1.135026  1044A      1.136116  
    1045A      1.136575  1046A      1.136588  1047A      1.137829  
    1048A      1.138105  1049A      1.138252  1050A      1.140056  
    1051A      1.140120  1052A      1.142590  1053A      1.143044  
    1054A      1.147438  1055A      1.148880  1056A      1.149173  
    1057A      1.150048  1058A      1.152544  1059A      1.152918  
    1060A      1.153698  1061A      1.153999  1062A      1.154353  
    1063A      1.155651  1064A      1.162284  1065A      1.163230  
    1066A      1.166723  1067A      1.173537  1068A      1.174385  
    1069A      1.175081  1070A      1.175907  1071A      1.181443  
    1072A      1.182234  1073A      1.182598  1074A      1.184147  
    1075A      1.184757  1076A      1.185396  1077A      1.188081  
    1078A      1.190267  1079A      1.190767  1080A      1.193530  
    1081A      1.194009  1082A      1.195088  1083A      1.197504  
    1084A      1.200669  1085A      1.201737  1086A      1.203175  
    1087A      1.203303  1088A      1.204703  1089A      1.206461  
    1090A      1.208932  1091A      1.209034  1092A      1.213914  
    1093A      1.217060  1094A      1.218128  1095A      1.220843  
    1096A      1.222705  1097A      1.223456  1098A      1.228561  
    1099A      1.228803  1100A      1.232925  1101A      1.236821  
    1102A      1.238855  1103A      1.239808  1104A      1.240623  
    1105A      1.240855  1106A      1.245168  1107A      1.246235  
    1108A      1.254637  1109A      1.255140  1110A      1.255326  
    1111A      1.255873  1112A      1.255950  1113A      1.262299  
    1114A      1.263111  1115A      1.264136  1116A      1.264643  
    1117A      1.265575  1118A      1.267505  1119A      1.269669  
    1120A      1.270153  1121A      1.270283  1122A      1.274204  
    1123A      1.276737  1124A      1.284993  1125A      1.285701  
    1126A      1.297791  1127A      1.302064  1128A      1.302487  
    1129A      1.302890  1130A      1.303869  1131A      1.304017  
    1132A      1.310358  1133A      1.312764  1134A      1.313003  
    1135A      1.316038  1136A      1.318333  1137A      1.319474  
    1138A      1.320843  1139A      1.320912  1140A      1.329807  
    1141A      1.333461  1142A      1.333565  1143A      1.339338  
    1144A      1.341425  1145A      1.342215  1146A      1.344870  
    1147A      1.344939  1148A      1.346033  1149A      1.346212  
    1150A      1.347456  1151A      1.348406  1152A      1.352020  
    1153A      1.354404  1154A      1.354838  1155A      1.355428  
    1156A      1.359274  1157A      1.361863  1158A      1.363041  
    1159A      1.365252  1160A      1.366514  1161A      1.367287  
    1162A      1.368778  1163A      1.368957  1164A      1.370343  
    1165A      1.371634  1166A      1.373050  1167A      1.377224  
    1168A      1.377291  1169A      1.380821  1170A      1.380841  
    1171A      1.383643  1172A      1.385558  1173A      1.385666  
    1174A      1.389296  1175A      1.392042  1176A      1.392228  
    1177A      1.400765  1178A      1.401024  1179A      1.403095  
    1180A      1.407763  1181A      1.408133  1182A      1.409998  
    1183A      1.410253  1184A      1.411996  1185A      1.414093  
    1186A      1.414273  1187A      1.419509  1188A      1.420531  
    1189A      1.421832  1190A      1.425560  1191A      1.426289  
    1192A      1.428351  1193A      1.438557  1194A      1.438781  
    1195A      1.439930  1196A      1.443615  1197A      1.443907  
    1198A      1.445433  1199A      1.445704  1200A      1.454289  
    1201A      1.458073  1202A      1.458945  1203A      1.459067  
    1204A      1.460183  1205A      1.460381  1206A      1.461282  
    1207A      1.462538  1208A      1.465458  1209A      1.465895  
    1210A      1.472090  1211A      1.472795  1212A      1.474725  
    1213A      1.475223  1214A      1.477315  1215A      1.479361  
    1216A      1.479506  1217A      1.479756  1218A      1.482731  
    1219A      1.484138  1220A      1.484966  1221A      1.485587  
    1222A      1.486384  1223A      1.491399  1224A      1.491540  
    1225A      1.494968  1226A      1.501644  1227A      1.502303  
    1228A      1.503318  1229A      1.503529  1230A      1.503948  
    1231A      1.504235  1232A      1.504846  1233A      1.516346  
    1234A      1.518512  1235A      1.520418  1236A      1.521500  
    1237A      1.521839  1238A      1.523217  1239A      1.524134  
    1240A      1.531161  1241A      1.535397  1242A      1.535609  
    1243A      1.536343  1244A      1.543698  1245A      1.549673  
    1246A      1.550052  1247A      1.554268  1248A      1.554611  
    1249A      1.557204  1250A      1.557729  1251A      1.568540  
    1252A      1.569216  1253A      1.589395  1254A      1.589816  
    1255A      1.591925  1256A      1.595502  1257A      1.606011  
    1258A      1.606059  1259A      1.636503  1260A      1.636627  
    1261A      1.636943  1262A      1.636956  1263A      1.646318  
    1264A      1.648906  1265A      1.653956  1266A      1.656233  
    1267A      1.658787  1268A      1.659489  1269A      1.659847  
    1270A      1.660310  1271A      1.660704  1272A      1.662898  
    1273A      1.663813  1274A      1.666353  1275A      1.668089  
    1276A      1.668744  1277A      1.668775  1278A      1.671101  
    1279A      1.671537  1280A      1.672750  1281A      1.674073  
    1282A      1.674601  1283A      1.675727  1284A      1.678549  
    1285A      1.678821  1286A      1.679119  1287A      1.683819  
    1288A      1.684657  1289A      1.687301  1290A      1.687623  
    1291A      1.687802  1292A      1.689191  1293A      1.689885  
    1294A      1.690907  1295A      1.691515  1296A      1.692755  
    1297A      1.692915  1298A      1.693281  1299A      1.695514  
    1300A      1.698525  1301A      1.702468  1302A      1.702736  
    1303A      1.706864  1304A      1.707154  1305A      1.707380  
    1306A      1.707471  1307A      1.716659  1308A      1.717382  
    1309A      1.721156  1310A      1.721273  1311A      1.721375  
    1312A      1.721403  1313A      1.721863  1314A      1.724580  
    1315A      1.727070  1316A      1.727987  1317A      1.730485  
    1318A      1.731016  1319A      1.738888  1320A      1.740378  
    1321A      1.744781  1322A      1.746331  1323A      1.748351  
    1324A      1.748592  1325A      1.749451  1326A      1.751220  
    1327A      1.759660  1328A      1.759747  1329A      1.761879  
    1330A      1.766425  1331A      1.766476  1332A      1.766924  
    1333A      1.770162  1334A      1.771987  1335A      1.775280  
    1336A      1.775918  1337A      1.776122  1338A      1.776187  
    1339A      1.783486  1340A      1.788933  1341A      1.798452  
    1342A      1.799476  1343A      1.799831  1344A      1.800056  
    1345A      1.800794  1346A      1.815585  1347A      1.817234  
    1348A      1.819036  1349A      1.831571  1350A      1.834372  
    1351A      1.836146  1352A      1.836845  1353A      1.856261  
    1354A      1.856470  1355A      1.860837  1356A      1.867934  
    1357A      1.874310  1358A      1.875693  1359A      1.877552  
    1360A      1.877677  1361A      1.877978  1362A      1.879528  
    1363A      1.883484  1364A      1.883820  1365A      1.884345  
    1366A      1.888649  1367A      1.889016  1368A      1.889606  
    1369A      1.890455  1370A      1.897954  1371A      1.899173  
    1372A      1.905551  1373A      1.905649  1374A      1.911573  
    1375A      1.912058  1376A      1.915383  1377A      1.915461  
    1378A      1.917000  1379A      1.917115  1380A      1.921144  
    1381A      1.921892  1382A      1.922612  1383A      1.922690  
    1384A      1.924562  1385A      1.930829  1386A      1.931268  
    1387A      1.932194  1388A      1.934265  1389A      1.935146  
    1390A      1.935671  1391A      1.936605  1392A      1.938048  
    1393A      1.941550  1394A      1.942010  1395A      1.942518  
    1396A      1.943272  1397A      1.954220  1398A      1.954442  
    1399A      1.955287  1400A      1.955724  1401A      1.961435  
    1402A      1.962979  1403A      1.968026  1404A      1.969044  
    1405A      1.973141  1406A      1.974948  1407A      1.975158  
    1408A      1.977428  1409A      1.978196  1410A      1.978384  
    1411A      1.985236  1412A      1.986702  1413A      1.986914  
    1414A      1.987457  1415A      1.989424  1416A      1.990140  
    1417A      1.992530  1418A      1.994636  1419A      1.994765  
    1420A      1.996257  1421A      1.997158  1422A      2.001680  
    1423A      2.002148  1424A      2.002427  1425A      2.005545  
    1426A      2.005799  1427A      2.010450  1428A      2.010791  
    1429A      2.011287  1430A      2.011739  1431A      2.012488  
    1432A      2.017543  1433A      2.017586  1434A      2.020439  
    1435A      2.021196  1436A      2.022079  1437A      2.022918  
    1438A      2.025979  1439A      2.030123  1440A      2.033981  
    1441A      2.034277  1442A      2.037185  1443A      2.038134  
    1444A      2.039173  1445A      2.040731  1446A      2.041295  
    1447A      2.041522  1448A      2.046289  1449A      2.047127  
    1450A      2.047226  1451A      2.055594  1452A      2.058209  
    1453A      2.062534  1454A      2.063578  1455A      2.064361  
    1456A      2.067234  1457A      2.067416  1458A      2.068310  
    1459A      2.069439  1460A      2.071297  1461A      2.071904  
    1462A      2.073389  1463A      2.074049  1464A      2.074384  
    1465A      2.080186  1466A      2.082343  1467A      2.084293  
    1468A      2.084800  1469A      2.086669  1470A      2.088666  
    1471A      2.090158  1472A      2.091196  1473A      2.099448  
    1474A      2.100819  1475A      2.103594  1476A      2.105389  
    1477A      2.108043  1478A      2.108691  1479A      2.110473  
    1480A      2.111094  1481A      2.111926  1482A      2.112572  
    1483A      2.118643  1484A      2.119677  1485A      2.121063  
    1486A      2.121479  1487A      2.124417  1488A      2.127729  
    1489A      2.128776  1490A      2.130277  1491A      2.130884  
    1492A      2.132441  1493A      2.133477  1494A      2.134010  
    1495A      2.134568  1496A      2.134923  1497A      2.137086  
    1498A      2.138481  1499A      2.138873  1500A      2.139776  
    1501A      2.140176  1502A      2.140291  1503A      2.141047  
    1504A      2.141804  1505A      2.143735  1506A      2.144173  
    1507A      2.145106  1508A      2.148794  1509A      2.148907  
    1510A      2.151211  1511A      2.152283  1512A      2.152803  
    1513A      2.153861  1514A      2.154923  1515A      2.158126  
    1516A      2.161511  1517A      2.163066  1518A      2.164237  
    1519A      2.164549  1520A      2.165343  1521A      2.165642  
    1522A      2.166829  1523A      2.168391  1524A      2.169529  
    1525A      2.172234  1526A      2.177403  1527A      2.177731  
    1528A      2.178280  1529A      2.178713  1530A      2.179146  
    1531A      2.179445  1532A      2.182051  1533A      2.182832  
    1534A      2.186770  1535A      2.187220  1536A      2.189990  
    1537A      2.192533  1538A      2.193798  1539A      2.194194  
    1540A      2.194639  1541A      2.195471  1542A      2.196261  
    1543A      2.205753  1544A      2.206946  1545A      2.209530  
    1546A      2.209997  1547A      2.210737  1548A      2.211329  
    1549A      2.211593  1550A      2.211673  1551A      2.212619  
    1552A      2.213174  1553A      2.222392  1554A      2.222713  
    1555A      2.230941  1556A      2.231654  1557A      2.232256  
    1558A      2.233281  1559A      2.239574  1560A      2.240498  
    1561A      2.242821  1562A      2.244588  1563A      2.245371  
    1564A      2.247731  1565A      2.248786  1566A      2.250316  
    1567A      2.251635  1568A      2.252451  1569A      2.253430  
    1570A      2.253941  1571A      2.254855  1572A      2.255569  
    1573A      2.256396  1574A      2.260526  1575A      2.265001  
    1576A      2.265413  1577A      2.272061  1578A      2.272264  
    1579A      2.273106  1580A      2.274262  1581A      2.277145  
    1582A      2.277317  1583A      2.280081  1584A      2.281136  
    1585A      2.282664  1586A      2.283363  1587A      2.291056  
    1588A      2.291560  1589A      2.292169  1590A      2.293719  
    1591A      2.297530  1592A      2.298065  1593A      2.301010  
    1594A      2.301732  1595A      2.309595  1596A      2.310897  
    1597A      2.313546  1598A      2.314928  1599A      2.316916  
    1600A      2.318716  1601A      2.327508  1602A      2.333698  
    1603A      2.335360  1604A      2.340549  1605A      2.341194  
    1606A      2.346477  1607A      2.349114  1608A      2.354489  
    1609A      2.354884  1610A      2.360116  1611A      2.367769  
    1612A      2.375950  1613A      2.376370  1614A      2.376817  
    1615A      2.378512  1616A      2.380713  1617A      2.381351  
    1618A      2.382789  1619A      2.385188  1620A      2.386345  
    1621A      2.387069  1622A      2.391687  1623A      2.393115  
    1624A      2.393767  1625A      2.393813  1626A      2.396374  
    1627A      2.397107  1628A      2.397381  1629A      2.402329  
    1630A      2.402559  1631A      2.421593  1632A      2.425751  
    1633A      2.426334  1634A      2.434325  1635A      2.439348  
    1636A      2.442663  1637A      2.443874  1638A      2.445069  
    1639A      2.449433  1640A      2.469442  1641A      2.470810  
    1642A      2.475228  1643A      2.478598  1644A      2.484217  
    1645A      2.492886  1646A      2.494504  1647A      2.504037  
    1648A      2.504946  1649A      2.515330  1650A      2.515384  
    1651A      2.518757  1652A      2.519065  1653A      2.522765  
    1654A      2.523037  1655A      2.541229  1656A      2.541589  
    1657A      2.546529  1658A      2.552129  1659A      2.556240  
    1660A      2.557086  1661A      2.561501  1662A      2.566885  
    1663A      2.590567  1664A      2.590715  1665A      2.590955  
    1666A      2.592790  1667A      2.593588  1668A      2.596748  
    1669A      2.597545  1670A      2.599141  1671A      2.600415  
    1672A      2.602099  1673A      2.609160  1674A      2.609335  
    1675A      2.615730  1676A      2.621288  1677A      2.622175  
    1678A      2.629486  1679A      2.632940  1680A      2.633394  
    1681A      2.635946  1682A      2.637045  1683A      2.637808  
    1684A      2.637940  1685A      2.642518  1686A      2.644265  
    1687A      2.651996  1688A      2.652184  1689A      2.663587  
    1690A      2.663721  1691A      2.663991  1692A      2.664632  
    1693A      2.667169  1694A      2.668280  1695A      2.683988  
    1696A      2.691825  1697A      2.692597  1698A      2.694753  
    1699A      2.696905  1700A      2.697881  1701A      2.700085  
    1702A      2.700958  1703A      2.702761  1704A      2.706103  
    1705A      2.706516  1706A      2.717530  1707A      2.717919  
    1708A      2.718723  1709A      2.720309  1710A      2.720488  
    1711A      2.726023  1712A      2.727297  1713A      2.727467  
    1714A      2.735472  1715A      2.737206  1716A      2.738602  
    1717A      2.742169  1718A      2.742764  1719A      2.743140  
    1720A      2.743683  1721A      2.747563  1722A      2.748709  
    1723A      2.756014  1724A      2.771093  1725A      2.780866  
    1726A      2.781155  1727A      2.781871  1728A      2.782002  
    1729A      2.782151  1730A      2.803560  1731A      2.813040  
    1732A      2.813761  1733A      2.825845  1734A      2.828779  
    1735A      2.831791  1736A      2.832024  1737A      2.851667  
    1738A      2.852219  1739A      2.854269  1740A      2.854478  
    1741A      2.854648  1742A      2.861758  1743A      2.864408  
    1744A      2.866612  1745A      2.867100  1746A      2.867599  
    1747A      2.869535  1748A      2.880803  1749A      2.881111  
    1750A      2.891944  1751A      2.892317  1752A      2.892910  
    1753A      2.893295  1754A      2.896841  1755A      2.912523  
    1756A      2.916888  1757A      2.917483  1758A      2.920944  
    1759A      2.922246  1760A      2.925835  1761A      2.949487  
    1762A      2.949660  1763A      2.950290  1764A      2.950348  
    1765A      2.950412  1766A      2.966301  1767A      2.967509  
    1768A      2.967672  1769A      2.977214  1770A      2.979492  
    1771A      2.985309  1772A      2.985338  1773A      3.013924  
    1774A      3.014989  1775A      3.015565  1776A      3.026663  
    1777A      3.042519  1778A      3.043293  1779A      3.080426  
    1780A      3.081297  1781A      3.085572  1782A      3.088823  
    1783A      3.097979  1784A      3.098456  1785A      3.099047  
    1786A      3.109309  1787A      3.109388  1788A      3.111926  
    1789A      3.124222  1790A      3.158289  1791A      3.162806  
    1792A      3.163139  1793A      3.173366  1794A      3.178706  
    1795A      3.178940  1796A      3.183643  1797A      3.185344  
    1798A      3.192307  1799A      3.193142  1800A      3.199357  
    1801A      3.199778  1802A      3.200175  1803A      3.200721  
    1804A      3.203462  1805A      3.211815  1806A      3.220358  
    1807A      3.223115  1808A      3.224785  1809A      3.225229  
    1810A      3.243169  1811A      3.243758  1812A      3.269302  
    1813A      3.270587  1814A      3.303704  1815A      3.309129  
    1816A      3.312301  1817A      3.312692  1818A      3.313525  
    1819A      3.315406  1820A      3.319027  1821A      3.321955  
    1822A      3.325464  1823A      3.326253  1824A      3.343717  
    1825A      3.345282  1826A      3.346576  1827A      3.353395  
    1828A      3.413353  1829A      3.414365  1830A      3.422435  
    1831A      3.468049  1832A      3.482019  1833A      3.485179  
    1834A      3.492381  1835A      3.498937  1836A      3.502011  
    1837A      3.514327  1838A      3.516937  1839A      3.518414  
    1840A      3.523521  1841A      3.526518  1842A      3.533628  
    1843A      3.537740  1844A      3.546488  1845A      3.561683  
    1846A      3.592007  1847A      3.626628  1848A      3.628365  
    1849A      3.634733  1850A      3.641277  1851A      3.687532  
    1852A      3.690950  1853A      3.716545  1854A      3.718618  
    1855A      3.757290  1856A      3.800060  1857A      3.800449  
    1858A      3.802455  1859A      3.816289  1860A      3.829598  
    1861A      3.832287  1862A      3.892976  1863A      3.894704  
    1864A      3.922818  1865A      3.926008  1866A      3.956250  
    1867A      3.964897  1868A      3.991043  1869A      3.993114  
    1870A      3.999806  1871A      4.000746  1872A      4.010809  
    1873A      4.018185  1874A      4.023980  1875A      4.077448  
    1876A      4.080452  1877A      4.124613  1878A      4.174734  
    1879A      4.174899  1880A      4.174960  1881A      4.202544  
    1882A      4.202576  1883A      4.203084  1884A      4.203142  
    1885A      4.203220  1886A      4.235579  1887A      4.235593  
    1888A      4.235734  1889A      4.283630  1890A      4.356536  
    1891A      4.448051  1892A      4.449812  1893A      4.450153  
    1894A      4.450377  1895A      4.650221  1896A      4.650308  
    1897A      4.650837  1898A      4.751447  1899A      4.786927  
    1900A      4.787227  

    Final Occupation by Irrep:
              A 
    DOCC [   321 ]
    NA   [   321 ]
    NB   [   321 ]

  @DF-RHF Final Energy: -4073.10378965385462

   => Energetics <=

    Nuclear Repulsion Energy =          17173.5123312764626462
    One-Electron Energy =              -39827.4163846289229696
    Two-Electron Energy =               18580.8002636986057041
    Total Energy =                      -4073.1037896538546192

Computation Completed


Properties will be evaluated at   0.000000,   0.000000,   0.000000 [a0]

Properties computed using the SCF density matrix


 Multipole Moments:

 ------------------------------------------------------------------------------------
     Multipole            Electronic (a.u.)      Nuclear  (a.u.)        Total (a.u.)
 ------------------------------------------------------------------------------------

 L = 1.  Multiply by 2.5417464519 to convert [e a0] to [Debye]
 Dipole X            :         -0.0007255           -0.0000548           -0.0007802
 Dipole Y            :          0.0010273           -0.0002464            0.0007809
 Dipole Z            :         31.1181535          -42.8486264          -11.7304729
 Magnitude           :                                                   11.7304729

 ------------------------------------------------------------------------------------

*** tstop() called on n2cn0795 at Thu Jan 25 03:19:02 2024
Module time:
	user time   =   23803.59 seconds =     396.73 minutes
	system time =    1362.11 seconds =      22.70 minutes
	total time  =      16940 seconds =     282.33 minutes
Total time:
	user time   =   23803.59 seconds =     396.73 minutes
	system time =    1362.11 seconds =      22.70 minutes
	total time  =      16940 seconds =     282.33 minutes

  //>>>>>>>>>>>>>>>>>>>>>>>>>>>>>>>>>>>//
  //            Monomer A HF           //
  //<<<<<<<<<<<<<<<<<<<<<<<<<<<<<<<<<<<//

   => Libint2 <=

    Primary   basis highest AM E, G, H:  5, 4, 3
    Auxiliary basis highest AM E, G, H:  6, 5, 4
    Onebody   basis highest AM E, G, H:  6, 5, 4
    Solid Harmonics ordering:            gaussian

*** tstart() called on n2cn0795
*** at Thu Jan 25 03:19:03 2024

   => Loading Basis Set <=

    Name: JUN-CC-PVDZ
    Role: ORBITAL
    Keyword: BASIS
    atoms 1                                                   entry B          line   130 file /opt/software/pc2/EB-SW/software/PSI4/1.9-foss-2022a/share/psi4/basis/jun-cc-pvdz.gbs 
    atoms 2-5                                                 entry F          line   266 file /opt/software/pc2/EB-SW/software/PSI4/1.9-foss-2022a/share/psi4/basis/jun-cc-pvdz.gbs 
    atoms 6-23, 30-42, 45-59, 62-78, 81-93, 98-108, 111-119   entry C          line   164 file /opt/software/pc2/EB-SW/software/PSI4/1.9-foss-2022a/share/psi4/basis/jun-cc-pvdz.gbs 
    atoms 24-29, 43-44, 60-61, 79-80, 94-97, 109-110, 120-125 entry H          line    36 file /opt/software/pc2/EB-SW/software/PSI4/1.9-foss-2022a/share/psi4/basis/jun-cc-pvdz.gbs 


         ---------------------------------------------------------
                                   SCF
               by Justin Turney, Rob Parrish, Andy Simmonett
                          and Daniel G. A. Smith
                              RHF Reference
                       16 Threads,  44822 MiB Core
         ---------------------------------------------------------

  ==> Geometry <==

    Molecular point group: c1
    Full point group: C1

    Geometry (in Angstrom), charge = -1, multiplicity = 1:

       Center              X                  Y                   Z               Mass       
    ------------   -----------------  -----------------  -----------------  -----------------
         B           -0.000201921932     0.000288800891     6.704127119334    11.009305360000
         F           -0.000004162732     0.000014527991     8.116912119334    18.998403162730
         F            1.147855837268     0.675795727991     6.232986119334    18.998403162730
         F            0.011913897268    -1.331996472009     6.233188119334    18.998403162730
         F           -1.159670162732     0.656088027991     6.233267119334    18.998403162730
      Gh(C)          -3.668445426752     7.803766698073    -0.494006839331    12.000000000000
      Gh(C)          -4.847602882078     7.131256359331    -0.496373414263    12.000000000000
      Gh(C)          -4.894963461907     5.696344931522    -0.496946325362    12.000000000000
      Gh(C)          -3.653744841505     4.980744868950    -0.489285883632    12.000000000000
      Gh(C)          -2.409429284226     7.113995564665    -0.493812497071    12.000000000000
      Gh(C)          -2.425481506836     5.681136478894    -0.500817385941    12.000000000000
      Gh(C)          -1.194748179167     7.786158722300    -0.492340316529    12.000000000000
      Gh(C)           0.037954866205     7.099436173748    -0.494511020834    12.000000000000
      Gh(C)           0.030328424687     5.669504087695    -0.499994405750    12.000000000000
      Gh(C)          -1.200988670637     4.969284875906    -0.491024671816    12.000000000000
      Gh(C)           1.277953663083     7.772873971185    -0.493135172273    12.000000000000
      Gh(C)           2.485353921992     7.087711413228    -0.495409660178    12.000000000000
      Gh(C)           2.486124522185     5.654785338231    -0.502347409166    12.000000000000
      Gh(C)           1.254078756912     4.956092641655    -0.490719467578    12.000000000000
      Gh(C)           3.751710428674     7.763926678971    -0.495282808798    12.000000000000
      Gh(C)           4.923561893453     7.078795304981    -0.497339289505    12.000000000000
      Gh(C)           4.955603108594     5.643461991360    -0.497499702313    12.000000000000
      Gh(C)           3.706797371473     4.941224736324    -0.492408142143    12.000000000000
      Gh(H)          -3.658525300490     8.890841947126    -0.492321851081     1.007825032230
      Gh(H)          -1.189217492488     8.874135615351    -0.488368440088     1.007825032230
      Gh(H)           1.284290076155     8.860847963479    -0.488976348132     1.007825032230
      Gh(H)           3.753537924068     8.851049806963    -0.493760284482     1.007825032230
      Gh(H)           5.869954540475     7.613809362646    -0.498264656548     1.007825032230
      Gh(H)          -5.788235870234     7.676316740925    -0.497933261619     1.007825032230
[...]
    1495A      2.102952  1496A      2.106558  1497A      2.110081  
    1498A      2.111627  1499A      2.111985  1500A      2.112319  
    1501A      2.112851  1502A      2.114358  1503A      2.116525  
    1504A      2.117849  1505A      2.119807  1506A      2.126065  
    1507A      2.126292  1508A      2.126694  1509A      2.126806  
    1510A      2.127015  1511A      2.127581  1512A      2.129061  
    1513A      2.130724  1514A      2.134683  1515A      2.135187  
    1516A      2.136980  1517A      2.138092  1518A      2.142942  
    1519A      2.143141  1520A      2.143201  1521A      2.143899  
    1522A      2.144141  1523A      2.154163  1524A      2.154919  
    1525A      2.157287  1526A      2.157363  1527A      2.158533  
    1528A      2.159202  1529A      2.159759  1530A      2.159969  
    1531A      2.162414  1532A      2.162717  1533A      2.171094  
    1534A      2.171401  1535A      2.179592  1536A      2.180743  
    1537A      2.181026  1538A      2.182226  1539A      2.187910  
    1540A      2.188653  1541A      2.190597  1542A      2.191486  
    1543A      2.192565  1544A      2.194952  1545A      2.196492  
    1546A      2.197954  1547A      2.200021  1548A      2.200376  
    1549A      2.200715  1550A      2.201209  1551A      2.203076  
    1552A      2.204164  1553A      2.205475  1554A      2.209034  
    1555A      2.213603  1556A      2.213895  1557A      2.220127  
    1558A      2.222085  1559A      2.222677  1560A      2.224130  
    1561A      2.224708  1562A      2.224750  1563A      2.228762  
    1564A      2.231987  1565A      2.232276  1566A      2.233014  
    1567A      2.238643  1568A      2.238835  1569A      2.239381  
    1570A      2.241253  1571A      2.247433  1572A      2.247737  
    1573A      2.248198  1574A      2.248653  1575A      2.260274  
    1576A      2.261481  1577A      2.263306  1578A      2.264839  
    1579A      2.266473  1580A      2.269490  1581A      2.275220  
    1582A      2.282775  1583A      2.284226  1584A      2.290138  
    1585A      2.290967  1586A      2.296265  1587A      2.296741  
    1588A      2.303693  1589A      2.304104  1590A      2.309032  
    1591A      2.314139  1592A      2.324409  1593A      2.324847  
    1594A      2.325159  1595A      2.327045  1596A      2.329348  
    1597A      2.330530  1598A      2.331052  1599A      2.332910  
    1600A      2.334228  1601A      2.334996  1602A      2.339603  
    1603A      2.341344  1604A      2.342129  1605A      2.342307  
    1606A      2.344765  1607A      2.345764  1608A      2.346268  
    1609A      2.349034  1610A      2.349380  1611A      2.367914  
    1612A      2.372172  1613A      2.372782  1614A      2.383573  
    1615A      2.387909  1616A      2.390149  1617A      2.391607  
    1618A      2.392542  1619A      2.396888  1620A      2.418276  
    1621A      2.419457  1622A      2.423445  1623A      2.427487  
    1624A      2.431818  1625A      2.441473  1626A      2.443122  
    1627A      2.451932  1628A      2.453042  1629A      2.464254  
    1630A      2.464290  1631A      2.467677  1632A      2.467939  
    1633A      2.471885  1634A      2.472146  1635A      2.490933  
    1636A      2.491297  1637A      2.494390  1638A      2.501588  
    1639A      2.505899  1640A      2.506914  1641A      2.511427  
    1642A      2.516148  1643A      2.539037  1644A      2.539092  
    1645A      2.539974  1646A      2.541793  1647A      2.542619  
    1648A      2.544706  1649A      2.547452  1650A      2.548397  
    1651A      2.549102  1652A      2.551064  1653A      2.556493  
    1654A      2.556648  1655A      2.564175  1656A      2.571070  
    1657A      2.571457  1658A      2.579933  1659A      2.583625  
    1660A      2.584093  1661A      2.585025  1662A      2.586211  
    1663A      2.588440  1664A      2.588556  1665A      2.593182  
    1666A      2.593470  1667A      2.601256  1668A      2.601398  
    1669A      2.612680  1670A      2.612855  1671A      2.613195  
    1672A      2.613687  1673A      2.616165  1674A      2.617280  
    1675A      2.632509  1676A      2.640490  1677A      2.641418  
    1678A      2.643560  1679A      2.645368  1680A      2.647279  
    1681A      2.648552  1682A      2.649136  1683A      2.652732  
    1684A      2.655683  1685A      2.656065  1686A      2.665944  
    1687A      2.666027  1688A      2.667530  1689A      2.670326  
    1690A      2.670497  1691A      2.673534  1692A      2.677083  
    1693A      2.677502  1694A      2.684203  1695A      2.685494  
    1696A      2.687007  1697A      2.691014  1698A      2.691197  
    1699A      2.691521  1700A      2.692314  1701A      2.696007  
    1702A      2.697248  1703A      2.703965  1704A      2.720608  
    1705A      2.730634  1706A      2.730691  1707A      2.730839  
    1708A      2.731083  1709A      2.731827  1710A      2.752479  
    1711A      2.759975  1712A      2.760661  1713A      2.772227  
    1714A      2.775757  1715A      2.779459  1716A      2.779854  
    1717A      2.799009  1718A      2.799832  1719A      2.801357  
    1720A      2.802148  1721A      2.802184  1722A      2.808522  
    1723A      2.810598  1724A      2.811207  1725A      2.811977  
    1726A      2.814689  1727A      2.815041  1728A      2.815760  
    1729A      2.815961  1730A      2.816659  1731A      2.827914  
    1732A      2.828192  1733A      2.840086  1734A      2.840610  
    1735A      2.841227  1736A      2.841570  1737A      2.845241  
    1738A      2.860796  1739A      2.864781  1740A      2.865333  
    1741A      2.869696  1742A      2.870949  1743A      2.874140  
    1744A      2.895868  1745A      2.896755  1746A      2.912614  
    1747A      2.917588  1748A      2.917747  1749A      2.927389  
    1750A      2.929503  1751A      2.934819  1752A      2.934856  
    1753A      2.962999  1754A      2.964661  1755A      2.965248  
    1756A      2.976073  1757A      2.991624  1758A      2.992396  
    1759A      3.029120  1760A      3.029895  1761A      3.035290  
    1762A      3.038494  1763A      3.046748  1764A      3.047390  
    1765A      3.047945  1766A      3.057436  1767A      3.057491  
    1768A      3.063157  1769A      3.072806  1770A      3.108360  
    1771A      3.112667  1772A      3.112953  1773A      3.122241  
    1774A      3.127009  1775A      3.127414  1776A      3.132329  
    1777A      3.133962  1778A      3.141895  1779A      3.142878  
    1780A      3.147983  1781A      3.148552  1782A      3.149343  
    1783A      3.150042  1784A      3.153495  1785A      3.162059  
    1786A      3.167607  1787A      3.173105  1788A      3.174651  
    1789A      3.175101  1790A      3.192998  1791A      3.193630  
    1792A      3.220000  1793A      3.252796  1794A      3.259340  
    1795A      3.260489  1796A      3.261333  1797A      3.261964  
    1798A      3.264226  1799A      3.268076  1800A      3.271045  
    1801A      3.274436  1802A      3.275238  1803A      3.292211  
    1804A      3.293689  1805A      3.294754  1806A      3.302119  
    1807A      3.360949  1808A      3.361993  1809A      3.369763  
    1810A      3.415431  1811A      3.429571  1812A      3.431968  
    1813A      3.436888  1814A      3.445106  1815A      3.448139  
    1816A      3.460714  1817A      3.464404  1818A      3.465169  
    1819A      3.470822  1820A      3.473758  1821A      3.480850  
    1822A      3.484196  1823A      3.493344  1824A      3.509049  
    1825A      3.538743  1826A      3.574245  1827A      3.575931  
    1828A      3.582311  1829A      3.589863  1830A      3.634903  
    1831A      3.638253  1832A      3.664518  1833A      3.666687  
    1834A      3.704942  1835A      3.747243  1836A      3.749112  
    1837A      3.750354  1838A      3.762963  1839A      3.778555  
    1840A      3.778728  1841A      3.841840  1842A      3.843148  
    1843A      3.871417  1844A      3.874554  1845A      3.904510  
    1846A      3.912854  1847A      3.937597  1848A      3.939425  
    1849A      3.948172  1850A      3.949107  1851A      3.958341  
    1852A      3.964393  1853A      3.970725  1854A      4.024579  
    1855A      4.027393  1856A      4.070762  1857A      4.183475  
    1858A      4.185969  1859A      4.186287  1860A      4.228964  
    1861A      4.301223  1862A      4.324884  1863A      4.393134  
    1864A      5.747770  1865A      5.747771  1866A      5.748722  
    1867A      5.752052  1868A      5.752076  1869A      5.758252  
    1870A      5.758276  1871A      5.758707  1872A      5.777506  
    1873A      5.777538  1874A      5.778756  1875A      6.018853  
    1876A      6.019180  1877A      6.019828  1878A      6.191468  
    1879A      6.325786  1880A      6.326116  1881A      6.372458  
    1882A      6.372884  1883A      6.373221  1884A      7.148528  
    1885A      7.148979  1886A      7.222185  1887A      7.222277  
    1888A      7.235782  1889A      7.241848  1890A      7.249467  
    1891A      7.249723  1892A      7.453546  1893A      7.453698  
    1894A      7.462581  1895A      7.594544  1896A     12.590751  
    1897A     42.906520  1898A     42.908755  1899A     42.908798  
    1900A     42.937087  

    Final Occupation by Irrep:
              A 
    DOCC [   300 ]
    NA   [   300 ]
    NB   [   300 ]

  @DF-RHF Final Energy: -3650.33753089322545

   => Energetics <=

    Nuclear Repulsion Energy =          15611.4211649754324753
    One-Electron Energy =              -36072.0718188169557834
    Two-Electron Energy =               16810.3131229482969502
    Total Energy =                      -3650.3375308932263579

Computation Completed


Properties will be evaluated at   0.000000,   0.000000,   0.000000 [a0]

Properties computed using the SCF density matrix


 Multipole Moments:

 ------------------------------------------------------------------------------------
     Multipole            Electronic (a.u.)      Nuclear  (a.u.)        Total (a.u.)
 ------------------------------------------------------------------------------------

 L = 1.  Multiply by 2.5417464519 to convert [e a0] to [Debye]
 Dipole X            :         -0.0009540            0.0002304           -0.0007236
 Dipole Y            :          0.0010732           -0.0013052           -0.0002320
 Dipole Z            :        562.2721427         -562.2735210           -0.0013783
 Magnitude           :                                                    0.0015739

 ------------------------------------------------------------------------------------

*** tstop() called on n2cn0795 at Thu Jan 25 06:25:07 2024
Module time:
	user time   =   17288.54 seconds =     288.14 minutes
	system time =     941.77 seconds =      15.70 minutes
	total time  =       7882 seconds =     131.37 minutes
Total time:
	user time   =   45289.89 seconds =     754.83 minutes
	system time =    2528.60 seconds =      42.14 minutes
	total time  =      28105 seconds =     468.42 minutes
  Constructing Basis Sets for SAPT...

   => Loading Basis Set <=

    Name: (JUN-CC-PVDZ AUX)
    Role: RIFIT
    Keyword: DF_BASIS_SAPT
    atoms 1                                                   entry B          line    56 file /opt/software/pc2/EB-SW/software/PSI4/1.9-foss-2022a/share/psi4/basis/jun-cc-pvdz-ri.gbs 
    atoms 2-5                                                 entry F          line   232 file /opt/software/pc2/EB-SW/software/PSI4/1.9-foss-2022a/share/psi4/basis/jun-cc-pvdz-ri.gbs 
    atoms 6-23, 30-42, 45-59, 62-78, 81-93, 98-108, 111-119   entry C          line   100 file /opt/software/pc2/EB-SW/software/PSI4/1.9-foss-2022a/share/psi4/basis/jun-cc-pvdz-ri.gbs 
    atoms 24-29, 43-44, 60-61, 79-80, 94-97, 109-110, 120-125 entry H          line    30 file /opt/software/pc2/EB-SW/software/PSI4/1.9-foss-2022a/share/psi4/basis/jun-cc-pvdz-ri.gbs 

   => Loading Basis Set <=

    Name: (JUN-CC-PVDZ AUX)
    Role: JKFIT
    Keyword: DF_BASIS_ELST
    atoms 1                                                   entry B          line    90 file /opt/software/pc2/EB-SW/software/PSI4/1.9-foss-2022a/share/psi4/basis/jun-cc-pvdz-jkfit.gbs 
    atoms 2-5                                                 entry F          line   314 file /opt/software/pc2/EB-SW/software/PSI4/1.9-foss-2022a/share/psi4/basis/jun-cc-pvdz-jkfit.gbs 
    atoms 6-23, 30-42, 45-59, 62-78, 81-93, 98-108, 111-119   entry C          line   146 file /opt/software/pc2/EB-SW/software/PSI4/1.9-foss-2022a/share/psi4/basis/jun-cc-pvdz-jkfit.gbs 
    atoms 24-29, 43-44, 60-61, 79-80, 94-97, 109-110, 120-125 entry H          line    70 file /opt/software/pc2/EB-SW/software/PSI4/1.9-foss-2022a/share/psi4/basis/jun-cc-pvdz-jkfit.gbs 


  //>>>>>>>>>>>>>>>>>>>>>>>>>>>>>>>>>>>//
  //               SSAPT0              //
  //<<<<<<<<<<<<<<<<<<<<<<<<<<<<<<<<<<<//


*** tstart() called on n2cn0795
*** at Thu Jan 25 06:25:09 2024

        SAPT0  
    Ed Hohenstein
     6 June 2009

      Orbital Information
  --------------------------
    NSO        =      1938
    NMO        =      1900
    NRI        =      6901
    NRI (Elst) =      8531
    NOCC A     =        21
    NOCC B     =       300
    FOCC A     =         5
    FOCC B     =        96
    NVIR A     =      1879
    NVIR B     =      1600

    Elst10,r            =     0.008090254040 [Eh]
    Exch10              =    -0.000000165011 [Eh]
    Exch10 (S^2)        =    -0.000000165011 [Eh]

    Iter     Energy [mEh]          dE [mEh]         Residual      Time [s]
       1      -0.00299180       0.002991795       0.389735508           502
       2      -0.00349896       0.000507161       0.201787937          1021
       3      -0.00369718       0.000198227       0.040697751          1579
       4      -0.00370439       0.000007210       0.007979030          2376
       5      -0.00369788      -0.000006517       0.001043639          3322
       6      -0.00369855       0.000000671       0.000208355          4299
       7      -0.00369852      -0.000000026       0.000046903          5155
       8      -0.00369851      -0.000000011       0.000008316          5627
       9      -0.00369851       0.000000000       0.000002462          6161
      10      -0.00369851       0.000000001       0.000000376          6714

    CHF Iterations converged


    Iter     Energy [mEh]          dE [mEh]         Residual      Time [s]
       1      -4.48224921       4.482249209      36.755890807           473
       2      -2.88590368      -1.596345532       4.274736589           895
       3      -2.87330171      -0.012601963       1.446837701          1340
       4      -2.92506191       0.051760198       0.447150413          1707
       5      -2.93173015       0.006668242       0.154258969          2118
       6      -2.93115616      -0.000573996       0.101647969          2530
       7      -2.92963350      -0.001522661       0.046492388          3011
       8      -2.92977835       0.000144857       0.027706422          3564
       9      -2.93017915       0.000400800       0.017535213          4579
      10      -2.93005402      -0.000125138       0.013009236          5620
      11      -2.92998926      -0.000064760       0.005184221          6309
      12      -2.92999622       0.000006962       0.002223755          6924
      13      -2.93000839       0.000012169       0.000820562          7590
      14      -2.93001102       0.000002637       0.000271108          8281
      15      -2.93000970      -0.000001324       0.000156431          8859
      16      -2.93000843      -0.000001267       0.000088979          9370
      17      -2.93000906       0.000000628       0.000049637          9858
      18      -2.93000926       0.000000201       0.000018346         10390
      19      -2.93000917      -0.000000093       0.000009682         10857
      20      -2.93000913      -0.000000044       0.000003912         11629
      21      -2.93000914       0.000000011       0.000001718         12234
      22      -2.93000914       0.000000008       0.000000863         12687

    CHF Iterations converged

    Ind20,r (A<-B)      =    -0.000003698513 [Eh]
    Ind20,r (B<-A)      =    -0.002930009145 [Eh]
    Ind20,r             =    -0.002933707658 [Eh]
    Exch-Ind20,r (A<-B) =     0.000000027860 [Eh]
    Exch-Ind20,r (B<-A) =     0.000000060600 [Eh]
    Exch-Ind20,r        =     0.000000088460 [Eh]
    Disp20              =    -0.000393925144 [Eh]
    Disp20 (SS)         =    -0.000196962572 [Eh]
    Disp20 (OS)         =    -0.000196962572 [Eh]
    Exch-Disp20         =     0.000000049148 [Eh]
    Exch-Disp20 (SS)    =     0.000000038077 [Eh]
    Exch-Disp20 (OS)    =     0.000000011071 [Eh]

    SAPT Results 
  --------------------------------------------------------------------------------------------------------
    Electrostatics                  8.09025404 [mEh]       5.07671106 [kcal/mol]      21.24095905 [kJ/mol]
      Elst10,r                      8.09025404 [mEh]       5.07671106 [kcal/mol]      21.24095905 [kJ/mol]

    Exchange                       -0.00016501 [mEh]      -0.00010355 [kcal/mol]      -0.00043324 [kJ/mol]
      Exch10                       -0.00016501 [mEh]      -0.00010355 [kcal/mol]      -0.00043324 [kJ/mol]
      Exch10(S^2)                  -0.00016501 [mEh]      -0.00010355 [kcal/mol]      -0.00043324 [kJ/mol]

    Induction                      -2.91995397 [mEh]      -1.83229878 [kcal/mol]      -7.66633808 [kJ/mol]
      Ind20,r                      -2.93370766 [mEh]      -1.84092935 [kcal/mol]      -7.70244839 [kJ/mol]
      Exch-Ind20,r                  0.00008846 [mEh]       0.00005551 [kcal/mol]       0.00023225 [kJ/mol]
      delta HF,r (2)                0.01366523 [mEh]       0.00857506 [kcal/mol]       0.03587806 [kJ/mol]

    Dispersion                     -0.39387600 [mEh]      -0.24716092 [kcal/mol]      -1.03412129 [kJ/mol]
      Disp20                       -0.39392514 [mEh]      -0.24719176 [kcal/mol]      -1.03425032 [kJ/mol]
      Exch-Disp20                   0.00004915 [mEh]       0.00003084 [kcal/mol]       0.00012904 [kJ/mol]
      Disp20 (SS)                  -0.19696257 [mEh]      -0.12359588 [kcal/mol]      -0.51712516 [kJ/mol]
      Disp20 (OS)                  -0.19696257 [mEh]      -0.12359588 [kcal/mol]      -0.51712516 [kJ/mol]
      Exch-Disp20 (SS)              0.00003808 [mEh]       0.00002389 [kcal/mol]       0.00009997 [kJ/mol]
      Exch-Disp20 (OS)              0.00001107 [mEh]       0.00000695 [kcal/mol]       0.00002907 [kJ/mol]

  Total HF                          5.17013506 [mEh]       3.24430873 [kcal/mol]      13.57418774 [kJ/mol]
  Total SAPT0                       4.77625907 [mEh]       2.99714781 [kcal/mol]      12.54006645 [kJ/mol]

  Special recipe for scaled SAPT0 (see Manual):
    Electrostatics sSAPT0           8.09025404 [mEh]       5.07671106 [kcal/mol]      21.24095905 [kJ/mol]
    Exchange sSAPT0                -0.00016501 [mEh]      -0.00010355 [kcal/mol]      -0.00043324 [kJ/mol]
    Induction sSAPT0               -2.91995397 [mEh]      -1.83229878 [kcal/mol]      -7.66633808 [kJ/mol]
    Dispersion sSAPT0              -0.39387600 [mEh]      -0.24716092 [kcal/mol]      -1.03412129 [kJ/mol]
  Total sSAPT0                      4.77625907 [mEh]       2.99714781 [kcal/mol]      12.54006645 [kJ/mol]
  --------------------------------------------------------------------------------------------------------

*** tstop() called on n2cn0795 at Thu Jan 25 22:25:38 2024
Module time:
	user time   =   71102.97 seconds =    1185.05 minutes
	system time =    3114.77 seconds =      51.91 minutes
	total time  =      57629 seconds =     960.48 minutes
Total time:
	user time   =  116394.25 seconds =    1939.90 minutes
	system time =    5643.38 seconds =      94.06 minutes
	total time  =      85736 seconds =    1428.93 minutes

    Psi4 stopped on: Thursday, 25 January 2024 10:25PM
    Psi4 wall time for execution: 23:48:58.18

*** Psi4 exiting successfully. Buy a developer a beer!
