
    -----------------------------------------------------------------------
          Psi4: An Open-Source Ab Initio Electronic Structure Package
                               Psi4 1.9 release

                         Git: Rev {} zzzzzzz 


    D. G. A. Smith, L. A. Burns, A. C. Simmonett, R. M. Parrish,
    M. C. Schieber, R. Galvelis, P. Kraus, H. Kruse, R. Di Remigio,
    A. Alenaizan, A. M. James, S. Lehtola, J. P. Misiewicz, M. Scheurer,
    R. A. Shaw, J. B. Schriber, Y. Xie, Z. L. Glick, D. A. Sirianni,
    J. S. O'Brien, J. M. Waldrop, A. Kumar, E. G. Hohenstein,
    B. P. Pritchard, B. R. Brooks, H. F. Schaefer III, A. Yu. Sokolov,
    K. Patkowski, A. E. DePrince III, U. Bozkaya, R. A. King,
    F. A. Evangelista, J. M. Turney, T. D. Crawford, C. D. Sherrill,
    J. Chem. Phys. 152(18) 184108 (2020). https://doi.org/10.1063/5.0006002

                            Additional Code Authors
    E. T. Seidl, C. L. Janssen, E. F. Valeev, M. L. Leininger,
    J. F. Gonthier, R. M. Richard, H. R. McAlexander, M. Saitow, X. Wang,
    P. Verma, M. H. Lechner, A. Jiang, S. Behnle, A. G. Heide,
    M. F. Herbst, and D. L. Poole

             Previous Authors, Complete List of Code Contributors,
                       and Citations for Specific Modules
    https://github.com/psi4/psi4/blob/master/codemeta.json
    https://github.com/psi4/psi4/graphs/contributors
    http://psicode.org/psi4manual/master/introduction.html#citing-psifour

    -----------------------------------------------------------------------


    Psi4 started on: Saturday, 27 January 2024 11:46AM

    Process ID: 685959
    Host:       n2cn0620
    PSIDATADIR: /opt/software/pc2/EB-SW/software/PSI4/1.9-foss-2022a/share/psi4
    Memory:     500.0 MiB
    Threads:    16
    
  ==> Input File <==

--------------------------------------------------------------------------
memory 64 GB # how much memory is available ! Depends on the nodes/cores !

molecule dimer {
# monomer A
-1 1    # Charge and multiplicity
B -0.000046  0.000337 6.599994
F -1.153597  0.000048 7.415641
F  1.153661 -0.000581 7.415641
F -0.000019 -1.153637 5.784360
F -0.000019  1.153978 5.784360
--
# monomer B
0 1     # Charge and multiplicity
C   -3.66844126402057      7.80375217008252      0.00190004133558
C   -4.84759871934653      7.13124183134024     -0.00046653359696
C   -4.89495929917518      5.69633040353158     -0.00103944469517
C   -3.65374067877320      4.98073034095895      0.00662099703436
C   -2.40942512149445      7.11398103667468      0.00209438359570
C   -2.42547734410473      5.68112195090346     -0.00491050527438
C   -1.19474401643570      7.78614419430947      0.00356656413763
C   0.03795902893699      7.09942164575698      0.00139585983271
C   0.03033258741920      5.66948955970466     -0.00408752508301
C   -1.20098450790502      4.96927034791531      0.00488220885047
C   1.27795782581485      7.77285944319479      0.00277170839332
C   2.48535808472416      7.08769688523756      0.00049722048857
C   2.48612868491717      5.65477081024076     -0.00644052849921
C   1.25408291964399      4.95607811366431      0.00518741308898
C   3.75171459140595      7.76391215098033      0.00062407186893
C   4.92356605618520      7.07878077698995     -0.00143240883900
C   4.95560727132542      5.64344746336949     -0.00159282164606
C   3.70680153420475      4.94121020833308      0.00349873852374
H   -3.65852113775815      8.89082741913536      0.00358502958574
H   -1.18921332975660      8.87412108735996      0.00753844057883
H   1.28429423888630      8.86083343548850      0.00693053253426
H   3.75354208679975      8.85103527897216      0.00214659618464
H   5.86995870320703      7.61379483465560     -0.00235777588134
H   -5.78823170750226      7.67630221293400     -0.00202638095293
C   -6.09197395869619      4.99326001364347     -0.00291168518608
C   -6.12866148031747      3.58258016879823     -0.00171050815740
C   -3.66457974004527      3.56418217974434     -0.00463560277484
C   -4.89429820469869      2.86108077590057      0.00453338221034
C   -2.43733499489796      2.84761165708481      0.00719617576166
C   -1.20922785759670      3.54788693497833     -0.00648285103018
C   1.24714157216223      3.53468075142962     -0.00729145743546
C   0.01517603956900      2.83311183930540      0.00439272578912
C   2.46764517244071      2.82128997725533      0.00449278391269
C   3.70254947457969      3.52466015442405     -0.00899517692985
C   6.14498038638375      4.92757236613191     -0.00282626685777
C   6.16658835886151      3.51658447594213     -0.00065971342101
C   4.92460995845939      2.80840792535402      0.00587903281610
H   7.08990550964105      5.46688776622306     -0.00658814770723
H   -7.03104175110130      5.54268795285765     -0.00714490013730
C   -7.33969804112295      2.85841153457957     -0.00333767559888
C   -7.36488195805880      1.47032337158330     -0.00157213747140
C   -4.90350460894690      1.44442681216000     -0.00628840166334
C   -6.13225715261081      0.73993935705394      0.00600164231964
C   -3.67687480051673      0.72669714267312      0.00433931473643
C   -2.44565658606518      1.42964113326212     -0.00597039546461
C   -1.22360068130162      0.71532450163492      0.00545886906656
C   0.00763786931376      1.41738314923765      0.00392452278437
C   1.23121980774686      0.70211669058719     -0.01490206287210
C   2.46082110053113      1.40329203612573      0.00460244601878
C   3.68443025419614      0.68719842821222      0.00377365974158
C   4.91870890153864      1.39173456118907     -0.00862816189375
C   7.36980207796101      2.77948220318441     -0.00242013321349
C   7.38016266612146      1.39121750785509     -0.00087345036788
C   6.13979953912259      0.67411862320065      0.00545489144369
H   -8.27919079934664      3.40711804112415     -0.00763522772059
H   8.31511347147953      3.31811809662368     -0.00663070901292
C   -8.59175593758115      0.72483255304480     -0.00123170985383
C   -8.59902460370342     -0.63263980622873      0.00089141472904
C   -6.13981313911873     -0.67413663715361     -0.00609792660607
C   -7.38018411213749     -1.39126618958160      0.00131813493501
C   -4.91868448025621     -1.39175501803000      0.00624257154343
C   -3.68443829568458     -0.68723731573599     -0.00478966852105
C   -2.46081704024768     -1.40334517882457      0.00575341766833
C   -1.23116201232071     -0.70217386488055     -0.00636696112346
C   -0.00756962538737     -1.41741884941102      0.00108956317991
C   1.22364771588843     -0.71527537726392      0.01109518512883
C   2.44567064933149     -1.42964328900682     -0.00065482763106
C   3.67686670284649     -0.72670743155550     -0.00479541202602
C   6.13224884641929     -0.73997883984993     -0.00632338623858
C   4.90351914550401     -1.44445752054090      0.00751768830159
C   8.59901484869081      0.63260386666793     -0.00101133422380
C   8.59174548810050     -0.72485086719319      0.00072504603735
C   7.36486276438985     -1.47033266560598      0.00049486934466
H   -9.52830597181814      1.27684744919284     -0.00270163681798
H   9.54141097460619      1.17457248844457     -0.00206336648518
C   -7.36983790976868     -2.77954514593389      0.00312634335708
C   -4.92459910905015     -2.80843725734101     -0.00460528907921
C   -6.16662249566744     -3.51665219282533      0.00169655107992
C   -3.70251035970491     -3.52468154912026      0.00571878010666
C   -2.46764698511392     -2.82132596280400     -0.00632585824990
C   -0.01513347410770     -2.83314164539971     -0.00604426974092
C   -1.24712184122656     -3.53473217556300      0.00551968366725
C   1.20924506964357     -3.54791467864352      0.00805871345849
C   2.43733602215464     -2.84764173817541     -0.00608104485234
C   4.89430234377080     -2.86112296828604     -0.00526030478103
C   3.66461525504104     -3.56421984553201      0.00761911515957
C   6.12863901474565     -3.58258405771778      0.00096495711699
C   7.33967266469532     -2.85841330737039      0.00248018319869
H   -9.54144911125902     -1.17456346666430      0.00226083090216
H   9.52826186807155     -1.27691907390448      0.00197485379837
H   -8.31516504384864     -3.31814985321231      0.00729857188773
H   8.27915514249207     -3.40714078989363      0.00681973918158
C   -6.14499418870218     -4.92764727278338      0.00302254913999
C   -3.70678334799751     -4.94126171411716     -0.00679841894792
C   -4.95559005800169     -5.64349397349412      0.00116871569699
C   -2.48612132622665     -5.65478557440947      0.00614125209662
C   -1.25405833548005     -4.95612205000132     -0.00503435388927
C   1.20101257386816     -4.96928038819302     -0.00385322963129
C   -0.03033667441341     -5.66952030313900      0.00398997003238
C   3.65375010132847     -4.98074377541453     -0.00309522988330
C   2.42549269587528     -5.68117463552727      0.00628170066869
C   6.09196561781097     -4.99325796338655      0.00325918379042
C   4.89497644461045     -5.69634842095790      0.00202298796027
H   -7.08989238804069     -5.46699984223871      0.00742531082125
H   7.03105520920009     -5.54265853633254      0.00683896355417
C   -4.92354532219813     -7.07882109967734      0.00061394679214
C   -2.48534208823777     -7.08772807792913     -0.00189594564379
C   -3.75168589177895     -7.76394715763627     -0.00170126671874
C   -0.03794895698805     -7.09946487446944     -0.00168022049625
C   -1.27795610040136     -7.77290438466689     -0.00366491325785
C   2.40944432072629     -7.11402201200282     -0.00081701968533
C   1.19474993715296     -7.78618536556242     -0.00296931056689
C   4.84762105249800     -7.13126211057943      0.00168979497423
C   3.66847160587561     -7.80378799294376     -0.00065863938960
H   -5.86994035041618     -7.61383059804164      0.00215798365757
H   5.78824962538815     -7.67633218931421      0.00281691445618
H   -3.75352693944918     -8.85107156923607     -0.00353718114765
H   -1.28430440589466     -8.86087539249706     -0.00809229711623
H   1.18922157469537     -8.87416062058945     -0.00706194725726
H   3.65854661482387     -8.89086063405326     -0.00231318081200

    units angstrom      # Angstroms are the default
    no_reorient         # Geometry fixed, default
    symmetry c1         # C1 symmetry, default
}

set {
    scf_type DF         # Density fitting, faster than exact integrals
    freeze_core True    # Freeze core electrons
    basis jun-cc-pVDZ   # Jun-cc-pVDZ basis set, recommended for sSAPT0 in https://doi.org/10.1063/1.4867135
}

energy('ssapt0')        # Compute sSAPT0 energy, includes also SAPT0
--------------------------------------------------------------------------

  Memory set to  59.605 GiB by Python driver.

Scratch directory: /tmp/
   => Loading Basis Set <=

    Name: JUN-CC-PVDZ
    Role: ORBITAL
    Keyword: BASIS
    atoms 1                                                   entry B          line   130 file /opt/software/pc2/EB-SW/software/PSI4/1.9-foss-2022a/share/psi4/basis/jun-cc-pvdz.gbs 
    atoms 2-5                                                 entry F          line   266 file /opt/software/pc2/EB-SW/software/PSI4/1.9-foss-2022a/share/psi4/basis/jun-cc-pvdz.gbs 
    atoms 6-23, 30-42, 45-59, 62-78, 81-93, 98-108, 111-119   entry C          line   164 file /opt/software/pc2/EB-SW/software/PSI4/1.9-foss-2022a/share/psi4/basis/jun-cc-pvdz.gbs 
    atoms 24-29, 43-44, 60-61, 79-80, 94-97, 109-110, 120-125 entry H          line    36 file /opt/software/pc2/EB-SW/software/PSI4/1.9-foss-2022a/share/psi4/basis/jun-cc-pvdz.gbs 

   => Loading Basis Set <=

    Name: JUN-CC-PVDZ
    Role: ORBITAL
    Keyword: BASIS
    atoms 1                                                   entry B          line   130 file /opt/software/pc2/EB-SW/software/PSI4/1.9-foss-2022a/share/psi4/basis/jun-cc-pvdz.gbs 
    atoms 2-5                                                 entry F          line   266 file /opt/software/pc2/EB-SW/software/PSI4/1.9-foss-2022a/share/psi4/basis/jun-cc-pvdz.gbs 
    atoms 6-23, 30-42, 45-59, 62-78, 81-93, 98-108, 111-119   entry C          line   164 file /opt/software/pc2/EB-SW/software/PSI4/1.9-foss-2022a/share/psi4/basis/jun-cc-pvdz.gbs 
    atoms 24-29, 43-44, 60-61, 79-80, 94-97, 109-110, 120-125 entry H          line    36 file /opt/software/pc2/EB-SW/software/PSI4/1.9-foss-2022a/share/psi4/basis/jun-cc-pvdz.gbs 


  //>>>>>>>>>>>>>>>>>>>>>>>>>>>>>>>>>>>//
  //              Dimer HF             //
  //<<<<<<<<<<<<<<<<<<<<<<<<<<<<<<<<<<<//

   => Libint2 <=

    Primary   basis highest AM E, G, H:  5, 4, 3
    Auxiliary basis highest AM E, G, H:  6, 5, 4
    Onebody   basis highest AM E, G, H:  6, 5, 4
    Solid Harmonics ordering:            gaussian

*** tstart() called on n2cn0620
*** at Sat Jan 27 11:46:11 2024

   => Loading Basis Set <=

    Name: JUN-CC-PVDZ
    Role: ORBITAL
    Keyword: BASIS
    atoms 1                                                   entry B          line   130 file /opt/software/pc2/EB-SW/software/PSI4/1.9-foss-2022a/share/psi4/basis/jun-cc-pvdz.gbs 
    atoms 2-5                                                 entry F          line   266 file /opt/software/pc2/EB-SW/software/PSI4/1.9-foss-2022a/share/psi4/basis/jun-cc-pvdz.gbs 
    atoms 6-23, 30-42, 45-59, 62-78, 81-93, 98-108, 111-119   entry C          line   164 file /opt/software/pc2/EB-SW/software/PSI4/1.9-foss-2022a/share/psi4/basis/jun-cc-pvdz.gbs 
    atoms 24-29, 43-44, 60-61, 79-80, 94-97, 109-110, 120-125 entry H          line    36 file /opt/software/pc2/EB-SW/software/PSI4/1.9-foss-2022a/share/psi4/basis/jun-cc-pvdz.gbs 


         ---------------------------------------------------------
                                   SCF
               by Justin Turney, Rob Parrish, Andy Simmonett
                          and Daniel G. A. Smith
                              RHF Reference
                       16 Threads,  61035 MiB Core
         ---------------------------------------------------------

  ==> Geometry <==

    Molecular point group: c1
    Full point group: C1

    Geometry (in Angstrom), charge = -1, multiplicity = 1:

       Center              X                  Y                   Z               Mass       
    ------------   -----------------  -----------------  -----------------  -----------------
         B           -0.000050191042     0.000351518223     6.145412464300    11.009305360000
         F           -1.153601191042     0.000062518223     6.961059464300    18.998403162730
         F            1.153656808958    -0.000566481777     6.961059464300    18.998403162730
         F           -0.000023191042    -1.153622481777     5.329778464300    18.998403162730
         F           -0.000023191042     1.153992518223     5.329778464300    18.998403162730
         C           -3.668445455062     7.803766688305    -0.452681494364    12.000000000000
         C           -4.847602910388     7.131256349563    -0.455048069297    12.000000000000
         C           -4.894963490217     5.696344921754    -0.455620980395    12.000000000000
         C           -3.653744869815     4.980744859182    -0.447960538666    12.000000000000
         C           -2.409429312536     7.113995554897    -0.452487152104    12.000000000000
         C           -2.425481535146     5.681136469126    -0.459492040974    12.000000000000
         C           -1.194748207477     7.786158712532    -0.451014971562    12.000000000000
         C            0.037954837895     7.099436163980    -0.453185675867    12.000000000000
         C            0.030328396378     5.669504077927    -0.458669060783    12.000000000000
         C           -1.200988698947     4.969284866138    -0.449699326849    12.000000000000
         C            1.277953634773     7.772873961417    -0.451809827307    12.000000000000
         C            2.485353893683     7.087711403460    -0.454084315211    12.000000000000
         C            2.486124493876     5.654785328463    -0.461022064199    12.000000000000
         C            1.254078728602     4.956092631887    -0.449394122611    12.000000000000
         C            3.751710400364     7.763926669203    -0.453957463831    12.000000000000
         C            4.923561865144     7.078795295213    -0.456013944539    12.000000000000
         C            4.955603080284     5.643461981592    -0.456174357346    12.000000000000
         C            3.706797343163     4.941224726556    -0.451082797176    12.000000000000
         H           -3.658525328800     8.890841937358    -0.450996506114     1.007825032230
         H           -1.189217520798     8.874135605583    -0.447043095121     1.007825032230
         H            1.284290047845     8.860847953711    -0.447651003166     1.007825032230
         H            3.753537895758     8.851049797195    -0.452434939515     1.007825032230
         H            5.869954512165     7.613809352878    -0.456939311581     1.007825032230
         H           -5.788235898544     7.676316731157    -0.456607916653     1.007825032230
         C           -6.091978149738     4.993274531866    -0.457493220886    12.000000000000
         C           -6.128665671359     3.582594687021    -0.456292043857    12.000000000000
         C           -3.664583931087     3.564196697967    -0.459217138475    12.000000000000
         C           -4.894302395740     2.861095294123    -0.450048153490    12.000000000000
         C           -2.437339185940     2.847626175307    -0.447385359938    12.000000000000
         C           -1.209232048638     3.547901453201    -0.461064386730    12.000000000000
         C            1.247137381121     3.534695269652    -0.461872993135    12.000000000000
         C            0.015171848527     2.833126357528    -0.450188809911    12.000000000000
         C            2.467640981399     2.821304495478    -0.450088751787    12.000000000000
         C            3.702545283538     3.524674672647    -0.463576712630    12.000000000000
         C            6.144976195342     4.927586884354    -0.457407802558    12.000000000000
         C            6.166584167820     3.516598994165    -0.455241249121    12.000000000000
         C            4.924605767418     2.808422443577    -0.448702502884    12.000000000000
         H            7.089901318599     5.466902284446    -0.461169683407     1.007825032230
         H           -7.031045942143     5.542702471080    -0.461726435837     1.007825032230
         C           -7.339702232165     2.858426052802    -0.457919211299    12.000000000000
         C           -7.364886149100     1.470337889806    -0.456153673171    12.000000000000
         C           -4.903508799989     1.444441330383    -0.460869937363    12.000000000000
         C           -6.132261343652     0.739953875277    -0.448579893380    12.000000000000
         C           -3.676878991558     0.726711660896    -0.450242220964    12.000000000000
         C           -2.445660777107     1.429655651485    -0.460551931165    12.000000000000
         C           -1.223604872343     0.715339019858    -0.449122666633    12.000000000000
         C            0.007633678272     1.417397667460    -0.450657012916    12.000000000000
         C            1.231215616705     0.702131208810    -0.469483598572    12.000000000000
         C            2.460816909489     1.403306554348    -0.449979089681    12.000000000000
         C            3.684426063155     0.687212946435    -0.450807875958    12.000000000000
         C            4.918704710497     1.391749079412    -0.463209697594    12.000000000000
         C            7.369797886919     2.779496721407    -0.457001668913    12.000000000000
         C            7.380158475080     1.391232026078    -0.455454986068    12.000000000000
         C            6.139795348081     0.674133141423    -0.449126644256    12.000000000000
         H           -8.279194990388     3.407132559347    -0.462216763421     1.007825032230
         H            8.315109280438     3.318132614846    -0.461212244713     1.007825032230
         C           -8.591760128623     0.724847071267    -0.455813245554    12.000000000000
         C           -8.599028794745    -0.632625288006    -0.453690120971    12.000000000000
         C           -6.139817330160    -0.674122118931    -0.460679462306    12.000000000000
         C           -7.380188303179    -1.391251671359    -0.453263400765    12.000000000000
         C           -4.918688671298    -1.391740499807    -0.448338964157    12.000000000000
         C           -3.684442486726    -0.687222797513    -0.459371204221    12.000000000000
         C           -2.460821231289    -1.403330660602    -0.448828118032    12.000000000000
         C           -1.231166203362    -0.702159346658    -0.460948496823    12.000000000000
         C           -0.007573816429    -1.417404331188    -0.453491972520    12.000000000000
         C            1.223643524847    -0.715260859041    -0.443486350571    12.000000000000
         C            2.445666458290    -1.429628770784    -0.455236363331    12.000000000000
         C            3.676862511805    -0.726692913333    -0.459376947726    12.000000000000
         C            6.132244655378    -0.739964321627    -0.460904921939    12.000000000000
         C            4.903514954462    -1.444443002318    -0.447063847398    12.000000000000
         C            8.599010657649     0.632618384891    -0.455592869924    12.000000000000
         C            8.591741297059    -0.724836348971    -0.453856489663    12.000000000000
         C            7.364858573348    -1.470318147383    -0.454086666355    12.000000000000
         H           -9.528310162860     1.276861967415    -0.457283172518     1.007825032230
         H            9.541406783565     1.174587006667    -0.456644902185     1.007825032230
         C           -7.369842100810    -2.779530627711    -0.451455192343    12.000000000000
         C           -4.924603300092    -2.808422739118    -0.459186824779    12.000000000000
         C           -6.166626686709    -3.516637674603    -0.452884984620    12.000000000000
         C           -3.702514550747    -3.524667030898    -0.448862755593    12.000000000000
         C           -2.467651176156    -2.821311444581    -0.460907393950    12.000000000000
         C           -0.015137665149    -2.833127127177    -0.460625805441    12.000000000000
         C           -1.247126032268    -3.534717657340    -0.449061852033    12.000000000000
         C            1.209240878602    -3.547900160421    -0.446522822241    12.000000000000
         C            2.437331831113    -2.847627219953    -0.460662580552    12.000000000000
         C            4.894298152729    -2.861108450063    -0.459841840481    12.000000000000
         C            3.664611063999    -3.564205327309    -0.446962420540    12.000000000000
         C            6.128634823704    -3.582569539495    -0.453616578583    12.000000000000
         C            7.339668473654    -2.858398789148    -0.452101352501    12.000000000000
         H           -9.541453302301    -1.174548948442    -0.452320704798     1.007825032230
         H            9.528257677030    -1.276904555682    -0.452606681902     1.007825032230
         H           -8.315169234890    -3.318135334990    -0.447282963812     1.007825032230
         H            8.279150951450    -3.407126271671    -0.447761796518     1.007825032230
         C           -6.144998379744    -4.927632754561    -0.451558986560    12.000000000000
         C           -3.706787539039    -4.941247195895    -0.461379954648    12.000000000000
         C           -4.955594249043    -5.643479455272    -0.453412820003    12.000000000000
         C           -2.486125517268    -5.654771056187    -0.448440283603    12.000000000000
         C           -1.254062526522    -4.956107531779    -0.459615889589    12.000000000000
         C            1.201008382827    -4.969265869970    -0.458434765331    12.000000000000
         C           -0.030340865455    -5.669505784916    -0.450591565668    12.000000000000
         C            3.653745910287    -4.980729257192    -0.457676765583    12.000000000000
         C            2.425488504834    -5.681160117305    -0.448299835031    12.000000000000
         C            6.091961426769    -4.993243445164    -0.451322351910    12.000000000000
         C            4.894972253569    -5.696333902735    -0.452558547740    12.000000000000
         H           -7.089896579082    -5.466985324016    -0.447156224879     1.007825032230
         H            7.031051018158    -5.542644018110    -0.447742572146     1.007825032230
         C           -4.923549513240    -7.078806581455    -0.453967588908    12.000000000000
         C           -2.485346279279    -7.087713559707    -0.456477481344    12.000000000000
         C           -3.751690082821    -7.763932639414    -0.456282802419    12.000000000000
         C           -0.037953148030    -7.099450356247    -0.456261756196    12.000000000000
         C           -1.277960291443    -7.772889866444    -0.458246448958    12.000000000000
         C            2.409440129685    -7.114007493780    -0.455398555385    12.000000000000
         C            1.194745746111    -7.786170847340    -0.457550846267    12.000000000000
         C            4.847616861456    -7.131247592357    -0.452891740726    12.000000000000
         C            3.668467414834    -7.803773474721    -0.455240175090    12.000000000000
         H           -5.869944541458    -7.613816079819    -0.452423552042     1.007825032230
         H            5.788245434347    -7.676317671092    -0.451764621244     1.007825032230
         H           -3.753531130491    -8.851057051013    -0.458118716848     1.007825032230
         H           -1.284308596936    -8.860860874274    -0.462673832816     1.007825032230
         H            1.189217383654    -8.874146102367    -0.461643482957     1.007825032230
         H            3.658542423782    -8.890846115831    -0.456894716512     1.007825032230

  Running in c1 symmetry.

  Rotational constants: A =      0.00061  B =      0.00061  C =      0.00035 [cm^-1]
  Rotational constants: A =     18.35993  B =     18.35705  C =     10.55117 [MHz]
  Nuclear repulsion = 17248.672250971820176

  Charge       = -1
  Multiplicity = 1
  Electrons    = 642
  Nalpha       = 321
  Nbeta        = 321

  ==> Algorithm <==

  SCF Algorithm Type is DF.
  DIIS enabled.
  MOM disabled.
  Fractional occupation disabled.
  Guess Type is SAD.
  Energy threshold   = 1.00e-08
  Density threshold  = 1.00e-08
  Integral threshold = 1.00e-12

  ==> Primary Basis <==

  Basis Set: JUN-CC-PVDZ
    Blend: JUN-CC-PVDZ
    Number of shells: 880
    Number of basis functions: 1938
    Number of Cartesian functions: 2039
    Spherical Harmonics?: true
    Max angular momentum: 2

   => Loading Basis Set <=

    Name: (JUN-CC-PVDZ AUX)
    Role: JKFIT
    Keyword: DF_BASIS_SCF
    atoms 1                                                   entry B          line    90 file /opt/software/pc2/EB-SW/software/PSI4/1.9-foss-2022a/share/psi4/basis/jun-cc-pvdz-jkfit.gbs 
    atoms 2-5                                                 entry F          line   314 file /opt/software/pc2/EB-SW/software/PSI4/1.9-foss-2022a/share/psi4/basis/jun-cc-pvdz-jkfit.gbs 
    atoms 6-23, 30-42, 45-59, 62-78, 81-93, 98-108, 111-119   entry C          line   146 file /opt/software/pc2/EB-SW/software/PSI4/1.9-foss-2022a/share/psi4/basis/jun-cc-pvdz-jkfit.gbs 
    atoms 24-29, 43-44, 60-61, 79-80, 94-97, 109-110, 120-125 entry H          line    70 file /opt/software/pc2/EB-SW/software/PSI4/1.9-foss-2022a/share/psi4/basis/jun-cc-pvdz-jkfit.gbs 

  ==> Integral Setup <==

  ==> DiskDFJK: Density-Fitted J/K Matrices <==

    J tasked:                  Yes
    K tasked:                  Yes
    wK tasked:                  No
    OpenMP threads:             16
    Integrals threads:          16
    Memory [MiB]:            45776
    Algorithm:                Disk
    Integral Cache:           SAVE
    Schwarz Cutoff:          1E-12
    Fitting Condition:       1E-10

   => Auxiliary Basis Set <=

  Basis Set: (JUN-CC-PVDZ AUX)
    Blend: JUN-CC-PVDZ-JKFIT
    Number of shells: 2943
    Number of basis functions: 8531
    Number of Cartesian functions: 9791
    Spherical Harmonics?: true
    Max angular momentum: 3

  Minimum eigenvalue in the overlap matrix is 9.0347970597E-11.
  Reciprocal condition number of the overlap matrix is 3.9579634624E-12.
    Using canonical orthogonalization.
  Overall, 38 of 1938 possible MOs eliminated.


  ==> Pre-Iterations <==

  SCF Guess: Superposition of Atomic Densities via on-the-fly atomic UHF (no occupation information).

   -------------------------
    Irrep   Nso     Nmo    
   -------------------------
     A       1938    1900 
   -------------------------
    Total    1938    1900
   -------------------------

  ==> Iterations <==

                           Total Energy        Delta E     RMS |[F,P]|

   @DF-RHF iter SAD: -4084.99949653222620   -4.08500e+03   0.00000e+00 
   @DF-RHF iter   1: -4071.52241766227689    1.34771e+01   7.88634e-04 DIIS/ADIIS
   @DF-RHF iter   2: -4072.91626382394406   -1.39385e+00   3.07740e-04 DIIS/ADIIS
   @DF-RHF iter   3: -4073.07866496235465   -1.62401e-01   1.01757e-04 DIIS/ADIIS
   @DF-RHF iter   4: -4073.10026223961859   -2.15973e-02   3.67649e-05 DIIS
   @DF-RHF iter   5: -4073.10345488366602   -3.19264e-03   1.06254e-05 DIIS
   @DF-RHF iter   6: -4073.10387403569848   -4.19152e-04   4.16338e-06 DIIS
   @DF-RHF iter   7: -4073.10405026321314   -1.76228e-04   2.09214e-06 DIIS
   @DF-RHF iter   8: -4073.10410210764167   -5.18444e-05   1.13478e-06 DIIS
   @DF-RHF iter   9: -4073.10411683715347   -1.47295e-05   3.34413e-07 DIIS
   @DF-RHF iter  10: -4073.10411773547185   -8.98318e-07   1.65869e-07 DIIS
   @DF-RHF iter  11: -4073.10411788720694   -1.51735e-07   6.17952e-08 DIIS
   @DF-RHF iter  12: -4073.10411792040713   -3.32002e-08   3.16526e-08 DIIS
   @DF-RHF iter  13: -4073.10411792739114   -6.98401e-09   1.06622e-08 DIIS
   @DF-RHF iter  14: -4073.10411792794184   -5.50699e-10   4.70318e-09 DIIS
  Energy and wave function converged.


  ==> Post-Iterations <==

    Orbital Energies [Eh]
    ---------------------

    Doubly Occupied:                                                      

       1A    -26.066069     2A    -26.065890     3A    -26.065665  
       4A    -26.065630     5A    -11.209059     6A    -11.209051  
       7A    -11.209039     8A    -11.209034     9A    -11.209007  
      10A    -11.209005    11A    -11.209001    12A    -11.208996  
      13A    -11.208982    14A    -11.208974    15A    -11.208973  
      16A    -11.208963    17A    -11.208769    18A    -11.208761  
      19A    -11.208757    20A    -11.208749    21A    -11.208713  
      22A    -11.208703    23A    -11.207346    24A    -11.207335  
      25A    -11.207286    26A    -11.207258    27A    -11.207226  
      28A    -11.207181    29A    -11.207128    30A    -11.207061  
      31A    -11.207060    32A    -11.207002    33A    -11.206948  
      34A    -11.206928    35A    -11.206276    36A    -11.206243  
      37A    -11.206186    38A    -11.206113    39A    -11.206078  
      40A    -11.206028    41A    -11.205863    42A    -11.205842  
      43A    -11.205793    44A    -11.205715    45A    -11.205706  
      46A    -11.205571    47A    -11.205520    48A    -11.205338  
      49A    -11.205318    50A    -11.205299    51A    -11.205159  
      52A    -11.205149    53A    -11.205116    54A    -11.205094  
      55A    -11.205055    56A    -11.204955    57A    -11.204947  
      58A    -11.204926    59A    -11.204891    60A    -11.204870  
      61A    -11.204864    62A    -11.204764    63A    -11.204715  
      64A    -11.204708    65A    -11.204659    66A    -11.204625  
      67A    -11.204603    68A    -11.204348    69A    -11.204342  
      70A    -11.204295    71A    -11.204293    72A    -11.204290  
      73A    -11.204289    74A    -11.204241    75A    -11.204197  
      76A    -11.204101    77A    -11.204082    78A    -11.203925  
      79A    -11.203894    80A    -11.203316    81A    -11.203286  
      82A    -11.202889    83A    -11.202883    84A    -11.202858  
      85A    -11.202835    86A    -11.202833    87A    -11.202831  
      88A    -11.202830    89A    -11.201353    90A    -11.201338  
      91A    -11.201302    92A    -11.201284    93A    -11.201278  
      94A    -11.201250    95A    -11.201239    96A    -11.201239  
      97A    -11.201211    98A    -11.201181    99A    -11.201177  
     100A    -11.201148   101A     -7.538083   102A     -1.409761  
     103A     -1.350170   104A     -1.349931   105A     -1.349815  
     106A     -1.197328   107A     -1.183826   108A     -1.183758  
     109A     -1.166126   110A     -1.166122   111A     -1.159868  
     112A     -1.147486   113A     -1.141606   114A     -1.132974  
     115A     -1.132918   116A     -1.120422   117A     -1.120414  
     118A     -1.100784   119A     -1.100774   120A     -1.097737  
     121A     -1.091619   122A     -1.091618   123A     -1.074479  
     124A     -1.060111   125A     -1.059973   126A     -1.058736  
     127A     -1.057724   128A     -1.057695   129A     -1.034487  
     130A     -1.034480   131A     -1.024037   132A     -1.024031  
     133A     -1.013220   134A     -1.013207   135A     -1.010227  
     136A     -0.993147   137A     -0.993137   138A     -0.986821  
     139A     -0.985806   140A     -0.985796   141A     -0.970533  
     142A     -0.965775   143A     -0.965758   144A     -0.953917  
     145A     -0.952538   146A     -0.950036   147A     -0.946211  
     148A     -0.946176   149A     -0.938477   150A     -0.916897  
     151A     -0.916868   152A     -0.902631   153A     -0.902587  
     154A     -0.853119   155A     -0.853077   156A     -0.850550  
     157A     -0.850500   158A     -0.848818   159A     -0.837155  
     160A     -0.837087   161A     -0.835606   162A     -0.835530  
     163A     -0.835151   164A     -0.819328   165A     -0.817267  
     166A     -0.798540   167A     -0.793488   168A     -0.793441  
     169A     -0.790892   170A     -0.788860   171A     -0.781106  
     172A     -0.781089   173A     -0.775633   174A     -0.775626  
     175A     -0.732070   176A     -0.732060   177A     -0.729097  
     178A     -0.729041   179A     -0.728584   180A     -0.728558  
     181A     -0.727658   182A     -0.713328   183A     -0.706049  
     184A     -0.696415   185A     -0.680973   186A     -0.673488  
     187A     -0.673462   188A     -0.671384   189A     -0.670912  
     190A     -0.670904   191A     -0.663910   192A     -0.659580  
     193A     -0.659565   194A     -0.646594   195A     -0.646591  
     196A     -0.632991   197A     -0.632985   198A     -0.631847  
     199A     -0.628842   200A     -0.628828   201A     -0.625379  
     202A     -0.601038   203A     -0.600827   204A     -0.597772  
     205A     -0.597747   206A     -0.596689   207A     -0.595651  
     208A     -0.595618   209A     -0.586990   210A     -0.586986  
     211A     -0.586941   212A     -0.586156   213A     -0.582309  
     214A     -0.582290   215A     -0.575669   216A     -0.562656  
     217A     -0.562645   218A     -0.560161   219A     -0.555748  
     220A     -0.555743   221A     -0.545395   222A     -0.544581  
     223A     -0.544546   224A     -0.544329   225A     -0.543530  
     226A     -0.543409   227A     -0.542239   228A     -0.542225  
     229A     -0.541671   230A     -0.539130   231A     -0.538256  
     232A     -0.538244   233A     -0.532733   234A     -0.527294  
     235A     -0.527179   236A     -0.527147   237A     -0.525849  
     238A     -0.525843   239A     -0.521193   240A     -0.521186  
     241A     -0.520358   242A     -0.514579   243A     -0.514554  
     244A     -0.513318   245A     -0.513017   246A     -0.512955  
     247A     -0.508970   248A     -0.506139   249A     -0.504933  
     250A     -0.504913   251A     -0.500678   252A     -0.497052  
     253A     -0.495917   254A     -0.490242   255A     -0.480590  
     256A     -0.480577   257A     -0.479267   258A     -0.479201  
     259A     -0.475064   260A     -0.475053   261A     -0.473328  
     262A     -0.463698   263A     -0.463644   264A     -0.462135  
     265A     -0.462129   266A     -0.456990   267A     -0.456971  
     268A     -0.446100   269A     -0.446067   270A     -0.444567  
     271A     -0.442759   272A     -0.442755   273A     -0.438629  
     274A     -0.438604   275A     -0.433878   276A     -0.428792  
     277A     -0.424524   278A     -0.424523   279A     -0.420873  
     280A     -0.415065   281A     -0.412779   282A     -0.412768  
     283A     -0.407288   284A     -0.407205   285A     -0.407182  
     286A     -0.404602   287A     -0.391568   288A     -0.391492  
     289A     -0.386028   290A     -0.385563   291A     -0.385473  
     292A     -0.383842   293A     -0.383757   294A     -0.383641  
     295A     -0.382116   296A     -0.381103   297A     -0.353278  
     298A     -0.353256   299A     -0.333176   300A     -0.333168  
     301A     -0.331500   302A     -0.331476   303A     -0.328504  
     304A     -0.300480   305A     -0.300464   306A     -0.296714  
     307A     -0.281645   308A     -0.280167   309A     -0.280136  
     310A     -0.278614   311A     -0.278573   312A     -0.251960  
     313A     -0.247353   314A     -0.246833   315A     -0.246778  
     316A     -0.232634   317A     -0.204662   318A     -0.198518  
     319A     -0.198485   320A     -0.150542   321A     -0.150476  

    Virtual:                                                              

     322A      0.042036   323A      0.042143   324A      0.088203  
     325A      0.088410   326A      0.088447   327A      0.089907  
     328A      0.089993   329A      0.090903   330A      0.090911  
     331A      0.091066   332A      0.096281   333A      0.098868  
     334A      0.104325   335A      0.104341   336A      0.115615  
     337A      0.115619   338A      0.119876   339A      0.120621  
     340A      0.124735   341A      0.124767   342A      0.124827  
     343A      0.127638   344A      0.127840   345A      0.128443  
     346A      0.129719   347A      0.130070   348A      0.130236  
     349A      0.131068   350A      0.135423   351A      0.135549  
     352A      0.136593   353A      0.140546   354A      0.140558  
     355A      0.141229   356A      0.143101   357A      0.143125  
     358A      0.148426   359A      0.152118   360A      0.152165  
     361A      0.153304   362A      0.155427   363A      0.156471  
     364A      0.157465   365A      0.157546   366A      0.158715  
     367A      0.158801   368A      0.161680   369A      0.163188  
     370A      0.164021   371A      0.164045   372A      0.164537  
     373A      0.164583   374A      0.170528   375A      0.171235  
     376A      0.171573   377A      0.173753   378A      0.174073  
     379A      0.174707   380A      0.178384   381A      0.178600  
     382A      0.183309   383A      0.185699   384A      0.185915  
     385A      0.190720   386A      0.190905   387A      0.191039  
     388A      0.191302   389A      0.191590   390A      0.194513  
     391A      0.196904   392A      0.197095   393A      0.201380  
     394A      0.205186   395A      0.205387   396A      0.206196  
     397A      0.206461   398A      0.207168   399A      0.207364  
     400A      0.207463   401A      0.209465   402A      0.209729  
     403A      0.211687   404A      0.212403   405A      0.215249  
     406A      0.215384   407A      0.216033   408A      0.216360  
     409A      0.216877   410A      0.217416   411A      0.218703  
     412A      0.218909   413A      0.224734   414A      0.225756  
     415A      0.228248   416A      0.228265   417A      0.233678  
     418A      0.233774   419A      0.236129   420A      0.236254  
     421A      0.236285   422A      0.238456   423A      0.241189  
     424A      0.242066   425A      0.243612   426A      0.244303  
     427A      0.244362   428A      0.244709   429A      0.249698  
     430A      0.249889   431A      0.250126   432A      0.250698  
     433A      0.251047   434A      0.251082   435A      0.251647  
     436A      0.251973   437A      0.255129   438A      0.260624  
     439A      0.260717   440A      0.261420   441A      0.261488  
     442A      0.262094   443A      0.263074   444A      0.263113  
     445A      0.264983   446A      0.265147   447A      0.265453  
     448A      0.265819   449A      0.266680   450A      0.266844  
     451A      0.268437   452A      0.268468   453A      0.269629  
     454A      0.269696   455A      0.273479   456A      0.273968  
     457A      0.275454   458A      0.276417   459A      0.277306  
     460A      0.280827   461A      0.280970   462A      0.282855  
     463A      0.283775   464A      0.283830   465A      0.284698  
     466A      0.286696   467A      0.286897   468A      0.286951  
     469A      0.288857   470A      0.289705   471A      0.293876  
     472A      0.294759   473A      0.297306   474A      0.300766  
     475A      0.302350   476A      0.303310   477A      0.303527  
     478A      0.305727   479A      0.306575   480A      0.307118  
     481A      0.307508   482A      0.308209   483A      0.308693  
     484A      0.309048   485A      0.310200   486A      0.310677  
     487A      0.311794   488A      0.311824   489A      0.316091  
     490A      0.316238   491A      0.317545   492A      0.317800  
     493A      0.318084   494A      0.321320   495A      0.321360  
     496A      0.328021   497A      0.328648   498A      0.328699  
     499A      0.330665   500A      0.330955   501A      0.332936  
     502A      0.334018   503A      0.334642   504A      0.335450  
     505A      0.335913   506A      0.337891   507A      0.337926  
     508A      0.338378   509A      0.339462   510A      0.343224  
     511A      0.345363   512A      0.345565   513A      0.347157  
     514A      0.349510   515A      0.349634   516A      0.350953  
     517A      0.351524   518A      0.353215   519A      0.355167  
     520A      0.355205   521A      0.356093   522A      0.356360  
     523A      0.358282   524A      0.358358   525A      0.358750  
     526A      0.359965   527A      0.361464   528A      0.361654  
     529A      0.362918   530A      0.363751   531A      0.364333  
     532A      0.365686   533A      0.365832   534A      0.366113  
     535A      0.370574   536A      0.370881   537A      0.370905  
     538A      0.373389   539A      0.375518   540A      0.377402  
     541A      0.377564   542A      0.378686   543A      0.379223  
     544A      0.379302   545A      0.379562   546A      0.379937  
     547A      0.380600   548A      0.381187   549A      0.381820  
     550A      0.382313   551A      0.386633   552A      0.387068  
     553A      0.389110   554A      0.389170   555A      0.390238  
     556A      0.392256   557A      0.392270   558A      0.393917  
     559A      0.395896   560A      0.395949   561A      0.396430  
     562A      0.398253   563A      0.403386   564A      0.403883  
     565A      0.404959   566A      0.405863   567A      0.406396  
     568A      0.407322   569A      0.407889   570A      0.408749  
     571A      0.409561   572A      0.410380   573A      0.411367  
     574A      0.411631   575A      0.413422   576A      0.413926  
     577A      0.414100   578A      0.416568   579A      0.417006  
     580A      0.418298   581A      0.418354   582A      0.421609  
     583A      0.421984   584A      0.423280   585A      0.428360  
     586A      0.428528   587A      0.429909   588A      0.431182  
     589A      0.431970   590A      0.433010   591A      0.433261  
     592A      0.438068   593A      0.438167   594A      0.438324  
     595A      0.438758   596A      0.438919   597A      0.441392  
     598A      0.442980   599A      0.443821   600A      0.444725  
     601A      0.445429   602A      0.445851   603A      0.447466  
     604A      0.447759   605A      0.448673   606A      0.449182  
     607A      0.449789   608A      0.450426   609A      0.451047  
     610A      0.451580   611A      0.453093   612A      0.453181  
     613A      0.454119   614A      0.454622   615A      0.454900  
     616A      0.458417   617A      0.458647   618A      0.458711  
     619A      0.459607   620A      0.459695   621A      0.461660  
     622A      0.462737   623A      0.462756   624A      0.462819  
     625A      0.463324   626A      0.465775   627A      0.466497  
     628A      0.466529   629A      0.468064   630A      0.468193  
     631A      0.469541   632A      0.470214   633A      0.470880  
     634A      0.471419   635A      0.472074   636A      0.472825  
     637A      0.473232   638A      0.473489   639A      0.475330  
     640A      0.475741   641A      0.476934   642A      0.477590  
     643A      0.478796   644A      0.479836   645A      0.480920  
     646A      0.481224   647A      0.483178   648A      0.484771  
     649A      0.485238   650A      0.485647   651A      0.486387  
     652A      0.486399   653A      0.487448   654A      0.488175  
     655A      0.490157   656A      0.490426   657A      0.491936  
     658A      0.492926   659A      0.493136   660A      0.493759  
     661A      0.494317   662A      0.496935   663A      0.498014  
     664A      0.498356   665A      0.500293   666A      0.500486  
     667A      0.505136   668A      0.505571   669A      0.506459  
     670A      0.506767   671A      0.507290   672A      0.507848  
     673A      0.508092   674A      0.510433   675A      0.511496  
     676A      0.511813   677A      0.513462   678A      0.514997  
     679A      0.515077   680A      0.516778   681A      0.517368  
     682A      0.518948   683A      0.519313   684A      0.520112  
     685A      0.521129   686A      0.524526   687A      0.526485  
     688A      0.526866   689A      0.527773   690A      0.528630  
     691A      0.528777   692A      0.529727   693A      0.530152  
     694A      0.532845   695A      0.533721   696A      0.534674  
     697A      0.535403   698A      0.535902   699A      0.536099  
     700A      0.537510   701A      0.538544   702A      0.539225  
     703A      0.540244   704A      0.541364   705A      0.542219  
     706A      0.543101   707A      0.543392   708A      0.543963  
     709A      0.546209   710A      0.546942   711A      0.548156  
     712A      0.548703   713A      0.548986   714A      0.551133  
     715A      0.551560   716A      0.552993   717A      0.553347  
     718A      0.555060   719A      0.555475   720A      0.556132  
     721A      0.557894   722A      0.561394   723A      0.561603  
     724A      0.562492   725A      0.563078   726A      0.564452  
     727A      0.566768   728A      0.568112   729A      0.569136  
     730A      0.569976   731A      0.571025   732A      0.572053  
     733A      0.572236   734A      0.573479   735A      0.574209  
     736A      0.576546   737A      0.578760   738A      0.578850  
     739A      0.580190   740A      0.582410   741A      0.584833  
     742A      0.585075   743A      0.586967   744A      0.587925  
     745A      0.590127   746A      0.590360   747A      0.590865  
     748A      0.590992   749A      0.599217   750A      0.601924  
     751A      0.603709   752A      0.603969   753A      0.610596  
     754A      0.612490   755A      0.612517   756A      0.616478  
     757A      0.617629   758A      0.617957   759A      0.618374  
     760A      0.619689   761A      0.620603   762A      0.620827  
     763A      0.625853   764A      0.627477   765A      0.628234  
     766A      0.633081   767A      0.633709   768A      0.634352  
     769A      0.637128   770A      0.638224   771A      0.639890  
     772A      0.640017   773A      0.640745   774A      0.641480  
     775A      0.642065   776A      0.642254   777A      0.642757  
     778A      0.645847   779A      0.647163   780A      0.650413  
     781A      0.652689   782A      0.654763   783A      0.657850  
     784A      0.658868   785A      0.659224   786A      0.660136  
     787A      0.661190   788A      0.661546   789A      0.662075  
     790A      0.671771   791A      0.671868   792A      0.673943  
     793A      0.674686   794A      0.674959   795A      0.675125  
     796A      0.680959   797A      0.682032   798A      0.684890  
     799A      0.686797   800A      0.690069   801A      0.692136  
     802A      0.693770   803A      0.696831   804A      0.698014  
     805A      0.699663   806A      0.702517   807A      0.706153  
     808A      0.709351   809A      0.712513   810A      0.712679  
     811A      0.714613   812A      0.715131   813A      0.715312  
     814A      0.718694   815A      0.719507   816A      0.721526  
     817A      0.727582   818A      0.727858   819A      0.731001  
     820A      0.732934   821A      0.739869   822A      0.740398  
     823A      0.743895   824A      0.744028   825A      0.744827  
     826A      0.745658   827A      0.746915   828A      0.748020  
     829A      0.748176   830A      0.749175   831A      0.752087  
     832A      0.758402   833A      0.759358   834A      0.759466  
     835A      0.766041   836A      0.766222   837A      0.767862  
     838A      0.768373   839A      0.768713   840A      0.776652  
     841A      0.779068   842A      0.784533   843A      0.786480  
     844A      0.787125   845A      0.793107   846A      0.795472  
     847A      0.796792   848A      0.798849   849A      0.802602  
     850A      0.802785   851A      0.806208   852A      0.806399  
     853A      0.808699   854A      0.826405   855A      0.827796  
     856A      0.837022   857A      0.838208   858A      0.842052  
     859A      0.842196   860A      0.846138   861A      0.847694  
     862A      0.849827   863A      0.853090   864A      0.854643  
     865A      0.856024   866A      0.858396   867A      0.859201  
     868A      0.861443   869A      0.862341   870A      0.867516  
     871A      0.868212   872A      0.868274   873A      0.869197  
     874A      0.870454   875A      0.870915   876A      0.879945  
     877A      0.880935   878A      0.881327   879A      0.887048  
     880A      0.889005   881A      0.889618   882A      0.890605  
     883A      0.891392   884A      0.893828   885A      0.895212  
     886A      0.897626   887A      0.897831   888A      0.898573  
     889A      0.900917   890A      0.904517   891A      0.905958  
     892A      0.909221   893A      0.910960   894A      0.912344  
     895A      0.913885   896A      0.914480   897A      0.916155  
     898A      0.919135   899A      0.920356   900A      0.920727  
     901A      0.920945   902A      0.923958   903A      0.924930  
     904A      0.925598   905A      0.927218   906A      0.928069  
     907A      0.928331   908A      0.930890   909A      0.931532  
     910A      0.933389   911A      0.936406   912A      0.937763  
     913A      0.939847   914A      0.940699   915A      0.943261  
     916A      0.946274   917A      0.946522   918A      0.948481  
     919A      0.949397   920A      0.950534   921A      0.951216  
     922A      0.952466   923A      0.954563   924A      0.958079  
     925A      0.958525   926A      0.961130   927A      0.962436  
     928A      0.964080   929A      0.966666   930A      0.970183  
     931A      0.972249   932A      0.973583   933A      0.973647  
     934A      0.974076   935A      0.974182   936A      0.974420  
     937A      0.975428   938A      0.978470   939A      0.980578  
     940A      0.983460   941A      0.985212   942A      0.985838  
     943A      0.986094   944A      0.986583   945A      0.988628  
     946A      0.992063   947A      0.992983   948A      0.997427  
     949A      0.998035   950A      1.001436   951A      1.002027  
     952A      1.002491   953A      1.003155   954A      1.003662  
     955A      1.004554   956A      1.004811   957A      1.006812  
     958A      1.008756   959A      1.008910   960A      1.009193  
     961A      1.009458   962A      1.013939   963A      1.017371  
     964A      1.018276   965A      1.020915   966A      1.021181  
     967A      1.025659   968A      1.028948   969A      1.034731  
     970A      1.035957   971A      1.036831   972A      1.038097  
     973A      1.044922   974A      1.045779   975A      1.046704  
     976A      1.046949   977A      1.052379   978A      1.055968  
     979A      1.056226   980A      1.058161   981A      1.058255  
     982A      1.058599   983A      1.059096   984A      1.059648  
     985A      1.067309   986A      1.067699   987A      1.069600  
     988A      1.071839   989A      1.071980   990A      1.074160  
     991A      1.074708   992A      1.075154   993A      1.082354  
     994A      1.084449   995A      1.084831   996A      1.085046  
     997A      1.089594   998A      1.089633   999A      1.096873  
    1000A      1.098507  1001A      1.098781  1002A      1.100253  
    1003A      1.100821  1004A      1.101230  1005A      1.102483  
    1006A      1.103061  1007A      1.103360  1008A      1.104107  
    1009A      1.106737  1010A      1.107041  1011A      1.111093  
    1012A      1.111173  1013A      1.114317  1014A      1.114873  
    1015A      1.115116  1016A      1.116729  1017A      1.118857  
    1018A      1.122007  1019A      1.122497  1020A      1.122848  
    1021A      1.123037  1022A      1.124226  1023A      1.124613  
    1024A      1.124946  1025A      1.126815  1026A      1.127445  
    1027A      1.127778  1028A      1.128399  1029A      1.128690  
    1030A      1.129121  1031A      1.129591  1032A      1.130492  
    1033A      1.131333  1034A      1.132211  1035A      1.133013  
    1036A      1.133449  1037A      1.134804  1038A      1.135267  
    1039A      1.135644  1040A      1.136012  1041A      1.136713  
    1042A      1.136892  1043A      1.138571  1044A      1.139011  
    1045A      1.139101  1046A      1.139650  1047A      1.142216  
    1048A      1.142450  1049A      1.142833  1050A      1.143346  
    1051A      1.145686  1052A      1.149202  1053A      1.151080  
    1054A      1.152233  1055A      1.152940  1056A      1.153859  
    1057A      1.154869  1058A      1.155779  1059A      1.156170  
    1060A      1.156644  1061A      1.158301  1062A      1.160584  
    1063A      1.161766  1064A      1.165569  1065A      1.165983  
    1066A      1.169325  1067A      1.176659  1068A      1.177243  
    1069A      1.177940  1070A      1.178787  1071A      1.184093  
    1072A      1.185542  1073A      1.185602  1074A      1.186685  
    1075A      1.187611  1076A      1.189395  1077A      1.190526  
    1078A      1.193072  1079A      1.193183  1080A      1.195943  
    1081A      1.197788  1082A      1.199012  1083A      1.200056  
    1084A      1.203350  1085A      1.204545  1086A      1.205660  
    1087A      1.205755  1088A      1.207393  1089A      1.209403  
    1090A      1.211249  1091A      1.211388  1092A      1.216588  
    1093A      1.219894  1094A      1.221353  1095A      1.223424  
    1096A      1.225246  1097A      1.226010  1098A      1.231108  
    1099A      1.231798  1100A      1.235445  1101A      1.239193  
    1102A      1.241407  1103A      1.242191  1104A      1.243713  
    1105A      1.244197  1106A      1.247636  1107A      1.248810  
    1108A      1.257124  1109A      1.257382  1110A      1.257673  
    1111A      1.258418  1112A      1.258916  1113A      1.264655  
    1114A      1.265533  1115A      1.266587  1116A      1.267752  
    1117A      1.268097  1118A      1.270221  1119A      1.271906  
    1120A      1.272510  1121A      1.273491  1122A      1.276584  
    1123A      1.278927  1124A      1.287412  1125A      1.288222  
    1126A      1.299951  1127A      1.304747  1128A      1.305019  
    1129A      1.305267  1130A      1.306153  1131A      1.306249  
    1132A      1.312630  1133A      1.315018  1134A      1.315241  
    1135A      1.318399  1136A      1.320454  1137A      1.321693  
    1138A      1.323471  1139A      1.323685  1140A      1.334091  
    1141A      1.335523  1142A      1.335707  1143A      1.341402  
    1144A      1.343906  1145A      1.344671  1146A      1.346442  
    1147A      1.347065  1148A      1.347164  1149A      1.347365  
    1150A      1.350216  1151A      1.351837  1152A      1.354804  
    1153A      1.356895  1154A      1.357243  1155A      1.357570  
    1156A      1.363739  1157A      1.365323  1158A      1.365691  
    1159A      1.367497  1160A      1.370444  1161A      1.370918  
    1162A      1.372499  1163A      1.373915  1164A      1.374655  
    1165A      1.375429  1166A      1.378862  1167A      1.379439  
    1168A      1.382122  1169A      1.382990  1170A      1.384183  
    1171A      1.387715  1172A      1.388052  1173A      1.391181  
    1174A      1.391564  1175A      1.394391  1176A      1.394658  
    1177A      1.404908  1178A      1.405848  1179A      1.410214  
    1180A      1.410236  1181A      1.412504  1182A      1.412629  
    1183A      1.414032  1184A      1.414611  1185A      1.416339  
    1186A      1.418908  1187A      1.423741  1188A      1.424719  
    1189A      1.425238  1190A      1.428663  1191A      1.429553  
    1192A      1.430170  1193A      1.441131  1194A      1.441407  
    1195A      1.442048  1196A      1.445839  1197A      1.446130  
    1198A      1.448264  1199A      1.448389  1200A      1.457800  
    1201A      1.460216  1202A      1.461321  1203A      1.461814  
    1204A      1.462842  1205A      1.463815  1206A      1.464313  
    1207A      1.464560  1208A      1.468724  1209A      1.468969  
    1210A      1.475849  1211A      1.476967  1212A      1.477105  
    1213A      1.477784  1214A      1.481772  1215A      1.481869  
    1216A      1.483043  1217A      1.483686  1218A      1.486646  
    1219A      1.487038  1220A      1.488112  1221A      1.489134  
    1222A      1.490393  1223A      1.494147  1224A      1.495328  
    1225A      1.497367  1226A      1.504659  1227A      1.505131  
    1228A      1.505932  1229A      1.506227  1230A      1.506425  
    1231A      1.507840  1232A      1.508429  1233A      1.520088  
    1234A      1.522183  1235A      1.523039  1236A      1.524445  
    1237A      1.525100  1238A      1.526275  1239A      1.527217  
    1240A      1.534095  1241A      1.537784  1242A      1.538135  
    1243A      1.538805  1244A      1.546153  1245A      1.552204  
    1246A      1.552625  1247A      1.556555  1248A      1.558176  
    1249A      1.559866  1250A      1.560715  1251A      1.571306  
    1252A      1.572319  1253A      1.591665  1254A      1.592060  
    1255A      1.594068  1256A      1.598394  1257A      1.608536  
    1258A      1.608562  1259A      1.638041  1260A      1.639437  
    1261A      1.641872  1262A      1.642837  1263A      1.649068  
    1264A      1.654958  1265A      1.656711  1266A      1.659688  
    1267A      1.661455  1268A      1.662138  1269A      1.662613  
    1270A      1.663206  1271A      1.663456  1272A      1.665506  
    1273A      1.666391  1274A      1.669593  1275A      1.670656  
    1276A      1.671360  1277A      1.671419  1278A      1.673978  
    1279A      1.674498  1280A      1.675460  1281A      1.676837  
    1282A      1.677633  1283A      1.679091  1284A      1.681203  
    1285A      1.681560  1286A      1.684354  1287A      1.686370  
    1288A      1.687394  1289A      1.689919  1290A      1.690325  
    1291A      1.690770  1292A      1.692093  1293A      1.692797  
    1294A      1.693601  1295A      1.694050  1296A      1.695258  
    1297A      1.695671  1298A      1.696219  1299A      1.698031  
    1300A      1.701044  1301A      1.704929  1302A      1.705088  
    1303A      1.709399  1304A      1.709561  1305A      1.709652  
    1306A      1.709993  1307A      1.719406  1308A      1.719947  
    1309A      1.723603  1310A      1.723743  1311A      1.723932  
    1312A      1.724225  1313A      1.724671  1314A      1.727182  
    1315A      1.729398  1316A      1.730293  1317A      1.732962  
    1318A      1.733546  1319A      1.741244  1320A      1.742838  
    1321A      1.747223  1322A      1.748508  1323A      1.750969  
    1324A      1.751197  1325A      1.752067  1326A      1.753696  
    1327A      1.761925  1328A      1.762004  1329A      1.764317  
    1330A      1.768728  1331A      1.768823  1332A      1.769296  
    1333A      1.772490  1334A      1.774355  1335A      1.777636  
    1336A      1.778244  1337A      1.778819  1338A      1.778838  
    1339A      1.785407  1340A      1.791248  1341A      1.800902  
    1342A      1.801706  1343A      1.802274  1344A      1.802466  
    1345A      1.803188  1346A      1.818008  1347A      1.819672  
    1348A      1.821267  1349A      1.833890  1350A      1.836399  
    1351A      1.838285  1352A      1.838956  1353A      1.858897  
    1354A      1.859093  1355A      1.863276  1356A      1.870132  
    1357A      1.876600  1358A      1.878266  1359A      1.879782  
    1360A      1.879888  1361A      1.880364  1362A      1.881637  
    1363A      1.885951  1364A      1.886058  1365A      1.886686  
    1366A      1.891272  1367A      1.891590  1368A      1.892041  
    1369A      1.893003  1370A      1.900573  1371A      1.901830  
    1372A      1.907606  1373A      1.907744  1374A      1.913850  
    1375A      1.914405  1376A      1.917831  1377A      1.917889  
    1378A      1.919628  1379A      1.919733  1380A      1.923378  
    1381A      1.924243  1382A      1.924871  1383A      1.925144  
    1384A      1.926707  1385A      1.932958  1386A      1.933413  
    1387A      1.934279  1388A      1.936411  1389A      1.937329  
    1390A      1.937656  1391A      1.938090  1392A      1.939348  
    1393A      1.940615  1394A      1.943954  1395A      1.945813  
    1396A      1.956350  1397A      1.956585  1398A      1.957796  
    1399A      1.958128  1400A      1.963771  1401A      1.964929  
    1402A      1.970498  1403A      1.971440  1404A      1.974986  
    1405A      1.975827  1406A      1.977615  1407A      1.977687  
    1408A      1.979909  1409A      1.980825  1410A      1.981033  
    1411A      1.988391  1412A      1.988793  1413A      1.988959  
    1414A      1.991422  1415A      1.992344  1416A      1.992735  
    1417A      1.994114  1418A      1.997210  1419A      1.997631  
    1420A      1.998858  1421A      1.999815  1422A      2.003345  
    1423A      2.005001  1424A      2.008238  1425A      2.008494  
    1426A      2.011411  1427A      2.012420  1428A      2.012596  
    1429A      2.013778  1430A      2.013914  1431A      2.014545  
    1432A      2.019363  1433A      2.019976  1434A      2.022909  
    1435A      2.023620  1436A      2.024790  1437A      2.026150  
    1438A      2.028722  1439A      2.036418  1440A      2.037222  
    1441A      2.038025  1442A      2.038768  1443A      2.041853  
    1444A      2.042559  1445A      2.043034  1446A      2.043743  
    1447A      2.047959  1448A      2.049614  1449A      2.049983  
    1450A      2.050144  1451A      2.057727  1452A      2.061618  
    1453A      2.064947  1454A      2.066168  1455A      2.067166  
    1456A      2.069715  1457A      2.069891  1458A      2.071040  
    1459A      2.072720  1460A      2.074035  1461A      2.074691  
    1462A      2.076040  1463A      2.076562  1464A      2.077302  
    1465A      2.082825  1466A      2.084742  1467A      2.086778  
    1468A      2.087436  1469A      2.089080  1470A      2.090934  
    1471A      2.092306  1472A      2.093625  1473A      2.101932  
    1474A      2.103204  1475A      2.106038  1476A      2.108430  
    1477A      2.110151  1478A      2.111019  1479A      2.113371  
    1480A      2.113953  1481A      2.114373  1482A      2.115358  
    1483A      2.121116  1484A      2.121804  1485A      2.123562  
    1486A      2.124312  1487A      2.129203  1488A      2.130441  
    1489A      2.131176  1490A      2.133047  1491A      2.133627  
    1492A      2.134513  1493A      2.135647  1494A      2.136020  
    1495A      2.137095  1496A      2.137724  1497A      2.139912  
    1498A      2.141328  1499A      2.142116  1500A      2.142241  
    1501A      2.142772  1502A      2.142926  1503A      2.143400  
    1504A      2.145549  1505A      2.146141  1506A      2.147938  
    1507A      2.148351  1508A      2.151776  1509A      2.152496  
    1510A      2.153666  1511A      2.154524  1512A      2.155091  
    1513A      2.156121  1514A      2.160684  1515A      2.162245  
    1516A      2.165156  1517A      2.165758  1518A      2.166591  
    1519A      2.167713  1520A      2.168077  1521A      2.169454  
    1522A      2.171078  1523A      2.172051  1524A      2.174037  
    1525A      2.177080  1526A      2.179773  1527A      2.180263  
    1528A      2.180770  1529A      2.181923  1530A      2.182497  
    1531A      2.183145  1532A      2.184887  1533A      2.186093  
    1534A      2.190591  1535A      2.191235  1536A      2.193970  
    1537A      2.194330  1538A      2.196302  1539A      2.196539  
    1540A      2.197982  1541A      2.198072  1542A      2.199401  
    1543A      2.208738  1544A      2.209581  1545A      2.212269  
    1546A      2.212645  1547A      2.213320  1548A      2.213900  
    1549A      2.214062  1550A      2.214403  1551A      2.214960  
    1552A      2.215503  1553A      2.224967  1554A      2.225327  
    1555A      2.233695  1556A      2.234041  1557A      2.234909  
    1558A      2.235627  1559A      2.242212  1560A      2.243699  
    1561A      2.245456  1562A      2.247319  1563A      2.248053  
    1564A      2.250345  1565A      2.252149  1566A      2.252894  
    1567A      2.254018  1568A      2.254957  1569A      2.256357  
    1570A      2.257264  1571A      2.257771  1572A      2.258301  
    1573A      2.258818  1574A      2.263110  1575A      2.267475  
    1576A      2.268034  1577A      2.274262  1578A      2.274708  
    1579A      2.275315  1580A      2.276552  1581A      2.279686  
    1582A      2.279877  1583A      2.282414  1584A      2.283137  
    1585A      2.284856  1586A      2.285618  1587A      2.293423  
    1588A      2.294240  1589A      2.294838  1590A      2.296559  
    1591A      2.299669  1592A      2.300188  1593A      2.304431  
    1594A      2.304604  1595A      2.311762  1596A      2.313068  
    1597A      2.316007  1598A      2.317151  1599A      2.319197  
    1600A      2.320768  1601A      2.330127  1602A      2.336020  
    1603A      2.337697  1604A      2.342848  1605A      2.343462  
    1606A      2.348657  1607A      2.351613  1608A      2.356757  
    1609A      2.357129  1610A      2.362407  1611A      2.371354  
    1612A      2.378282  1613A      2.378694  1614A      2.379311  
    1615A      2.380907  1616A      2.383043  1617A      2.383584  
    1618A      2.385347  1619A      2.387702  1620A      2.388900  
    1621A      2.389569  1622A      2.394059  1623A      2.395617  
    1624A      2.396120  1625A      2.396376  1626A      2.398838  
    1627A      2.399415  1628A      2.399642  1629A      2.405052  
    1630A      2.405286  1631A      2.424557  1632A      2.428643  
    1633A      2.429200  1634A      2.436653  1635A      2.441651  
    1636A      2.445594  1637A      2.446373  1638A      2.447847  
    1639A      2.452089  1640A      2.471762  1641A      2.473176  
    1642A      2.477708  1643A      2.480927  1644A      2.486903  
    1645A      2.495518  1646A      2.496924  1647A      2.506499  
    1648A      2.507425  1649A      2.517634  1650A      2.517695  
    1651A      2.521101  1652A      2.521360  1653A      2.525008  
    1654A      2.525295  1655A      2.543458  1656A      2.543814  
    1657A      2.549251  1658A      2.554420  1659A      2.558610  
    1660A      2.559578  1661A      2.563618  1662A      2.569182  
    1663A      2.592998  1664A      2.593102  1665A      2.593333  
    1666A      2.595186  1667A      2.595950  1668A      2.599265  
    1669A      2.599695  1670A      2.601382  1671A      2.603016  
    1672A      2.604563  1673A      2.611748  1674A      2.611965  
    1675A      2.618059  1676A      2.623394  1677A      2.624443  
    1678A      2.631589  1679A      2.634993  1680A      2.635456  
    1681A      2.638252  1682A      2.639288  1683A      2.639884  
    1684A      2.640118  1685A      2.644490  1686A      2.646526  
    1687A      2.654283  1688A      2.654457  1689A      2.665883  
    1690A      2.666107  1691A      2.666351  1692A      2.666979  
    1693A      2.669765  1694A      2.670855  1695A      2.686342  
    1696A      2.694221  1697A      2.694909  1698A      2.697069  
    1699A      2.699264  1700A      2.700096  1701A      2.702564  
    1702A      2.703482  1703A      2.704903  1704A      2.708322  
    1705A      2.708726  1706A      2.719677  1707A      2.720369  
    1708A      2.721363  1709A      2.722455  1710A      2.722640  
    1711A      2.728606  1712A      2.729451  1713A      2.729633  
    1714A      2.737816  1715A      2.739636  1716A      2.741080  
    1717A      2.744602  1718A      2.745146  1719A      2.745514  
    1720A      2.746076  1721A      2.749907  1722A      2.751061  
    1723A      2.758477  1724A      2.773306  1725A      2.783026  
    1726A      2.783414  1727A      2.784073  1728A      2.784453  
    1729A      2.784563  1730A      2.806032  1731A      2.815929  
    1732A      2.816484  1733A      2.828822  1734A      2.831509  
    1735A      2.834499  1736A      2.834668  1737A      2.854282  
    1738A      2.854689  1739A      2.856881  1740A      2.856986  
    1741A      2.857449  1742A      2.865141  1743A      2.867565  
    1744A      2.869346  1745A      2.869680  1746A      2.870243  
    1747A      2.872457  1748A      2.883440  1749A      2.883794  
    1750A      2.894360  1751A      2.894703  1752A      2.895756  
    1753A      2.895980  1754A      2.899529  1755A      2.915267  
    1756A      2.919434  1757A      2.920029  1758A      2.923226  
    1759A      2.924644  1760A      2.927875  1761A      2.951159  
    1762A      2.952280  1763A      2.953106  1764A      2.963741  
    1765A      2.967209  1766A      2.969698  1767A      2.969852  
    1768A      2.972835  1769A      2.979327  1770A      2.981767  
    1771A      2.987697  1772A      2.987944  1773A      3.016464  
    1774A      3.017412  1775A      3.017825  1776A      3.028877  
    1777A      3.044812  1778A      3.045658  1779A      3.082903  
    1780A      3.083856  1781A      3.087781  1782A      3.091015  
    1783A      3.100118  1784A      3.100945  1785A      3.101592  
    1786A      3.111754  1787A      3.111841  1788A      3.114067  
    1789A      3.126563  1790A      3.160411  1791A      3.165061  
    1792A      3.165358  1793A      3.175732  1794A      3.181255  
    1795A      3.181389  1796A      3.186226  1797A      3.187750  
    1798A      3.194518  1799A      3.195319  1800A      3.201627  
    1801A      3.202132  1802A      3.202652  1803A      3.203289  
    1804A      3.205566  1805A      3.213893  1806A      3.223014  
    1807A      3.225217  1808A      3.227089  1809A      3.227411  
    1810A      3.245307  1811A      3.245950  1812A      3.271845  
    1813A      3.274194  1814A      3.305944  1815A      3.311233  
    1816A      3.314639  1817A      3.315351  1818A      3.316189  
    1819A      3.317956  1820A      3.321379  1821A      3.324261  
    1822A      3.327886  1823A      3.328509  1824A      3.346713  
    1825A      3.348286  1826A      3.350458  1827A      3.355961  
    1828A      3.416111  1829A      3.417019  1830A      3.425124  
    1831A      3.470876  1832A      3.484613  1833A      3.487912  
    1834A      3.495571  1835A      3.502759  1836A      3.505425  
    1837A      3.517323  1838A      3.519557  1839A      3.521324  
    1840A      3.526204  1841A      3.529131  1842A      3.536752  
    1843A      3.540678  1844A      3.549439  1845A      3.564217  
    1846A      3.594920  1847A      3.629131  1848A      3.630887  
    1849A      3.637779  1850A      3.643638  1851A      3.690805  
    1852A      3.694946  1853A      3.719096  1854A      3.721102  
    1855A      3.759844  1856A      3.802613  1857A      3.803129  
    1858A      3.805070  1859A      3.818996  1860A      3.831840  
    1861A      3.835626  1862A      3.895318  1863A      3.897180  
    1864A      3.925167  1865A      3.928352  1866A      3.958718  
    1867A      3.967300  1868A      3.993876  1869A      3.996252  
    1870A      4.002236  1871A      4.003156  1872A      4.013327  
    1873A      4.021171  1874A      4.026697  1875A      4.080092  
    1876A      4.083102  1877A      4.127613  1878A      4.173996  
    1879A      4.174094  1880A      4.174123  1881A      4.201793  
    1882A      4.202038  1883A      4.202224  1884A      4.202278  
    1885A      4.202927  1886A      4.234730  1887A      4.236491  
    1888A      4.237744  1889A      4.286900  1890A      4.359845  
    1891A      4.448916  1892A      4.449097  1893A      4.449610  
    1894A      4.451624  1895A      4.650279  1896A      4.650327  
    1897A      4.652591  1898A      4.750748  1899A      4.785964  
    1900A      4.787622  

    Final Occupation by Irrep:
              A 
    DOCC [   321 ]
    NA   [   321 ]
    NB   [   321 ]

  @DF-RHF Final Energy: -4073.10411792794184

   => Energetics <=

    Nuclear Repulsion Energy =          17248.6722509718201763
    One-Electron Energy =              -39979.1252114442468155
    Two-Electron Energy =               18657.3488425444847962
    Total Energy =                      -4073.1041179279418429

Computation Completed


Properties will be evaluated at   0.000000,   0.000000,   0.000000 [a0]

Properties computed using the SCF density matrix


 Multipole Moments:

 ------------------------------------------------------------------------------------
     Multipole            Electronic (a.u.)      Nuclear  (a.u.)        Total (a.u.)
 ------------------------------------------------------------------------------------

 L = 1.  Multiply by 2.5417464519 to convert [e a0] to [Debye]
 Dipole X            :         -0.0002289           -0.0001188           -0.0003477
 Dipole Y            :          0.0012161           -0.0002727            0.0009434
 Dipole Z            :         28.6812571          -39.2779225          -10.5966654
 Magnitude           :                                                   10.5966654

 ------------------------------------------------------------------------------------

*** tstop() called on n2cn0620 at Sat Jan 27 16:01:13 2024
Module time:
	user time   =   25356.06 seconds =     422.60 minutes
	system time =    1542.93 seconds =      25.72 minutes
	total time  =      15302 seconds =     255.03 minutes
Total time:
	user time   =   25356.06 seconds =     422.60 minutes
	system time =    1542.93 seconds =      25.72 minutes
	total time  =      15302 seconds =     255.03 minutes

  //>>>>>>>>>>>>>>>>>>>>>>>>>>>>>>>>>>>//
  //            Monomer A HF           //
  //<<<<<<<<<<<<<<<<<<<<<<<<<<<<<<<<<<<//

   => Libint2 <=

    Primary   basis highest AM E, G, H:  5, 4, 3
    Auxiliary basis highest AM E, G, H:  6, 5, 4
    Onebody   basis highest AM E, G, H:  6, 5, 4
    Solid Harmonics ordering:            gaussian

*** tstart() called on n2cn0620
*** at Sat Jan 27 16:01:13 2024

   => Loading Basis Set <=

    Name: JUN-CC-PVDZ
    Role: ORBITAL
    Keyword: BASIS
    atoms 1                                                   entry B          line   130 file /opt/software/pc2/EB-SW/software/PSI4/1.9-foss-2022a/share/psi4/basis/jun-cc-pvdz.gbs 
    atoms 2-5                                                 entry F          line   266 file /opt/software/pc2/EB-SW/software/PSI4/1.9-foss-2022a/share/psi4/basis/jun-cc-pvdz.gbs 
    atoms 6-23, 30-42, 45-59, 62-78, 81-93, 98-108, 111-119   entry C          line   164 file /opt/software/pc2/EB-SW/software/PSI4/1.9-foss-2022a/share/psi4/basis/jun-cc-pvdz.gbs 
    atoms 24-29, 43-44, 60-61, 79-80, 94-97, 109-110, 120-125 entry H          line    36 file /opt/software/pc2/EB-SW/software/PSI4/1.9-foss-2022a/share/psi4/basis/jun-cc-pvdz.gbs 


         ---------------------------------------------------------
                                   SCF
               by Justin Turney, Rob Parrish, Andy Simmonett
                          and Daniel G. A. Smith
                              RHF Reference
                       16 Threads,  61035 MiB Core
         ---------------------------------------------------------

  ==> Geometry <==

    Molecular point group: c1
    Full point group: C1

    Geometry (in Angstrom), charge = -1, multiplicity = 1:

       Center              X                  Y                   Z               Mass       
    ------------   -----------------  -----------------  -----------------  -----------------
         B           -0.000050191042     0.000351518223     6.145412464300    11.009305360000
         F           -1.153601191042     0.000062518223     6.961059464300    18.998403162730
         F            1.153656808958    -0.000566481777     6.961059464300    18.998403162730
         F           -0.000023191042    -1.153622481777     5.329778464300    18.998403162730
         F           -0.000023191042     1.153992518223     5.329778464300    18.998403162730
      Gh(C)          -3.668445455062     7.803766688305    -0.452681494364    12.000000000000
      Gh(C)          -4.847602910388     7.131256349563    -0.455048069297    12.000000000000
      Gh(C)          -4.894963490217     5.696344921754    -0.455620980395    12.000000000000
      Gh(C)          -3.653744869815     4.980744859182    -0.447960538666    12.000000000000
      Gh(C)          -2.409429312536     7.113995554897    -0.452487152104    12.000000000000
      Gh(C)          -2.425481535146     5.681136469126    -0.459492040974    12.000000000000
      Gh(C)          -1.194748207477     7.786158712532    -0.451014971562    12.000000000000
      Gh(C)           0.037954837895     7.099436163980    -0.453185675867    12.000000000000
      Gh(C)           0.030328396378     5.669504077927    -0.458669060783    12.000000000000
      Gh(C)          -1.200988698947     4.969284866138    -0.449699326849    12.000000000000
      Gh(C)           1.277953634773     7.772873961417    -0.451809827307    12.000000000000
      Gh(C)           2.485353893683     7.087711403460    -0.454084315211    12.000000000000
      Gh(C)           2.486124493876     5.654785328463    -0.461022064199    12.000000000000
      Gh(C)           1.254078728602     4.956092631887    -0.449394122611    12.000000000000
      Gh(C)           3.751710400364     7.763926669203    -0.453957463831    12.000000000000
      Gh(C)           4.923561865144     7.078795295213    -0.456013944539    12.000000000000
      Gh(C)           4.955603080284     5.643461981592    -0.456174357346    12.000000000000
      Gh(C)           3.706797343163     4.941224726556    -0.451082797176    12.000000000000
      Gh(H)          -3.658525328800     8.890841937358    -0.450996506114     1.007825032230
      Gh(H)          -1.189217520798     8.874135605583    -0.447043095121     1.007825032230
      Gh(H)           1.284290047845     8.860847953711    -0.447651003166     1.007825032230
      Gh(H)           3.753537895758     8.851049797195    -0.452434939515     1.007825032230
      Gh(H)           5.869954512165     7.613809352878    -0.456939311581     1.007825032230
      Gh(H)          -5.788235898544     7.676316731157    -0.456607916653     1.007825032230
      Gh(C)          -6.091978149738     4.993274531866    -0.457493220886    12.000000000000
[...]
    1498A      2.111883  1499A      2.112479  1500A      2.112839  
    1501A      2.113242  1502A      2.114753  1503A      2.116826  
    1504A      2.117998  1505A      2.119796  1506A      2.126485  
    1507A      2.126637  1508A      2.126895  1509A      2.127120  
    1510A      2.127586  1511A      2.128001  1512A      2.129418  
    1513A      2.130957  1514A      2.135360  1515A      2.135775  
    1516A      2.137452  1517A      2.138110  1518A      2.142952  
    1519A      2.143190  1520A      2.143395  1521A      2.144011  
    1522A      2.144305  1523A      2.154381  1524A      2.155019  
    1525A      2.157434  1526A      2.157817  1527A      2.158809  
    1528A      2.159378  1529A      2.159783  1530A      2.160064  
    1531A      2.162487  1532A      2.162769  1533A      2.171296  
    1534A      2.171540  1535A      2.179862  1536A      2.180809  
    1537A      2.181185  1538A      2.182264  1539A      2.188166  
    1540A      2.189157  1541A      2.190767  1542A      2.191575  
    1543A      2.192670  1544A      2.195026  1545A      2.196980  
    1546A      2.198093  1547A      2.200238  1548A      2.200592  
    1549A      2.201110  1550A      2.201344  1551A      2.203524  
    1552A      2.204371  1553A      2.205510  1554A      2.209232  
    1555A      2.213674  1556A      2.214000  1557A      2.220136  
    1558A      2.222129  1559A      2.222704  1560A      2.224332  
    1561A      2.224767  1562A      2.224767  1563A      2.228783  
    1564A      2.231994  1565A      2.232297  1566A      2.233074  
    1567A      2.238663  1568A      2.238906  1569A      2.239438  
    1570A      2.241333  1571A      2.247566  1572A      2.247954  
    1573A      2.248539  1574A      2.248824  1575A      2.260419  
    1576A      2.261559  1577A      2.263509  1578A      2.264900  
    1579A      2.266537  1580A      2.269519  1581A      2.275344  
    1582A      2.282795  1583A      2.284238  1584A      2.290264  
    1585A      2.291033  1586A      2.296283  1587A      2.296757  
    1588A      2.303747  1589A      2.304130  1590A      2.309049  
    1591A      2.314862  1592A      2.324490  1593A      2.324875  
    1594A      2.325180  1595A      2.327078  1596A      2.329406  
    1597A      2.330538  1598A      2.331104  1599A      2.332944  
    1600A      2.334351  1601A      2.335034  1602A      2.339711  
    1603A      2.341395  1604A      2.342157  1605A      2.342310  
    1606A      2.344813  1607A      2.345780  1608A      2.346280  
    1609A      2.349047  1610A      2.349395  1611A      2.368100  
    1612A      2.372283  1613A      2.372846  1614A      2.383629  
    1615A      2.387937  1616A      2.390500  1617A      2.391624  
    1618A      2.392787  1619A      2.397009  1620A      2.418294  
    1621A      2.419496  1622A      2.423499  1623A      2.427522  
    1624A      2.431892  1625A      2.441835  1626A      2.443208  
    1627A      2.451936  1628A      2.453054  1629A      2.464285  
    1630A      2.464345  1631A      2.467757  1632A      2.467971  
    1633A      2.471892  1634A      2.472154  1635A      2.490997  
    1636A      2.491330  1637A      2.494660  1638A      2.501684  
    1639A      2.506097  1640A      2.507259  1641A      2.511441  
    1642A      2.516167  1643A      2.539110  1644A      2.539146  
    1645A      2.540010  1646A      2.541898  1647A      2.542699  
    1648A      2.544787  1649A      2.547489  1650A      2.548546  
    1651A      2.549196  1652A      2.551195  1653A      2.556507  
    1654A      2.556664  1655A      2.564186  1656A      2.571099  
    1657A      2.571487  1658A      2.579948  1659A      2.583655  
    1660A      2.584147  1661A      2.585089  1662A      2.586231  
    1663A      2.588506  1664A      2.588695  1665A      2.593188  
    1666A      2.593484  1667A      2.601307  1668A      2.601440  
    1669A      2.612790  1670A      2.612931  1671A      2.613317  
    1672A      2.613738  1673A      2.616479  1674A      2.617568  
    1675A      2.632524  1676A      2.640569  1677A      2.641470  
    1678A      2.643600  1679A      2.645394  1680A      2.647329  
    1681A      2.648623  1682A      2.649202  1683A      2.652802  
    1684A      2.655729  1685A      2.656086  1686A      2.665969  
    1687A      2.666057  1688A      2.667560  1689A      2.670357  
    1690A      2.670513  1691A      2.673556  1692A      2.677126  
    1693A      2.677553  1694A      2.684229  1695A      2.685518  
    1696A      2.687102  1697A      2.691117  1698A      2.691235  
    1699A      2.691547  1700A      2.692399  1701A      2.696019  
    1702A      2.697282  1703A      2.703958  1704A      2.720626  
    1705A      2.730696  1706A      2.730815  1707A      2.730921  
    1708A      2.731217  1709A      2.731931  1710A      2.752632  
    1711A      2.760179  1712A      2.760690  1713A      2.772696  
    1714A      2.775867  1715A      2.779926  1716A      2.780102  
    1717A      2.799125  1718A      2.799849  1719A      2.801607  
    1720A      2.802173  1721A      2.802200  1722A      2.808742  
    1723A      2.811275  1724A      2.813326  1725A      2.814169  
    1726A      2.815041  1727A      2.815711  1728A      2.817175  
    1729A      2.818355  1730A      2.819407  1731A      2.827958  
    1732A      2.828263  1733A      2.840101  1734A      2.840822  
    1735A      2.841579  1736A      2.841828  1737A      2.845621  
    1738A      2.860570  1739A      2.864867  1740A      2.865416  
    1741A      2.869919  1742A      2.871027  1743A      2.874338  
    1744A      2.895884  1745A      2.896770  1746A      2.913291  
    1747A      2.917647  1748A      2.917796  1749A      2.927400  
    1750A      2.929607  1751A      2.934966  1752A      2.935061  
    1753A      2.963112  1754A      2.964793  1755A      2.965348  
    1756A      2.976092  1757A      2.991685  1758A      2.992547  
    1759A      3.029291  1760A      3.030069  1761A      3.035339  
    1762A      3.038505  1763A      3.046820  1764A      3.047526  
    1765A      3.047961  1766A      3.057493  1767A      3.057532  
    1768A      3.063337  1769A      3.072829  1770A      3.108385  
    1771A      3.112787  1772A      3.113047  1773A      3.122331  
    1774A      3.127279  1775A      3.127496  1776A      3.132498  
    1777A      3.134075  1778A      3.142006  1779A      3.142904  
    1780A      3.148151  1781A      3.148781  1782A      3.149403  
    1783A      3.150095  1784A      3.153505  1785A      3.162070  
    1786A      3.167707  1787A      3.173126  1788A      3.174858  
    1789A      3.175205  1790A      3.193014  1791A      3.193715  
    1792A      3.220022  1793A      3.252838  1794A      3.259395  
    1795A      3.260939  1796A      3.261392  1797A      3.262198  
    1798A      3.264380  1799A      3.268199  1800A      3.271093  
    1801A      3.274631  1802A      3.275322  1803A      3.292848  
    1804A      3.294305  1805A      3.296224  1806A      3.302390  
    1807A      3.361196  1808A      3.362132  1809A      3.369919  
    1810A      3.415705  1811A      3.429710  1812A      3.432070  
    1813A      3.436883  1814A      3.446145  1815A      3.448836  
    1816A      3.461053  1817A      3.464543  1818A      3.465369  
    1819A      3.470971  1820A      3.473841  1821A      3.481350  
    1822A      3.484454  1823A      3.493576  1824A      3.509076  
    1825A      3.538973  1826A      3.574262  1827A      3.575932  
    1828A      3.582795  1829A      3.589928  1830A      3.635590  
    1831A      3.639548  1832A      3.664660  1833A      3.666768  
    1834A      3.704992  1835A      3.747580  1836A      3.749217  
    1837A      3.750390  1838A      3.763002  1839A      3.778563  
    1840A      3.779235  1841A      3.841886  1842A      3.843237  
    1843A      3.871424  1844A      3.874569  1845A      3.904595  
    1846A      3.912889  1847A      3.937708  1848A      3.939695  
    1849A      3.948262  1850A      3.949150  1851A      3.958380  
    1852A      3.964632  1853A      3.970717  1854A      4.024605  
    1855A      4.027409  1856A      4.070889  1857A      4.188801  
    1858A      4.199578  1859A      4.200484  1860A      4.229294  
    1861A      4.301554  1862A      4.329665  1863A      4.393221  
    1864A      5.748505  1865A      5.748663  1866A      5.749947  
    1867A      5.753205  1868A      5.753431  1869A      5.758740  
    1870A      5.759484  1871A      5.760814  1872A      5.779403  
    1873A      5.780863  1874A      5.781151  1875A      6.019712  
    1876A      6.020196  1877A      6.020790  1878A      6.192999  
    1879A      6.326676  1880A      6.326970  1881A      6.373527  
    1882A      6.375520  1883A      6.375934  1884A      7.146289  
    1885A      7.187293  1886A      7.224084  1887A      7.231805  
    1888A      7.234407  1889A      7.250451  1890A      7.253758  
    1891A      7.264266  1892A      7.458591  1893A      7.464195  
    1894A      7.468398  1895A      7.603795  1896A     12.597319  
    1897A     42.908400  1898A     42.911322  1899A     42.912818  
    1900A     42.938577  

    Final Occupation by Irrep:
              A 
    DOCC [   300 ]
    NA   [   300 ]
    NB   [   300 ]

  @DF-RHF Final Energy: -3650.33763584767939

   => Energetics <=

    Nuclear Repulsion Energy =          15611.4211649754324753
    One-Electron Energy =              -36072.0765150790903135
    Two-Electron Energy =               16810.3177142559798085
    Total Energy =                      -3650.3376358476780297

Computation Completed


Properties will be evaluated at   0.000000,   0.000000,   0.000000 [a0]

Properties computed using the SCF density matrix


 Multipole Moments:

 ------------------------------------------------------------------------------------
     Multipole            Electronic (a.u.)      Nuclear  (a.u.)        Total (a.u.)
 ------------------------------------------------------------------------------------

 L = 1.  Multiply by 2.5417464519 to convert [e a0] to [Debye]
 Dipole X            :         -0.0008948            0.0001983           -0.0006965
 Dipole Y            :          0.0011036           -0.0013163           -0.0002126
 Dipole Z            :        515.4145562         -515.4173706           -0.0028144
 Magnitude           :                                                    0.0029071

 ------------------------------------------------------------------------------------

*** tstop() called on n2cn0620 at Sat Jan 27 18:44:57 2024
Module time:
	user time   =   17126.23 seconds =     285.44 minutes
	system time =    1126.43 seconds =      18.77 minutes
	total time  =       6092 seconds =     101.53 minutes
Total time:
	user time   =   46508.46 seconds =     775.14 minutes
	system time =    2982.41 seconds =      49.71 minutes
	total time  =      25126 seconds =     418.77 minutes
  Constructing Basis Sets for SAPT...

   => Loading Basis Set <=

    Name: (JUN-CC-PVDZ AUX)
    Role: RIFIT
    Keyword: DF_BASIS_SAPT
    atoms 1                                                   entry B          line    56 file /opt/software/pc2/EB-SW/software/PSI4/1.9-foss-2022a/share/psi4/basis/jun-cc-pvdz-ri.gbs 
    atoms 2-5                                                 entry F          line   232 file /opt/software/pc2/EB-SW/software/PSI4/1.9-foss-2022a/share/psi4/basis/jun-cc-pvdz-ri.gbs 
    atoms 6-23, 30-42, 45-59, 62-78, 81-93, 98-108, 111-119   entry C          line   100 file /opt/software/pc2/EB-SW/software/PSI4/1.9-foss-2022a/share/psi4/basis/jun-cc-pvdz-ri.gbs 
    atoms 24-29, 43-44, 60-61, 79-80, 94-97, 109-110, 120-125 entry H          line    30 file /opt/software/pc2/EB-SW/software/PSI4/1.9-foss-2022a/share/psi4/basis/jun-cc-pvdz-ri.gbs 

   => Loading Basis Set <=

    Name: (JUN-CC-PVDZ AUX)
    Role: JKFIT
    Keyword: DF_BASIS_ELST
    atoms 1                                                   entry B          line    90 file /opt/software/pc2/EB-SW/software/PSI4/1.9-foss-2022a/share/psi4/basis/jun-cc-pvdz-jkfit.gbs 
    atoms 2-5                                                 entry F          line   314 file /opt/software/pc2/EB-SW/software/PSI4/1.9-foss-2022a/share/psi4/basis/jun-cc-pvdz-jkfit.gbs 
    atoms 6-23, 30-42, 45-59, 62-78, 81-93, 98-108, 111-119   entry C          line   146 file /opt/software/pc2/EB-SW/software/PSI4/1.9-foss-2022a/share/psi4/basis/jun-cc-pvdz-jkfit.gbs 
    atoms 24-29, 43-44, 60-61, 79-80, 94-97, 109-110, 120-125 entry H          line    70 file /opt/software/pc2/EB-SW/software/PSI4/1.9-foss-2022a/share/psi4/basis/jun-cc-pvdz-jkfit.gbs 


  //>>>>>>>>>>>>>>>>>>>>>>>>>>>>>>>>>>>//
  //               SSAPT0              //
  //<<<<<<<<<<<<<<<<<<<<<<<<<<<<<<<<<<<//


*** tstart() called on n2cn0620
*** at Sat Jan 27 18:44:59 2024

        SAPT0  
    Ed Hohenstein
     6 June 2009

      Orbital Information
  --------------------------
    NSO        =      1938
    NMO        =      1900
    NRI        =      6901
    NRI (Elst) =      8531
    NOCC A     =        21
    NOCC B     =       300
    FOCC A     =         5
    FOCC B     =        96
    NVIR A     =      1879
    NVIR B     =      1600

    Elst10,r            =     0.008888908817 [Eh]
    Exch10              =    -0.000000087737 [Eh]
    Exch10 (S^2)        =    -0.000000087737 [Eh]

    Iter     Energy [mEh]          dE [mEh]         Residual      Time [s]
       1      -0.00380056       0.003800565       0.442910202          1897
       2      -0.00444477       0.000644203       0.230486489          2696
       3      -0.00471041       0.000265638       0.043502478          3284
       4      -0.00471435       0.000003945       0.009130984          4090
       5      -0.00470688      -0.000007475       0.001246933          4888
       6      -0.00470783       0.000000956       0.000236239          5591
       7      -0.00470779      -0.000000041       0.000055208          6224
       8      -0.00470778      -0.000000013       0.000011709          6979
       9      -0.00470778      -0.000000000       0.000002840          7699
      10      -0.00470778       0.000000001       0.000000435          8376

    CHF Iterations converged


    Iter     Energy [mEh]          dE [mEh]         Residual      Time [s]
       1      -5.95751234       5.957512345      42.405017858           647
       2      -3.82012569      -2.137386653       4.992647457          1335
       3      -3.80041221      -0.019713483       1.663944725          2501
       4      -3.86803729       0.067625084       0.524826448          4031
       5      -3.87720668       0.009169389       0.181140365          5365
       6      -3.87639090      -0.000815782       0.119189313          6491
       7      -3.87441057      -0.001980329       0.050896972          7777
       8      -3.87455256       0.000141993       0.026770871          9078
       9      -3.87499729       0.000444728       0.016176275         10308
      10      -3.87489605      -0.000101239       0.014013535         11376
      11      -3.87480758      -0.000088475       0.005889219         12510
      12      -3.87481345       0.000005875       0.002639585         13787
      13      -3.87482999       0.000016542       0.001007813         15275
      14      -3.87483426       0.000004264       0.000392647         16822
      15      -3.87483254      -0.000001720       0.000250363         18261
      16      -3.87483008      -0.000002458       0.000145313         19872
      17      -3.87483129       0.000001207       0.000067325         21091
      18      -3.87483163       0.000000342       0.000022369         22492
      19      -3.87483151      -0.000000121       0.000011922         23995
      20      -3.87483144      -0.000000073       0.000004891         25326
      21      -3.87483145       0.000000015       0.000002244         26939
      22      -3.87483146       0.000000013       0.000001115         28191
      23      -3.87483146      -0.000000002       0.000000473         29485

    CHF Iterations converged

    Ind20,r (A<-B)      =    -0.000004707778 [Eh]
    Ind20,r (B<-A)      =    -0.003874831461 [Eh]
    Ind20,r             =    -0.003879539239 [Eh]
    Exch-Ind20,r (A<-B) =     0.000000103772 [Eh]
    Exch-Ind20,r (B<-A) =     0.000000302212 [Eh]
    Exch-Ind20,r        =     0.000000405984 [Eh]
    Disp20              =    -0.000625718891 [Eh]
    Disp20 (SS)         =    -0.000312859446 [Eh]
    Disp20 (OS)         =    -0.000312859446 [Eh]
    Exch-Disp20         =     0.000000340887 [Eh]
    Exch-Disp20 (SS)    =     0.000000261698 [Eh]
    Exch-Disp20 (OS)    =     0.000000079189 [Eh]

    SAPT Results 
  --------------------------------------------------------------------------------------------------------
    Electrostatics                  8.88890882 [mEh]       5.57787449 [kcal/mol]      23.33782688 [kJ/mol]
      Elst10,r                      8.88890882 [mEh]       5.57787449 [kcal/mol]      23.33782688 [kJ/mol]

    Exchange                       -0.00008774 [mEh]      -0.00005506 [kcal/mol]      -0.00023035 [kJ/mol]
      Exch10                       -0.00008774 [mEh]      -0.00005506 [kcal/mol]      -0.00023035 [kJ/mol]
      Exch10(S^2)                  -0.00008774 [mEh]      -0.00005506 [kcal/mol]      -0.00023035 [kJ/mol]

    Induction                      -3.85740539 [mEh]      -2.42055842 [kcal/mol]     -10.12761644 [kJ/mol]
      Ind20,r                      -3.87953924 [mEh]      -2.43444763 [kcal/mol]     -10.18572887 [kJ/mol]
      Exch-Ind20,r                  0.00040598 [mEh]       0.00025476 [kcal/mol]       0.00106591 [kJ/mol]
      delta HF,r (2)                0.02172787 [mEh]       0.01363444 [kcal/mol]       0.05704651 [kJ/mol]

    Dispersion                     -0.62537800 [mEh]      -0.39243062 [kcal/mol]      -1.64192972 [kJ/mol]
      Disp20                       -0.62571889 [mEh]      -0.39264453 [kcal/mol]      -1.64282472 [kJ/mol]
      Exch-Disp20                   0.00034089 [mEh]       0.00021391 [kcal/mol]       0.00089500 [kJ/mol]
      Disp20 (SS)                  -0.31285945 [mEh]      -0.19632227 [kcal/mol]      -0.82141236 [kJ/mol]
      Disp20 (OS)                  -0.31285945 [mEh]      -0.19632227 [kcal/mol]      -0.82141236 [kJ/mol]
      Exch-Disp20 (SS)              0.00026170 [mEh]       0.00016422 [kcal/mol]       0.00068709 [kJ/mol]
      Exch-Disp20 (OS)              0.00007919 [mEh]       0.00004969 [kcal/mol]       0.00020791 [kJ/mol]

  Total HF                          5.03141569 [mEh]       3.15726101 [kcal/mol]      13.20998008 [kJ/mol]
  Total SAPT0                       4.40603769 [mEh]       2.76483039 [kcal/mol]      11.56805036 [kJ/mol]

  Special recipe for scaled SAPT0 (see Manual):
    Electrostatics sSAPT0           8.88890882 [mEh]       5.57787449 [kcal/mol]      23.33782688 [kJ/mol]
    Exchange sSAPT0                -0.00008774 [mEh]      -0.00005506 [kcal/mol]      -0.00023035 [kJ/mol]
    Induction sSAPT0               -3.85740539 [mEh]      -2.42055842 [kcal/mol]     -10.12761644 [kJ/mol]
    Dispersion sSAPT0              -0.62537800 [mEh]      -0.39243062 [kcal/mol]      -1.64192972 [kJ/mol]
  Total sSAPT0                      4.40603769 [mEh]       2.76483039 [kcal/mol]      11.56805036 [kJ/mol]
  --------------------------------------------------------------------------------------------------------

*** tstop() called on n2cn0620 at Mon Jan 29 12:59:08 2024
Module time:
	user time   =   67528.30 seconds =    1125.47 minutes
	system time =    3478.95 seconds =      57.98 minutes
	total time  =     152049 seconds =    2534.15 minutes
Total time:
	user time   =  114038.19 seconds =    1900.64 minutes
	system time =    6461.36 seconds =     107.69 minutes
	total time  =     177177 seconds =    2952.95 minutes

    Psi4 stopped on: Monday, 29 January 2024 12:59PM
    Psi4 wall time for execution: 2 days, 1:12:58.09

*** Psi4 exiting successfully. Buy a developer a beer!
