
    -----------------------------------------------------------------------
          Psi4: An Open-Source Ab Initio Electronic Structure Package
                               Psi4 1.9 release

                         Git: Rev {} zzzzzzz 


    D. G. A. Smith, L. A. Burns, A. C. Simmonett, R. M. Parrish,
    M. C. Schieber, R. Galvelis, P. Kraus, H. Kruse, R. Di Remigio,
    A. Alenaizan, A. M. James, S. Lehtola, J. P. Misiewicz, M. Scheurer,
    R. A. Shaw, J. B. Schriber, Y. Xie, Z. L. Glick, D. A. Sirianni,
    J. S. O'Brien, J. M. Waldrop, A. Kumar, E. G. Hohenstein,
    B. P. Pritchard, B. R. Brooks, H. F. Schaefer III, A. Yu. Sokolov,
    K. Patkowski, A. E. DePrince III, U. Bozkaya, R. A. King,
    F. A. Evangelista, J. M. Turney, T. D. Crawford, C. D. Sherrill,
    J. Chem. Phys. 152(18) 184108 (2020). https://doi.org/10.1063/5.0006002

                            Additional Code Authors
    E. T. Seidl, C. L. Janssen, E. F. Valeev, M. L. Leininger,
    J. F. Gonthier, R. M. Richard, H. R. McAlexander, M. Saitow, X. Wang,
    P. Verma, M. H. Lechner, A. Jiang, S. Behnle, A. G. Heide,
    M. F. Herbst, and D. L. Poole

             Previous Authors, Complete List of Code Contributors,
                       and Citations for Specific Modules
    https://github.com/psi4/psi4/blob/master/codemeta.json
    https://github.com/psi4/psi4/graphs/contributors
    http://psicode.org/psi4manual/master/introduction.html#citing-psifour

    -----------------------------------------------------------------------


    Psi4 started on: Saturday, 27 January 2024 12:13AM

    Process ID: 327777
    Host:       n2cn1163
    PSIDATADIR: /opt/software/pc2/EB-SW/software/PSI4/1.9-foss-2022a/share/psi4
    Memory:     500.0 MiB
    Threads:    16
    
  ==> Input File <==

--------------------------------------------------------------------------
memory 64 GB # how much memory is available ! Depends on the nodes/cores !

molecule dimer {
# monomer A
+1 1    # Charge and multiplicity
C  0.680067 1.417258 -7.015929
C -0.680504 1.419286 -7.015545
N -1.085635 1.420284 -5.697221
C  0.000108 1.423560 -4.915820
C -2.477365 1.469690 -5.229242
N  1.085222 1.420284 -5.697221
H  1.385146 1.409430 -7.833368
H -1.385302 1.419096 -7.833214
H -0.000009 1.425307 -3.834731
C  2.478117 1.403392 -5.232123
H  2.490592 1.430737 -4.141870
H  2.967028 0.489946 -5.579299
H  3.001428 2.278875 -5.623595
H -2.857359 2.491761 -5.309201
H -3.082679 0.799606 -5.842306
H -2.518128 1.142706 -4.189294
--
# monomer B
0 1     # Charge and multiplicity
C   -3.66844126402057      7.80375217008252      0.00190004133558
C   -4.84759871934653      7.13124183134024     -0.00046653359696
C   -4.89495929917518      5.69633040353158     -0.00103944469517
C   -3.65374067877320      4.98073034095895      0.00662099703436
C   -2.40942512149445      7.11398103667468      0.00209438359570
C   -2.42547734410473      5.68112195090346     -0.00491050527438
C   -1.19474401643570      7.78614419430947      0.00356656413763
C   0.03795902893699      7.09942164575698      0.00139585983271
C   0.03033258741920      5.66948955970466     -0.00408752508301
C   -1.20098450790502      4.96927034791531      0.00488220885047
C   1.27795782581485      7.77285944319479      0.00277170839332
C   2.48535808472416      7.08769688523756      0.00049722048857
C   2.48612868491717      5.65477081024076     -0.00644052849921
C   1.25408291964399      4.95607811366431      0.00518741308898
C   3.75171459140595      7.76391215098033      0.00062407186893
C   4.92356605618520      7.07878077698995     -0.00143240883900
C   4.95560727132542      5.64344746336949     -0.00159282164606
C   3.70680153420475      4.94121020833308      0.00349873852374
H   -3.65852113775815      8.89082741913536      0.00358502958574
H   -1.18921332975660      8.87412108735996      0.00753844057883
H   1.28429423888630      8.86083343548850      0.00693053253426
H   3.75354208679975      8.85103527897216      0.00214659618464
H   5.86995870320703      7.61379483465560     -0.00235777588134
H   -5.78823170750226      7.67630221293400     -0.00202638095293
C   -6.09197395869619      4.99326001364347     -0.00291168518608
C   -6.12866148031747      3.58258016879823     -0.00171050815740
C   -3.66457974004527      3.56418217974434     -0.00463560277484
C   -4.89429820469869      2.86108077590057      0.00453338221034
C   -2.43733499489796      2.84761165708481      0.00719617576166
C   -1.20922785759670      3.54788693497833     -0.00648285103018
C   1.24714157216223      3.53468075142962     -0.00729145743546
C   0.01517603956900      2.83311183930540      0.00439272578912
C   2.46764517244071      2.82128997725533      0.00449278391269
C   3.70254947457969      3.52466015442405     -0.00899517692985
C   6.14498038638375      4.92757236613191     -0.00282626685777
C   6.16658835886151      3.51658447594213     -0.00065971342101
C   4.92460995845939      2.80840792535402      0.00587903281610
H   7.08990550964105      5.46688776622306     -0.00658814770723
H   -7.03104175110130      5.54268795285765     -0.00714490013730
C   -7.33969804112295      2.85841153457957     -0.00333767559888
C   -7.36488195805880      1.47032337158330     -0.00157213747140
C   -4.90350460894690      1.44442681216000     -0.00628840166334
C   -6.13225715261081      0.73993935705394      0.00600164231964
C   -3.67687480051673      0.72669714267312      0.00433931473643
C   -2.44565658606518      1.42964113326212     -0.00597039546461
C   -1.22360068130162      0.71532450163492      0.00545886906656
C   0.00763786931376      1.41738314923765      0.00392452278437
C   1.23121980774686      0.70211669058719     -0.01490206287210
C   2.46082110053113      1.40329203612573      0.00460244601878
C   3.68443025419614      0.68719842821222      0.00377365974158
C   4.91870890153864      1.39173456118907     -0.00862816189375
C   7.36980207796101      2.77948220318441     -0.00242013321349
C   7.38016266612146      1.39121750785509     -0.00087345036788
C   6.13979953912259      0.67411862320065      0.00545489144369
H   -8.27919079934664      3.40711804112415     -0.00763522772059
H   8.31511347147953      3.31811809662368     -0.00663070901292
C   -8.59175593758115      0.72483255304480     -0.00123170985383
C   -8.59902460370342     -0.63263980622873      0.00089141472904
C   -6.13981313911873     -0.67413663715361     -0.00609792660607
C   -7.38018411213749     -1.39126618958160      0.00131813493501
C   -4.91868448025621     -1.39175501803000      0.00624257154343
C   -3.68443829568458     -0.68723731573599     -0.00478966852105
C   -2.46081704024768     -1.40334517882457      0.00575341766833
C   -1.23116201232071     -0.70217386488055     -0.00636696112346
C   -0.00756962538737     -1.41741884941102      0.00108956317991
C   1.22364771588843     -0.71527537726392      0.01109518512883
C   2.44567064933149     -1.42964328900682     -0.00065482763106
C   3.67686670284649     -0.72670743155550     -0.00479541202602
C   6.13224884641929     -0.73997883984993     -0.00632338623858
C   4.90351914550401     -1.44445752054090      0.00751768830159
C   8.59901484869081      0.63260386666793     -0.00101133422380
C   8.59174548810050     -0.72485086719319      0.00072504603735
C   7.36486276438985     -1.47033266560598      0.00049486934466
H   -9.52830597181814      1.27684744919284     -0.00270163681798
H   9.54141097460619      1.17457248844457     -0.00206336648518
C   -7.36983790976868     -2.77954514593389      0.00312634335708
C   -4.92459910905015     -2.80843725734101     -0.00460528907921
C   -6.16662249566744     -3.51665219282533      0.00169655107992
C   -3.70251035970491     -3.52468154912026      0.00571878010666
C   -2.46764698511392     -2.82132596280400     -0.00632585824990
C   -0.01513347410770     -2.83314164539971     -0.00604426974092
C   -1.24712184122656     -3.53473217556300      0.00551968366725
C   1.20924506964357     -3.54791467864352      0.00805871345849
C   2.43733602215464     -2.84764173817541     -0.00608104485234
C   4.89430234377080     -2.86112296828604     -0.00526030478103
C   3.66461525504104     -3.56421984553201      0.00761911515957
C   6.12863901474565     -3.58258405771778      0.00096495711699
C   7.33967266469532     -2.85841330737039      0.00248018319869
H   -9.54144911125902     -1.17456346666430      0.00226083090216
H   9.52826186807155     -1.27691907390448      0.00197485379837
H   -8.31516504384864     -3.31814985321231      0.00729857188773
H   8.27915514249207     -3.40714078989363      0.00681973918158
C   -6.14499418870218     -4.92764727278338      0.00302254913999
C   -3.70678334799751     -4.94126171411716     -0.00679841894792
C   -4.95559005800169     -5.64349397349412      0.00116871569699
C   -2.48612132622665     -5.65478557440947      0.00614125209662
C   -1.25405833548005     -4.95612205000132     -0.00503435388927
C   1.20101257386816     -4.96928038819302     -0.00385322963129
C   -0.03033667441341     -5.66952030313900      0.00398997003238
C   3.65375010132847     -4.98074377541453     -0.00309522988330
C   2.42549269587528     -5.68117463552727      0.00628170066869
C   6.09196561781097     -4.99325796338655      0.00325918379042
C   4.89497644461045     -5.69634842095790      0.00202298796027
H   -7.08989238804069     -5.46699984223871      0.00742531082125
H   7.03105520920009     -5.54265853633254      0.00683896355417
C   -4.92354532219813     -7.07882109967734      0.00061394679214
C   -2.48534208823777     -7.08772807792913     -0.00189594564379
C   -3.75168589177895     -7.76394715763627     -0.00170126671874
C   -0.03794895698805     -7.09946487446944     -0.00168022049625
C   -1.27795610040136     -7.77290438466689     -0.00366491325785
C   2.40944432072629     -7.11402201200282     -0.00081701968533
C   1.19474993715296     -7.78618536556242     -0.00296931056689
C   4.84762105249800     -7.13126211057943      0.00168979497423
C   3.66847160587561     -7.80378799294376     -0.00065863938960
H   -5.86994035041618     -7.61383059804164      0.00215798365757
H   5.78824962538815     -7.67633218931421      0.00281691445618
H   -3.75352693944918     -8.85107156923607     -0.00353718114765
H   -1.28430440589466     -8.86087539249706     -0.00809229711623
H   1.18922157469537     -8.87416062058945     -0.00706194725726
H   3.65854661482387     -8.89086063405326     -0.00231318081200

    units angstrom      # Angstroms are the default
    no_reorient         # Geometry fixed, default
    symmetry c1         # C1 symmetry, default
}

set {
    scf_type DF         # Density fitting, faster than exact integrals
    freeze_core True    # Freeze core electrons
    basis jun-cc-pVDZ   # Jun-cc-pVDZ basis set, recommended for sSAPT0 in https://doi.org/10.1063/1.4867135
}

energy('ssapt0')        # Compute sSAPT0 energy, includes also SAPT0
--------------------------------------------------------------------------

  Memory set to  59.605 GiB by Python driver.

Scratch directory: /tmp/
   => Loading Basis Set <=

    Name: JUN-CC-PVDZ
    Role: ORBITAL
    Keyword: BASIS
    atoms 1-2, 4-5, 10, 17-34, 41-53, 56-70, 73-89, 92-104, 109-119, 122-130 entry C          line   164 file /opt/software/pc2/EB-SW/software/PSI4/1.9-foss-2022a/share/psi4/basis/jun-cc-pvdz.gbs 
    atoms 3, 6                                                               entry N          line   198 file /opt/software/pc2/EB-SW/software/PSI4/1.9-foss-2022a/share/psi4/basis/jun-cc-pvdz.gbs 
    atoms 7-9, 11-16, 35-40, 54-55, 71-72, 90-91, 105-108, 120-121, 131-136  entry H          line    36 file /opt/software/pc2/EB-SW/software/PSI4/1.9-foss-2022a/share/psi4/basis/jun-cc-pvdz.gbs 

   => Loading Basis Set <=

    Name: JUN-CC-PVDZ
    Role: ORBITAL
    Keyword: BASIS
    atoms 1-2, 4-5, 10, 17-34, 41-53, 56-70, 73-89, 92-104, 109-119, 122-130 entry C          line   164 file /opt/software/pc2/EB-SW/software/PSI4/1.9-foss-2022a/share/psi4/basis/jun-cc-pvdz.gbs 
    atoms 3, 6                                                               entry N          line   198 file /opt/software/pc2/EB-SW/software/PSI4/1.9-foss-2022a/share/psi4/basis/jun-cc-pvdz.gbs 
    atoms 7-9, 11-16, 35-40, 54-55, 71-72, 90-91, 105-108, 120-121, 131-136  entry H          line    36 file /opt/software/pc2/EB-SW/software/PSI4/1.9-foss-2022a/share/psi4/basis/jun-cc-pvdz.gbs 


  //>>>>>>>>>>>>>>>>>>>>>>>>>>>>>>>>>>>//
  //              Dimer HF             //
  //<<<<<<<<<<<<<<<<<<<<<<<<<<<<<<<<<<<//

   => Libint2 <=

    Primary   basis highest AM E, G, H:  5, 4, 3
    Auxiliary basis highest AM E, G, H:  6, 5, 4
    Onebody   basis highest AM E, G, H:  6, 5, 4
    Solid Harmonics ordering:            gaussian

*** tstart() called on n2cn1163
*** at Sat Jan 27 00:13:58 2024

   => Loading Basis Set <=

    Name: JUN-CC-PVDZ
    Role: ORBITAL
    Keyword: BASIS
    atoms 1-2, 4-5, 10, 17-34, 41-53, 56-70, 73-89, 92-104, 109-119, 122-130 entry C          line   164 file /opt/software/pc2/EB-SW/software/PSI4/1.9-foss-2022a/share/psi4/basis/jun-cc-pvdz.gbs 
    atoms 3, 6                                                               entry N          line   198 file /opt/software/pc2/EB-SW/software/PSI4/1.9-foss-2022a/share/psi4/basis/jun-cc-pvdz.gbs 
    atoms 7-9, 11-16, 35-40, 54-55, 71-72, 90-91, 105-108, 120-121, 131-136  entry H          line    36 file /opt/software/pc2/EB-SW/software/PSI4/1.9-foss-2022a/share/psi4/basis/jun-cc-pvdz.gbs 


         ---------------------------------------------------------
                                   SCF
               by Justin Turney, Rob Parrish, Andy Simmonett
                          and Daniel G. A. Smith
                              RHF Reference
                       16 Threads,  61035 MiB Core
         ---------------------------------------------------------

  ==> Geometry <==

    Molecular point group: c1
    Full point group: C1

    Geometry (in Angstrom), charge = 1, multiplicity = 1:

       Center              X                  Y                   Z               Mass       
    ------------   -----------------  -----------------  -----------------  -----------------
         C            0.680062820275     1.308604348936    -6.573729579397    12.000000000000
         C           -0.680508179725     1.310632348936    -6.573345579397    12.000000000000
         N           -1.085639179725     1.311630348936    -5.255021579397    14.003074004430
         C            0.000103820275     1.314906348936    -4.473620579397    12.000000000000
         C           -2.477369179725     1.361036348936    -4.787042579397    12.000000000000
         N            1.085217820275     1.311630348936    -5.255021579397    14.003074004430
         H            1.385141820275     1.300776348936    -7.391168579397     1.007825032230
         H           -1.385306179725     1.310442348936    -7.391014579397     1.007825032230
         H           -0.000013179725     1.316653348936    -3.392531579397     1.007825032230
         C            2.478112820275     1.294738348936    -4.789923579397    12.000000000000
         H            2.490587820275     1.322083348936    -3.699670579397     1.007825032230
         H            2.967023820275     0.381292348936    -5.137099579397     1.007825032230
         H            3.001423820275     2.170221348936    -5.181395579397     1.007825032230
         H           -2.857363179725     2.383107348936    -4.867001579397     1.007825032230
         H           -3.082683179725     0.690952348936    -5.400106579397     1.007825032230
         H           -2.518132179725     1.034052348936    -3.747094579397     1.007825032230
         C           -3.668445443746     7.695098519018     0.444099461938    12.000000000000
         C           -4.847602899072     7.022588180276     0.441732887006    12.000000000000
         C           -4.894963478901     5.587676752467     0.441159975908    12.000000000000
         C           -3.653744858499     4.872076689895     0.448820417637    12.000000000000
         C           -2.409429301220     7.005327385610     0.444293804199    12.000000000000
         C           -2.425481523830     5.572468299839     0.437288915329    12.000000000000
         C           -1.194748196161     7.677490543245     0.445765984741    12.000000000000
         C            0.037954849212     6.990767994693     0.443595280436    12.000000000000
         C            0.030328407694     5.560835908640     0.438111895520    12.000000000000
         C           -1.200988687630     4.860616696851     0.447081629453    12.000000000000
         C            1.277953646089     7.664205792130     0.444971128996    12.000000000000
         C            2.485353904999     6.979043234173     0.442696641091    12.000000000000
         C            2.486124505192     5.546117159176     0.435758892104    12.000000000000
         C            1.254078739919     4.847424462600     0.447386833692    12.000000000000
         C            3.751710411681     7.655258499916     0.442823492472    12.000000000000
         C            4.923561876460     6.970127125926     0.440767011764    12.000000000000
         C            4.955603091600     5.534793812305     0.440606598957    12.000000000000
         C            3.706797354479     4.832556557269     0.445698159127    12.000000000000
         H           -3.658525317484     8.782173768071     0.445784450189     1.007825032230
         H           -1.189217509482     8.765467436296     0.449737861182     1.007825032230
         H            1.284290059161     8.752179784424     0.449129953137     1.007825032230
         H            3.753537907074     8.742381627908     0.444346016788     1.007825032230
         H            5.869954523482     7.505141183591     0.439841644722     1.007825032230
         H           -5.788235887228     7.567648561870     0.440173039650     1.007825032230
         C           -6.091978138422     4.884606362579     0.439287735417    12.000000000000
         C           -6.128665660043     3.473926517734     0.440488912445    12.000000000000
         C           -3.664583919771     3.455528528680     0.437563817828    12.000000000000
         C           -4.894302384424     2.752427124836     0.446732802813    12.000000000000
         C           -2.437339174623     2.738958006020     0.449395596365    12.000000000000
         C           -1.209232037322     3.439233283914     0.435716569573    12.000000000000
         C            1.247137392437     3.426027100365     0.434907963167    12.000000000000
         C            0.015171859844     2.724458188241     0.446592146392    12.000000000000
         C            2.467640992715     2.712636326191     0.446692204516    12.000000000000
         C            3.702545294854     3.416006503360     0.433204243673    12.000000000000
         C            6.144976206658     4.818918715067     0.439373153745    12.000000000000
         C            6.166584179136     3.407930824878     0.441539707182    12.000000000000
         C            4.924605778734     2.699754274290     0.448078453419    12.000000000000
         H            7.089901329916     5.358234115159     0.435611272896     1.007825032230
         H           -7.031045930827     5.434034301793     0.435054520466     1.007825032230
         C           -7.339702220848     2.749757883515     0.438861745004    12.000000000000
         C           -7.364886137784     1.361669720519     0.440627283131    12.000000000000
         C           -4.903508788672     1.335773161096     0.435911018940    12.000000000000
         C           -6.132261332336     0.631285705989     0.448201062923    12.000000000000
         C           -3.676878980242     0.618043491609     0.446538735339    12.000000000000
         C           -2.445660765791     1.320987482198     0.436229025138    12.000000000000
         C           -1.223604861027     0.606670850570     0.447658289669    12.000000000000
         C            0.007633689588     1.308729498173     0.446123943387    12.000000000000
         C            1.231215628021     0.593463039523     0.427297357731    12.000000000000
         C            2.460816920806     1.294638385061     0.446801866622    12.000000000000
         C            3.684426074471     0.578544777148     0.445973080344    12.000000000000
         C            4.918704721813     1.283080910125     0.433571258709    12.000000000000
         C            7.369797898236     2.670828552120     0.439779287389    12.000000000000
         C            7.380158486396     1.282563856791     0.441325970235    12.000000000000
         C            6.139795359397     0.565464972136     0.447654312047    12.000000000000
         H           -8.279194979072     3.298464390060     0.434564192882     1.007825032230
         H            8.315109291754     3.209464445559     0.435568711590     1.007825032230
         C           -8.591760117307     0.616178901980     0.440967710749    12.000000000000
         C           -8.599028783429    -0.741293457293     0.443090835332    12.000000000000
         C           -6.139817318844    -0.782790288218     0.436101493997    12.000000000000
         C           -7.380188291863    -1.499919840646     0.443517555538    12.000000000000
         C           -4.918688659982    -1.500408669094     0.448441992146    12.000000000000
         C           -3.684442475410    -0.795890966800     0.437409752082    12.000000000000
         C           -2.460821219973    -1.511998829889     0.447952838271    12.000000000000
         C           -1.231166192046    -0.810827515945     0.435832459479    12.000000000000
         C           -0.007573805113    -1.526072500475     0.443288983783    12.000000000000
         C            1.223643536163    -0.823929028328     0.453294605732    12.000000000000
         C            2.445666469606    -1.538296940071     0.441544592972    12.000000000000
         C            3.676862523121    -0.835361082620     0.437404008577    12.000000000000
         C            6.132244666694    -0.848632490914     0.435876034364    12.000000000000
         C            4.903514965779    -1.553111171605     0.449717108904    12.000000000000
         C            8.599010668965     0.523950215603     0.441188086379    12.000000000000
         C            8.591741308375    -0.833504518258     0.442924466640    12.000000000000
         C            7.364858584664    -1.578986316670     0.442694289948    12.000000000000
         H           -9.528310151544     1.168193798128     0.439497783785     1.007825032230
         H            9.541406794881     1.065918837380     0.440136054118     1.007825032230
         C           -7.369842089494    -2.888198796998     0.445325763960    12.000000000000
         C           -4.924603288776    -2.917090908405     0.437594131524    12.000000000000
         C           -6.166626675393    -3.625305843890     0.443895971683    12.000000000000
         C           -3.702514539430    -3.633335200185     0.447918200710    12.000000000000
         C           -2.467651164839    -2.929979613868     0.435873562353    12.000000000000
         C           -0.015137653833    -2.941795296464     0.436155150862    12.000000000000
         C           -1.247126020952    -3.643385826627     0.447719104270    12.000000000000
         C            1.209240889918    -3.656568329708     0.450258134061    12.000000000000
         C            2.437331842429    -2.956295389240     0.436118375751    12.000000000000
         C            4.894298164045    -2.969776619350     0.436939115822    12.000000000000
         C            3.664611075316    -3.672873496596     0.449818535762    12.000000000000
         C            6.128634835020    -3.691237708782     0.443164377720    12.000000000000
         C            7.339668484970    -2.967066958435     0.444679603802    12.000000000000
         H           -9.541453290984    -1.283217117729     0.444460251505     1.007825032230
         H            9.528257688346    -1.385572724969     0.444174274401     1.007825032230
         H           -8.315169223574    -3.426803504277     0.449497992491     1.007825032230
         H            8.279150962767    -3.515794440958     0.449019159784     1.007825032230
         C           -6.144998368428    -5.036300923848     0.445221969743    12.000000000000
         C           -3.706787527723    -5.049915365182     0.435401001655    12.000000000000
         C           -4.955594237727    -5.752147624559     0.443368136300    12.000000000000
         C           -2.486125505952    -5.763439225474     0.448340672700    12.000000000000
         C           -1.254062515205    -5.064775701066     0.437165066714    12.000000000000
         C            1.201008394143    -5.077934039257     0.438346190972    12.000000000000
         C           -0.030340854139    -5.778173954203     0.446189390635    12.000000000000
         C            3.653745921603    -5.089397426479     0.439104190720    12.000000000000
         C            2.425488516150    -5.789828286592     0.448481121272    12.000000000000
         C            6.091961438086    -5.101911614451     0.445458604393    12.000000000000
         C            4.894972264885    -5.805002072022     0.444222408563    12.000000000000
         H           -7.089896567766    -5.575653493303     0.449624731424     1.007825032230
         H            7.031051029475    -5.651312187397     0.449038384157     1.007825032230
         C           -4.923549501924    -7.187474750742     0.442813367395    12.000000000000
         C           -2.485346267963    -7.196381728994     0.440303474959    12.000000000000
         C           -3.751690071504    -7.872600808701     0.440498153884    12.000000000000
         C           -0.037953136713    -7.208118525534     0.440519200107    12.000000000000
         C           -1.277960280127    -7.881558035731     0.438534507345    12.000000000000
         C            2.409440141001    -7.222675663067     0.441382400918    12.000000000000
         C            1.194745757428    -7.894839016627     0.439230110036    12.000000000000
         C            4.847616872773    -7.239915761644     0.443889215577    12.000000000000
         C            3.668467426150    -7.912441644008     0.441540781213    12.000000000000
         H           -5.869944530142    -7.722484249106     0.444357404260     1.007825032230
         H            5.788245445663    -7.784985840379     0.445016335059     1.007825032230
         H           -3.753531119175    -8.959725220301     0.438662239455     1.007825032230
         H           -1.284308585620    -8.969529043562     0.434107123487     1.007825032230
         H            1.189217394970    -8.982814271654     0.435137473346     1.007825032230
         H            3.658542435098    -8.999514285118     0.439886239791     1.007825032230

  Running in c1 symmetry.

  Rotational constants: A =      0.00062  B =      0.00062  C =      0.00035 [cm^-1]
  Rotational constants: A =     18.59847  B =     18.57895  C =     10.47373 [MHz]
  Nuclear repulsion = 17926.184256825763441

  Charge       = 1
  Multiplicity = 1
  Electrons    = 652
  Nalpha       = 326
  Nbeta        = 326

  ==> Algorithm <==

  SCF Algorithm Type is DF.
  DIIS enabled.
  MOM disabled.
  Fractional occupation disabled.
  Guess Type is SAD.
  Energy threshold   = 1.00e-08
  Density threshold  = 1.00e-08
  Integral threshold = 1.00e-12

  ==> Primary Basis <==

  Basis Set: JUN-CC-PVDZ
    Blend: JUN-CC-PVDZ
    Number of shells: 923
    Number of basis functions: 2019
    Number of Cartesian functions: 2122
    Spherical Harmonics?: true
    Max angular momentum: 2

   => Loading Basis Set <=

    Name: (JUN-CC-PVDZ AUX)
    Role: JKFIT
    Keyword: DF_BASIS_SCF
    atoms 1-2, 4-5, 10, 17-34, 41-53, 56-70, 73-89, 92-104, 109-119, 122-130 entry C          line   146 file /opt/software/pc2/EB-SW/software/PSI4/1.9-foss-2022a/share/psi4/basis/jun-cc-pvdz-jkfit.gbs 
    atoms 3, 6                                                               entry N          line   202 file /opt/software/pc2/EB-SW/software/PSI4/1.9-foss-2022a/share/psi4/basis/jun-cc-pvdz-jkfit.gbs 
    atoms 7-9, 11-16, 35-40, 54-55, 71-72, 90-91, 105-108, 120-121, 131-136  entry H          line    70 file /opt/software/pc2/EB-SW/software/PSI4/1.9-foss-2022a/share/psi4/basis/jun-cc-pvdz-jkfit.gbs 

  ==> Integral Setup <==

  ==> DiskDFJK: Density-Fitted J/K Matrices <==

    J tasked:                  Yes
    K tasked:                  Yes
    wK tasked:                  No
    OpenMP threads:             16
    Integrals threads:          16
    Memory [MiB]:            45776
    Algorithm:                Disk
    Integral Cache:           SAVE
    Schwarz Cutoff:          1E-12
    Fitting Condition:       1E-10

   => Auxiliary Basis Set <=

  Basis Set: (JUN-CC-PVDZ AUX)
    Blend: JUN-CC-PVDZ-JKFIT
    Number of shells: 3078
    Number of basis functions: 8896
    Number of Cartesian functions: 10198
    Spherical Harmonics?: true
    Max angular momentum: 3

  Minimum eigenvalue in the overlap matrix is 8.7706670172E-11.
  Reciprocal condition number of the overlap matrix is 3.8066702482E-12.
    Using canonical orthogonalization.
  Overall, 38 of 2019 possible MOs eliminated.


  ==> Pre-Iterations <==

  SCF Guess: Superposition of Atomic Densities via on-the-fly atomic UHF (no occupation information).

   -------------------------
    Irrep   Nso     Nmo    
   -------------------------
     A       2019    1981 
   -------------------------
    Total    2019    1981
   -------------------------

  ==> Iterations <==

                           Total Energy        Delta E     RMS |[F,P]|

   @DF-RHF iter SAD: -3967.15105036231989   -3.96715e+03   0.00000e+00 
   @DF-RHF iter   1: -3952.11254916172811    1.50385e+01   7.15548e-04 ADIIS/DIIS
   @DF-RHF iter   2: -3953.50109247431874   -1.38854e+00   2.35434e-04 ADIIS/DIIS
   @DF-RHF iter   3: -3953.62377566522991   -1.22683e-01   1.05520e-04 ADIIS/DIIS
   @DF-RHF iter   4: -3953.64783457812882   -2.40589e-02   4.50599e-05 DIIS
   @DF-RHF iter   5: -3953.65303559662425   -5.20102e-03   1.10686e-05 DIIS
   @DF-RHF iter   6: -3953.65351917521275   -4.83579e-04   4.63417e-06 DIIS
   @DF-RHF iter   7: -3953.65370881299850   -1.89638e-04   2.21697e-06 DIIS
   @DF-RHF iter   8: -3953.65377216532124   -6.33523e-05   1.10260e-06 DIIS
   @DF-RHF iter   9: -3953.65378978126273   -1.76159e-05   3.56070e-07 DIIS
   @DF-RHF iter  10: -3953.65379097300956   -1.19175e-06   1.44968e-07 DIIS
   @DF-RHF iter  11: -3953.65379112255005   -1.49540e-07   5.90526e-08 DIIS
   @DF-RHF iter  12: -3953.65379115504129   -3.24912e-08   2.94751e-08 DIIS
   @DF-RHF iter  13: -3953.65379116147915   -6.43786e-09   9.62282e-09 DIIS
  Energy and wave function converged.


  ==> Post-Iterations <==

    Orbital Energies [Eh]
    ---------------------

    Doubly Occupied:                                                      

       1A    -15.812127     2A    -15.811625     3A    -11.506443  
       4A    -11.439600     5A    -11.438043     6A    -11.426712  
       7A    -11.426642     8A    -11.330276     9A    -11.329048  
      10A    -11.328971    11A    -11.328540    12A    -11.327907  
      13A    -11.327796    14A    -11.327251    15A    -11.327195  
      16A    -11.327030    17A    -11.326839    18A    -11.326316  
      19A    -11.326201    20A    -11.325784    21A    -11.325542  
      22A    -11.325441    23A    -11.325060    24A    -11.325002  
      25A    -11.324104    26A    -11.324073    27A    -11.324025  
      28A    -11.323961    29A    -11.323789    30A    -11.323485  
      31A    -11.323477    32A    -11.322774    33A    -11.322611  
      34A    -11.322421    35A    -11.322407    36A    -11.321743  
      37A    -11.321591    38A    -11.321571    39A    -11.321234  
      40A    -11.321229    41A    -11.320877    42A    -11.320849  
      43A    -11.320820    44A    -11.320790    45A    -11.320523  
      46A    -11.320405    47A    -11.320369    48A    -11.319787  
      49A    -11.319760    50A    -11.319667    51A    -11.319650  
      52A    -11.319539    53A    -11.319504    54A    -11.319446  
      55A    -11.319423    56A    -11.319321    57A    -11.319294  
      58A    -11.318723    59A    -11.318630    60A    -11.318598  
      61A    -11.318541    62A    -11.318148    63A    -11.318117  
      64A    -11.318097    65A    -11.318065    66A    -11.317044  
      67A    -11.317023    68A    -11.317019    69A    -11.316982  
      70A    -11.316868    71A    -11.316844    72A    -11.316726  
      73A    -11.316162    74A    -11.316139    75A    -11.315592  
      76A    -11.315569    77A    -11.315460    78A    -11.314952  
      79A    -11.314945    80A    -11.312290    81A    -11.312213  
      82A    -11.312153    83A    -11.312121    84A    -11.310947  
      85A    -11.310896    86A    -11.310614    87A    -11.310576  
      88A    -11.310099    89A    -11.310079    90A    -11.309136  
      91A    -11.309098    92A    -11.308815    93A    -11.308775  
      94A    -11.308522    95A    -11.308511    96A    -11.308153  
      97A    -11.308070    98A    -11.307247    99A    -11.307208  
     100A    -11.306248   101A    -11.306240   102A    -11.304750  
     103A    -11.304745   104A     -1.556067   105A     -1.411486  
     106A     -1.316931   107A     -1.299890   108A     -1.299517  
     109A     -1.279886   110A     -1.279875   111A     -1.276452  
     112A     -1.259361   113A     -1.254503   114A     -1.248818  
     115A     -1.248589   116A     -1.231778   117A     -1.231771  
     118A     -1.217007   119A     -1.215733   120A     -1.215692  
     121A     -1.213102   122A     -1.202387   123A     -1.202363  
     124A     -1.187609   125A     -1.174669   126A     -1.172713  
     127A     -1.172492   128A     -1.170709   129A     -1.168935  
     130A     -1.166753   131A     -1.147314   132A     -1.147258  
     133A     -1.134364   134A     -1.134351   135A     -1.127137  
     136A     -1.127052   137A     -1.124914   138A     -1.105233  
     139A     -1.105194   140A     -1.098970   141A     -1.096305  
     142A     -1.096102   143A     -1.096095   144A     -1.085393  
     145A     -1.082517   146A     -1.082403   147A     -1.065957  
     148A     -1.065031   149A     -1.061994   150A     -1.059815  
     151A     -1.059781   152A     -1.048028   153A     -1.029898  
     154A     -1.029842   155A     -1.013608   156A     -1.013569  
     157A     -1.000913   158A     -0.974444   159A     -0.966404  
     160A     -0.966279   161A     -0.965529   162A     -0.962386  
     163A     -0.962349   164A     -0.952904   165A     -0.952889  
     166A     -0.950454   167A     -0.949992   168A     -0.948338  
     169A     -0.929578   170A     -0.925064   171A     -0.909655  
     172A     -0.907644   173A     -0.907353   174A     -0.905080  
     175A     -0.902003   176A     -0.894642   177A     -0.892745  
     178A     -0.892692   179A     -0.884956   180A     -0.884938  
     181A     -0.844288   182A     -0.844157   183A     -0.842160  
     184A     -0.841193   185A     -0.840837   186A     -0.840271  
     187A     -0.839931   188A     -0.828300   189A     -0.825690  
     190A     -0.820973   191A     -0.809660   192A     -0.794884  
     193A     -0.790711   194A     -0.789830   195A     -0.785647  
     196A     -0.785444   197A     -0.783717   198A     -0.783073  
     199A     -0.782940   200A     -0.778029   201A     -0.773002  
     202A     -0.772979   203A     -0.768350   204A     -0.763862  
     205A     -0.760876   206A     -0.757188   207A     -0.757184  
     208A     -0.745565   209A     -0.743624   210A     -0.743596  
     211A     -0.740216   212A     -0.740208   213A     -0.737188  
     214A     -0.711013   215A     -0.709483   216A     -0.709455  
     217A     -0.708501   218A     -0.708384   219A     -0.706853  
     220A     -0.706579   221A     -0.702788   222A     -0.700128  
     223A     -0.700014   224A     -0.697914   225A     -0.696802  
     226A     -0.694876   227A     -0.694627   228A     -0.694601  
     229A     -0.687345   230A     -0.681689   231A     -0.672314  
     232A     -0.672286   233A     -0.666750   234A     -0.666705  
     235A     -0.660427   236A     -0.659892   237A     -0.658141  
     238A     -0.657987   239A     -0.657745   240A     -0.656963  
     241A     -0.653041   242A     -0.652853   243A     -0.652768  
     244A     -0.652657   245A     -0.649408   246A     -0.649355  
     247A     -0.647269   248A     -0.635163   249A     -0.635153  
     250A     -0.633963   251A     -0.633952   252A     -0.631294  
     253A     -0.631187   254A     -0.627594   255A     -0.627477  
     256A     -0.624381   257A     -0.624205   258A     -0.617211  
     259A     -0.617175   260A     -0.616933   261A     -0.614901  
     262A     -0.612490   263A     -0.608726   264A     -0.603270  
     265A     -0.603088   266A     -0.596170   267A     -0.595861  
     268A     -0.591366   269A     -0.591204   270A     -0.587322  
     271A     -0.585478   272A     -0.585444   273A     -0.575506  
     274A     -0.575375   275A     -0.574424   276A     -0.573114  
     277A     -0.573100   278A     -0.566740   279A     -0.566643  
     280A     -0.555991   281A     -0.554713   282A     -0.554663  
     283A     -0.554077   284A     -0.554041   285A     -0.550339  
     286A     -0.538531   287A     -0.534732   288A     -0.534703  
     289A     -0.531637   290A     -0.528585   291A     -0.524952  
     292A     -0.524815   293A     -0.517850   294A     -0.506810  
     295A     -0.506646   296A     -0.503005   297A     -0.501407  
     298A     -0.501259   299A     -0.501038   300A     -0.491556  
     301A     -0.491057   302A     -0.466330   303A     -0.466263  
     304A     -0.446340   305A     -0.446246   306A     -0.444145  
     307A     -0.442585   308A     -0.442518   309A     -0.412834  
     310A     -0.412779   311A     -0.409326   312A     -0.400131  
     313A     -0.398237   314A     -0.398114   315A     -0.389544  
     316A     -0.389462   317A     -0.367132   318A     -0.362132  
     319A     -0.362077   320A     -0.358788   321A     -0.344066  
     322A     -0.313330   323A     -0.313283   324A     -0.312290  
     325A     -0.262482   326A     -0.262367  

    Virtual:                                                              

     327A     -0.069805   328A     -0.069640   329A     -0.045944  
     330A     -0.043824   331A     -0.036424   332A     -0.025824  
     333A     -0.024791   334A     -0.024707   335A     -0.015963  
     336A     -0.014754   337A     -0.012273   338A     -0.009164  
     339A     -0.003108   340A     -0.000473   341A      0.000935  
     342A      0.002118   343A      0.003078   344A      0.004302  
     345A      0.007191   346A      0.007445   347A      0.009559  
     348A      0.010291   349A      0.010435   350A      0.010556  
     351A      0.013525   352A      0.013961   353A      0.014885  
     354A      0.017145   355A      0.017162   356A      0.018810  
     357A      0.020130   358A      0.020811   359A      0.021593  
     360A      0.023574   361A      0.025019   362A      0.026416  
     363A      0.028489   364A      0.028545   365A      0.031078  
     366A      0.032694   367A      0.037736   368A      0.038377  
     369A      0.038552   370A      0.038624   371A      0.041722  
     372A      0.042942   373A      0.043225   374A      0.046001  
     375A      0.048728   376A      0.048978   377A      0.050426  
     378A      0.051416   379A      0.052854   380A      0.054480  
     381A      0.055406   382A      0.055929   383A      0.056811  
     384A      0.057597   385A      0.058401   386A      0.058565  
     387A      0.059237   388A      0.059622   389A      0.060012  
     390A      0.064472   391A      0.066041   392A      0.066865  
     393A      0.069003   394A      0.070240   395A      0.071181  
     396A      0.071934   397A      0.075765   398A      0.075824  
     399A      0.080116   400A      0.080309   401A      0.082678  
     402A      0.083039   403A      0.083755   404A      0.084965  
     405A      0.086211   406A      0.087824   407A      0.088917  
     408A      0.089748   409A      0.090528   410A      0.091085  
     411A      0.092851   412A      0.094507   413A      0.094550  
     414A      0.097422   415A      0.097955   416A      0.100954  
     417A      0.102260   418A      0.105998   419A      0.106876  
     420A      0.109077   421A      0.109192   422A      0.109562  
     423A      0.110379   424A      0.111150   425A      0.111855  
     426A      0.112620   427A      0.114541   428A      0.115017  
     429A      0.115533   430A      0.117366   431A      0.118579  
     432A      0.118714   433A      0.121508   434A      0.122338  
     435A      0.123145   436A      0.127255   437A      0.127429  
     438A      0.128763   439A      0.130208   440A      0.130666  
     441A      0.133080   442A      0.134091   443A      0.135640  
     444A      0.135700   445A      0.139015   446A      0.139070  
     447A      0.139755   448A      0.143347   449A      0.145488  
     450A      0.147498   451A      0.148787   452A      0.149490  
     453A      0.149692   454A      0.150233   455A      0.150514  
     456A      0.151633   457A      0.152319   458A      0.153271  
     459A      0.153702   460A      0.154453   461A      0.154670  
     462A      0.156027   463A      0.156670   464A      0.157226  
     465A      0.158023   466A      0.159389   467A      0.160445  
     468A      0.161100   469A      0.161849   470A      0.162139  
     471A      0.164112   472A      0.165097   473A      0.166618  
     474A      0.168914   475A      0.169140   476A      0.169372  
     477A      0.169817   478A      0.170558   479A      0.171217  
     480A      0.171269   481A      0.173520   482A      0.173906  
     483A      0.175616   484A      0.176931   485A      0.177382  
     486A      0.177945   487A      0.178513   488A      0.179006  
     489A      0.181191   490A      0.183336   491A      0.184009  
     492A      0.184231   493A      0.185338   494A      0.186894  
     495A      0.187810   496A      0.189241   497A      0.189947  
     498A      0.190829   499A      0.191817   500A      0.193927  
     501A      0.195315   502A      0.195419   503A      0.196405  
     504A      0.197208   505A      0.198131   506A      0.199174  
     507A      0.201676   508A      0.202224   509A      0.202426  
     510A      0.205860   511A      0.206702   512A      0.206939  
     513A      0.208579   514A      0.209004   515A      0.211237  
     516A      0.211825   517A      0.212054   518A      0.213623  
     519A      0.215583   520A      0.215904   521A      0.216011  
     522A      0.217251   523A      0.217724   524A      0.218570  
     525A      0.222831   526A      0.223356   527A      0.223695  
     528A      0.224088   529A      0.224750   530A      0.226466  
     531A      0.227371   532A      0.228565   533A      0.229540  
     534A      0.229936   535A      0.231492   536A      0.232632  
     537A      0.233453   538A      0.234004   539A      0.235012  
     540A      0.235290   541A      0.238426   542A      0.239166  
     543A      0.239691   544A      0.240511   545A      0.241265  
     546A      0.242951   547A      0.243910   548A      0.245497  
     549A      0.246133   550A      0.248796   551A      0.249048  
     552A      0.249849   553A      0.251356   554A      0.251619  
     555A      0.251892   556A      0.252654   557A      0.253281  
     558A      0.254082   559A      0.255452   560A      0.256188  
     561A      0.257779   562A      0.259696   563A      0.260343  
     564A      0.261755   565A      0.262515   566A      0.263473  
     567A      0.264766   568A      0.266056   569A      0.266164  
     570A      0.266271   571A      0.266815   572A      0.267241  
     573A      0.268707   574A      0.269270   575A      0.270112  
     576A      0.270873   577A      0.272316   578A      0.273417  
     579A      0.274896   580A      0.276106   581A      0.277705  
     582A      0.277720   583A      0.277829   584A      0.278817  
     585A      0.279463   586A      0.280747   587A      0.281617  
     588A      0.282136   589A      0.284119   590A      0.284771  
     591A      0.287222   592A      0.288231   593A      0.288797  
     594A      0.288926   595A      0.290437   596A      0.291241  
     597A      0.292389   598A      0.292941   599A      0.293174  
     600A      0.293837   601A      0.294058   602A      0.296339  
     603A      0.297099   604A      0.297252   605A      0.298424  
     606A      0.300766   607A      0.302290   608A      0.302481  
     609A      0.303529   610A      0.304512   611A      0.306534  
     612A      0.306998   613A      0.307564   614A      0.309853  
     615A      0.311114   616A      0.311200   617A      0.312653  
     618A      0.313300   619A      0.313697   620A      0.315223  
     621A      0.315420   622A      0.316227   623A      0.319826  
     624A      0.322020   625A      0.323173   626A      0.323857  
     627A      0.324519   628A      0.325033   629A      0.326775  
     630A      0.327338   631A      0.327814   632A      0.328068  
     633A      0.329688   634A      0.330290   635A      0.330947  
     636A      0.332432   637A      0.333242   638A      0.335483  
     639A      0.336613   640A      0.337586   641A      0.338602  
     642A      0.338745   643A      0.339721   644A      0.340239  
     645A      0.341353   646A      0.341472   647A      0.342124  
     648A      0.342868   649A      0.343535   650A      0.344374  
     651A      0.345194   652A      0.345864   653A      0.347182  
     654A      0.347868   655A      0.348570   656A      0.348698  
     657A      0.349634   658A      0.349727   659A      0.351061  
     660A      0.352112   661A      0.352791   662A      0.353283  
     663A      0.353605   664A      0.354780   665A      0.355267  
     666A      0.356756   667A      0.357401   668A      0.358932  
     669A      0.359777   670A      0.360570   671A      0.360646  
     672A      0.361386   673A      0.362182   674A      0.363898  
     675A      0.364198   676A      0.366302   677A      0.367314  
     678A      0.367904   679A      0.369258   680A      0.370987  
     681A      0.373637   682A      0.373845   683A      0.374166  
     684A      0.374652   685A      0.375405   686A      0.375990  
     687A      0.376192   688A      0.377540   689A      0.379772  
     690A      0.379998   691A      0.381407   692A      0.382223  
     693A      0.382787   694A      0.383399   695A      0.384430  
     696A      0.386261   697A      0.389185   698A      0.390997  
     699A      0.393595   700A      0.394016   701A      0.395124  
     702A      0.395896   703A      0.396842   704A      0.398304  
     705A      0.398483   706A      0.399134   707A      0.399473  
     708A      0.399913   709A      0.400606   710A      0.401248  
     711A      0.401599   712A      0.403250   713A      0.405734  
     714A      0.407089   715A      0.408330   716A      0.408391  
     717A      0.409011   718A      0.409732   719A      0.410306  
     720A      0.410861   721A      0.412621   722A      0.413572  
     723A      0.414939   724A      0.414952   725A      0.416356  
     726A      0.417749   727A      0.418287   728A      0.418642  
     729A      0.419332   730A      0.420138   731A      0.420364  
     732A      0.421615   733A      0.422938   734A      0.423744  
     735A      0.425142   736A      0.427570   737A      0.429416  
     738A      0.430407   739A      0.431143   740A      0.432370  
     741A      0.432820   742A      0.434620   743A      0.435588  
     744A      0.436918   745A      0.438842   746A      0.439146  
     747A      0.440650   748A      0.441662   749A      0.442340  
     750A      0.445665   751A      0.445852   752A      0.447192  
     753A      0.448112   754A      0.449106   755A      0.449735  
     756A      0.451427   757A      0.452061   758A      0.452917  
     759A      0.454690   760A      0.455731   761A      0.458031  
     762A      0.459254   763A      0.460292   764A      0.460576  
     765A      0.462083   766A      0.463291   767A      0.464019  
     768A      0.464757   769A      0.466756   770A      0.468313  
     771A      0.469454   772A      0.471523   773A      0.475034  
     774A      0.475418   775A      0.475762   776A      0.477484  
     777A      0.478078   778A      0.482100   779A      0.483156  
     780A      0.484266   781A      0.484677   782A      0.484880  
     783A      0.490234   784A      0.490992   785A      0.496933  
     786A      0.497481   787A      0.500849   788A      0.502808  
     789A      0.503877   790A      0.505426   791A      0.506634  
     792A      0.508514   793A      0.508737   794A      0.510503  
     795A      0.511586   796A      0.513107   797A      0.513576  
     798A      0.515466   799A      0.515899   800A      0.517557  
     801A      0.519048   802A      0.519760   803A      0.521336  
     804A      0.522008   805A      0.523516   806A      0.524763  
     807A      0.526107   808A      0.527508   809A      0.528847  
     810A      0.530736   811A      0.532823   812A      0.533383  
     813A      0.534570   814A      0.534947   815A      0.535046  
     816A      0.539249   817A      0.540354   818A      0.541493  
     819A      0.543539   820A      0.546039   821A      0.546114  
     822A      0.547800   823A      0.548757   824A      0.549192  
     825A      0.556693   826A      0.558966   827A      0.561304  
     828A      0.562656   829A      0.563668   830A      0.564607  
     831A      0.570164   832A      0.571861   833A      0.573561  
     834A      0.574096   835A      0.577366   836A      0.582152  
     837A      0.583803   838A      0.588528   839A      0.590852  
     840A      0.594715   841A      0.598153   842A      0.598813  
     843A      0.600056   844A      0.602405   845A      0.602939  
     846A      0.603110   847A      0.608206   848A      0.608545  
     849A      0.608953   850A      0.613504   851A      0.622448  
     852A      0.626184   853A      0.627653   854A      0.628080  
     855A      0.629185   856A      0.632229   857A      0.633187  
     858A      0.633923   859A      0.634391   860A      0.637521  
     861A      0.641214   862A      0.642448   863A      0.642832  
     864A      0.642902   865A      0.646572   866A      0.648635  
     867A      0.649574   868A      0.654306   869A      0.662432  
     870A      0.664541   871A      0.670207   872A      0.673424  
     873A      0.675345   874A      0.676719   875A      0.683164  
     876A      0.683559   877A      0.685020   878A      0.685927  
     879A      0.687053   880A      0.688003   881A      0.690107  
     882A      0.692324   883A      0.692748   884A      0.696809  
     885A      0.704208   886A      0.707201   887A      0.714412  
     888A      0.720885   889A      0.724560   890A      0.727822  
     891A      0.729849   892A      0.731211   893A      0.732296  
     894A      0.733403   895A      0.735767   896A      0.736809  
     897A      0.737040   898A      0.742282   899A      0.744072  
     900A      0.745955   901A      0.747491   902A      0.749374  
     903A      0.749992   904A      0.753478   905A      0.754800  
     906A      0.756627   907A      0.757992   908A      0.758805  
     909A      0.760325   910A      0.762552   911A      0.764122  
     912A      0.764535   913A      0.767121   914A      0.768466  
     915A      0.771747   916A      0.771991   917A      0.773235  
     918A      0.776361   919A      0.777682   920A      0.778742  
     921A      0.779988   922A      0.783178   923A      0.785298  
     924A      0.788450   925A      0.790231   926A      0.791426  
     927A      0.791723   928A      0.794104   929A      0.796308  
     930A      0.797632   931A      0.800353   932A      0.801667  
     933A      0.803687   934A      0.804874   935A      0.806934  
     936A      0.808954   937A      0.810415   938A      0.812889  
     939A      0.813264   940A      0.816447   941A      0.817226  
     942A      0.818345   943A      0.819014   944A      0.819802  
     945A      0.820994   946A      0.822699   947A      0.823310  
     948A      0.824481   949A      0.826497   950A      0.829674  
     951A      0.830084   952A      0.832278   953A      0.833055  
     954A      0.833341   955A      0.834830   956A      0.836183  
     957A      0.837408   958A      0.838763   959A      0.839594  
     960A      0.842056   961A      0.844681   962A      0.845115  
     963A      0.849091   964A      0.851204   965A      0.851297  
     966A      0.855972   967A      0.857138   968A      0.858940  
     969A      0.861073   970A      0.862978   971A      0.863989  
     972A      0.864615   973A      0.865804   974A      0.866620  
     975A      0.866768   976A      0.867597   977A      0.869985  
     978A      0.871115   979A      0.874219   980A      0.874991  
     981A      0.876295   982A      0.877469   983A      0.877631  
     984A      0.878557   985A      0.879836   986A      0.882121  
     987A      0.887810   988A      0.889421   989A      0.891463  
     990A      0.892072   991A      0.893319   992A      0.894466  
     993A      0.895015   994A      0.897071   995A      0.897211  
     996A      0.897348   997A      0.897602   998A      0.900183  
     999A      0.901013  1000A      0.901548  1001A      0.901983  
    1002A      0.904695  1003A      0.909284  1004A      0.909898  
    1005A      0.910771  1006A      0.912864  1007A      0.914828  
    1008A      0.916183  1009A      0.918905  1010A      0.922365  
    1011A      0.926480  1012A      0.928210  1013A      0.929264  
    1014A      0.931487  1015A      0.934631  1016A      0.936750  
    1017A      0.937432  1018A      0.938798  1019A      0.939264  
    1020A      0.945589  1021A      0.946242  1022A      0.946746  
    1023A      0.948502  1024A      0.949302  1025A      0.950529  
    1026A      0.951117  1027A      0.953977  1028A      0.955874  
    1029A      0.956627  1030A      0.959514  1031A      0.960090  
    1032A      0.962096  1033A      0.963906  1034A      0.965722  
    1035A      0.966513  1036A      0.966668  1037A      0.970203  
    1038A      0.972416  1039A      0.974215  1040A      0.975283  
    1041A      0.977171  1042A      0.980598  1043A      0.981021  
    1044A      0.985097  1045A      0.986104  1046A      0.988414  
    1047A      0.988552  1048A      0.990102  1049A      0.990506  
    1050A      0.991045  1051A      0.991918  1052A      0.993311  
    1053A      0.994240  1054A      0.995062  1055A      0.995782  
    1056A      0.997683  1057A      0.998405  1058A      0.999413  
    1059A      1.000753  1060A      1.004292  1061A      1.005351  
    1062A      1.005823  1063A      1.007522  1064A      1.008140  
    1065A      1.008870  1066A      1.009936  1067A      1.010873  
    1068A      1.011795  1069A      1.013009  1070A      1.013842  
    1071A      1.013921  1072A      1.014953  1073A      1.015309  
    1074A      1.016148  1075A      1.017058  1076A      1.017527  
    1077A      1.018026  1078A      1.018698  1079A      1.019489  
    1080A      1.020120  1081A      1.020570  1082A      1.020657  
    1083A      1.021939  1084A      1.023641  1085A      1.024468  
    1086A      1.025423  1087A      1.027081  1088A      1.027584  
    1089A      1.028323  1090A      1.029419  1091A      1.030318  
    1092A      1.031705  1093A      1.032196  1094A      1.033505  
    1095A      1.033863  1096A      1.034485  1097A      1.034701  
    1098A      1.036165  1099A      1.038349  1100A      1.039988  
    1101A      1.040960  1102A      1.041966  1103A      1.043344  
    1104A      1.044211  1105A      1.045834  1106A      1.046609  
    1107A      1.046898  1108A      1.048544  1109A      1.050676  
    1110A      1.053304  1111A      1.054570  1112A      1.056690  
    1113A      1.057415  1114A      1.058286  1115A      1.060925  
    1116A      1.062528  1117A      1.064261  1118A      1.065403  
    1119A      1.066941  1120A      1.068079  1121A      1.071084  
    1122A      1.073776  1123A      1.075648  1124A      1.075959  
    1125A      1.076391  1126A      1.078663  1127A      1.079586  
    1128A      1.080956  1129A      1.083222  1130A      1.084959  
    1131A      1.086658  1132A      1.087552  1133A      1.089998  
    1134A      1.090358  1135A      1.091000  1136A      1.091870  
    1137A      1.093777  1138A      1.093955  1139A      1.095082  
    1140A      1.099540  1141A      1.099956  1142A      1.100839  
    1143A      1.104683  1144A      1.105956  1145A      1.109420  
    1146A      1.110874  1147A      1.112014  1148A      1.115093  
    1149A      1.118648  1150A      1.120508  1151A      1.122311  
    1152A      1.125716  1153A      1.126985  1154A      1.127720  
    1155A      1.128871  1156A      1.131302  1157A      1.134074  
    1158A      1.136392  1159A      1.136964  1160A      1.143702  
    1161A      1.144420  1162A      1.145224  1163A      1.145904  
    1164A      1.148850  1165A      1.149231  1166A      1.150809  
    1167A      1.152213  1168A      1.155409  1169A      1.157866  
    1170A      1.158873  1171A      1.161154  1172A      1.162243  
    1173A      1.164070  1174A      1.166599  1175A      1.168027  
    1176A      1.169406  1177A      1.171209  1178A      1.172395  
    1179A      1.175949  1180A      1.176860  1181A      1.178571  
    1182A      1.186753  1183A      1.188762  1184A      1.189944  
    1185A      1.192136  1186A      1.195097  1187A      1.195764  
    1188A      1.197639  1189A      1.203590  1190A      1.205118  
    1191A      1.206162  1192A      1.206751  1193A      1.207699  
    1194A      1.212877  1195A      1.214973  1196A      1.217626  
    1197A      1.219037  1198A      1.221628  1199A      1.229105  
    1200A      1.229997  1201A      1.233180  1202A      1.234419  
    1203A      1.236285  1204A      1.237261  1205A      1.237984  
    1206A      1.240931  1207A      1.242224  1208A      1.245921  
    1209A      1.247617  1210A      1.249627  1211A      1.250104  
    1212A      1.251018  1213A      1.254313  1214A      1.256841  
    1215A      1.257177  1216A      1.258613  1217A      1.262624  
    1218A      1.263036  1219A      1.263668  1220A      1.264742  
    1221A      1.265183  1222A      1.269966  1223A      1.270883  
    1224A      1.272137  1225A      1.274724  1226A      1.275868  
    1227A      1.276638  1228A      1.280143  1229A      1.282346  
    1230A      1.282595  1231A      1.283127  1232A      1.286227  
    1233A      1.290604  1234A      1.293065  1235A      1.295041  
    1236A      1.297644  1237A      1.297770  1238A      1.301790  
    1239A      1.303280  1240A      1.305579  1241A      1.307512  
    1242A      1.307659  1243A      1.312967  1244A      1.314196  
    1245A      1.315335  1246A      1.317290  1247A      1.317975  
    1248A      1.320411  1249A      1.328864  1250A      1.330224  
    1251A      1.333469  1252A      1.337682  1253A      1.338087  
    1254A      1.339137  1255A      1.339748  1256A      1.344186  
    1257A      1.346895  1258A      1.350131  1259A      1.350797  
    1260A      1.352615  1261A      1.354577  1262A      1.354797  
    1263A      1.356010  1264A      1.357105  1265A      1.357985  
    1266A      1.361883  1267A      1.364135  1268A      1.366071  
    1269A      1.367244  1270A      1.368545  1271A      1.370525  
    1272A      1.371003  1273A      1.371399  1274A      1.372044  
    1275A      1.375033  1276A      1.379257  1277A      1.380055  
    1278A      1.380846  1279A      1.381891  1280A      1.382823  
    1281A      1.384735  1282A      1.387487  1283A      1.389404  
    1284A      1.389704  1285A      1.390731  1286A      1.394623  
    1287A      1.396406  1288A      1.397680  1289A      1.399337  
    1290A      1.401159  1291A      1.405022  1292A      1.409046  
    1293A      1.411070  1294A      1.413168  1295A      1.414038  
    1296A      1.416332  1297A      1.418635  1298A      1.422771  
    1299A      1.424513  1300A      1.427411  1301A      1.428178  
    1302A      1.432447  1303A      1.434167  1304A      1.437376  
    1305A      1.437643  1306A      1.438440  1307A      1.445556  
    1308A      1.447815  1309A      1.448815  1310A      1.456019  
    1311A      1.460258  1312A      1.461767  1313A      1.468023  
    1314A      1.478769  1315A      1.483304  1316A      1.483438  
    1317A      1.487296  1318A      1.494252  1319A      1.494444  
    1320A      1.507300  1321A      1.510214  1322A      1.524331  
    1323A      1.531887  1324A      1.534796  1325A      1.537498  
    1326A      1.542475  1327A      1.544379  1328A      1.545290  
    1329A      1.547060  1330A      1.547601  1331A      1.548104  
    1332A      1.550155  1333A      1.552366  1334A      1.553911  
    1335A      1.554661  1336A      1.555195  1337A      1.555451  
    1338A      1.556988  1339A      1.557652  1340A      1.558707  
    1341A      1.561295  1342A      1.563681  1343A      1.564312  
    1344A      1.565137  1345A      1.566882  1346A      1.569194  
    1347A      1.569797  1348A      1.570794  1349A      1.571737  
    1350A      1.572471  1351A      1.576919  1352A      1.577475  
    1353A      1.579185  1354A      1.579547  1355A      1.580145  
    1356A      1.580632  1357A      1.580999  1358A      1.582381  
    1359A      1.583384  1360A      1.585870  1361A      1.587315  
    1362A      1.591529  1363A      1.592340  1364A      1.594511  
    1365A      1.594985  1366A      1.596750  1367A      1.598836  
    1368A      1.599010  1369A      1.601294  1370A      1.606030  
    1371A      1.606789  1372A      1.608976  1373A      1.609191  
    1374A      1.609751  1375A      1.610826  1376A      1.611009  
    1377A      1.612161  1378A      1.618613  1379A      1.619447  
    1380A      1.619652  1381A      1.620622  1382A      1.630122  
    1383A      1.630985  1384A      1.634852  1385A      1.637103  
    1386A      1.637539  1387A      1.638471  1388A      1.639331  
    1389A      1.639929  1390A      1.642684  1391A      1.650514  
    1392A      1.651380  1393A      1.651819  1394A      1.652441  
    1395A      1.655806  1396A      1.657992  1397A      1.658456  
    1398A      1.661691  1399A      1.662496  1400A      1.663292  
    1401A      1.663675  1402A      1.666800  1403A      1.667983  
    1404A      1.680069  1405A      1.680446  1406A      1.687861  
    1407A      1.689435  1408A      1.689619  1409A      1.692501  
    1410A      1.693558  1411A      1.698706  1412A      1.703273  
    1413A      1.705606  1414A      1.707073  1415A      1.710622  
    1416A      1.721802  1417A      1.722947  1418A      1.728652  
    1419A      1.730970  1420A      1.731774  1421A      1.742152  
    1422A      1.742466  1423A      1.743641  1424A      1.751761  
    1425A      1.760172  1426A      1.762350  1427A      1.766061  
    1428A      1.767906  1429A      1.769395  1430A      1.770140  
    1431A      1.771105  1432A      1.772123  1433A      1.773646  
    1434A      1.775555  1435A      1.775772  1436A      1.777978  
    1437A      1.778294  1438A      1.779392  1439A      1.780870  
    1440A      1.784634  1441A      1.786215  1442A      1.788800  
    1443A      1.795707  1444A      1.796685  1445A      1.800034  
    1446A      1.800948  1447A      1.802218  1448A      1.802994  
    1449A      1.804332  1450A      1.804511  1451A      1.809443  
    1452A      1.810037  1453A      1.813902  1454A      1.815196  
    1455A      1.817041  1456A      1.817359  1457A      1.818296  
    1458A      1.823841  1459A      1.824677  1460A      1.825050  
    1461A      1.825651  1462A      1.826535  1463A      1.826801  
    1464A      1.827807  1465A      1.829151  1466A      1.830462  
    1467A      1.830850  1468A      1.832351  1469A      1.840380  
    1470A      1.845797  1471A      1.846203  1472A      1.847843  
    1473A      1.850043  1474A      1.850473  1475A      1.853697  
    1476A      1.855654  1477A      1.857225  1478A      1.859188  
    1479A      1.860371  1480A      1.862714  1481A      1.862917  
    1482A      1.863625  1483A      1.866014  1484A      1.866748  
    1485A      1.868445  1486A      1.874136  1487A      1.878435  
    1488A      1.879438  1489A      1.880548  1490A      1.881814  
    1491A      1.882056  1492A      1.883952  1493A      1.884078  
    1494A      1.884720  1495A      1.885060  1496A      1.888289  
    1497A      1.889422  1498A      1.893661  1499A      1.894968  
    1500A      1.897312  1501A      1.898117  1502A      1.900604  
    1503A      1.902044  1504A      1.903243  1505A      1.904232  
    1506A      1.904383  1507A      1.908998  1508A      1.910588  
    1509A      1.912354  1510A      1.913977  1511A      1.915446  
    1512A      1.916214  1513A      1.920568  1514A      1.922021  
    1515A      1.926718  1516A      1.928964  1517A      1.932035  
    1518A      1.934275  1519A      1.935016  1520A      1.935543  
    1521A      1.936887  1522A      1.937849  1523A      1.940204  
    1524A      1.941699  1525A      1.950707  1526A      1.952118  
    1527A      1.953616  1528A      1.954746  1529A      1.956231  
    1530A      1.958651  1531A      1.959173  1532A      1.961047  
    1533A      1.961301  1534A      1.961649  1535A      1.962655  
    1536A      1.963741  1537A      1.964847  1538A      1.967473  
    1539A      1.970556  1540A      1.972691  1541A      1.975752  
    1542A      1.977088  1543A      1.978400  1544A      1.981768  
    1545A      1.984231  1546A      1.985673  1547A      1.989495  
    1548A      1.991379  1549A      1.994668  1550A      1.995501  
    1551A      1.998378  1552A      1.998982  1553A      1.999439  
    1554A      2.001281  1555A      2.001996  1556A      2.003049  
    1557A      2.003819  1558A      2.009147  1559A      2.009784  
    1560A      2.011375  1561A      2.012767  1562A      2.013469  
    1563A      2.018933  1564A      2.021372  1565A      2.022931  
    1566A      2.023288  1567A      2.024092  1568A      2.024645  
    1569A      2.025459  1570A      2.026040  1571A      2.027059  
    1572A      2.029033  1573A      2.030142  1574A      2.031405  
    1575A      2.032534  1576A      2.033462  1577A      2.033804  
    1578A      2.035127  1579A      2.035817  1580A      2.037347  
    1581A      2.038088  1582A      2.039504  1583A      2.041949  
    1584A      2.042689  1585A      2.044132  1586A      2.044751  
    1587A      2.046853  1588A      2.049863  1589A      2.051018  
    1590A      2.054136  1591A      2.055161  1592A      2.055937  
    1593A      2.056341  1594A      2.057092  1595A      2.059180  
    1596A      2.060416  1597A      2.061688  1598A      2.062399  
    1599A      2.069391  1600A      2.069767  1601A      2.070331  
    1602A      2.070424  1603A      2.071027  1604A      2.071120  
    1605A      2.072068  1606A      2.073864  1607A      2.076823  
    1608A      2.078447  1609A      2.079925  1610A      2.081568  
    1611A      2.083736  1612A      2.084947  1613A      2.086767  
    1614A      2.087275  1615A      2.087867  1616A      2.089427  
    1617A      2.096883  1618A      2.097632  1619A      2.098369  
    1620A      2.100183  1621A      2.101275  1622A      2.101704  
    1623A      2.102148  1624A      2.102952  1625A      2.104795  
    1626A      2.106876  1627A      2.108573  1628A      2.113255  
    1629A      2.113838  1630A      2.120949  1631A      2.122568  
    1632A      2.125231  1633A      2.125318  1634A      2.130631  
    1635A      2.131049  1636A      2.131201  1637A      2.132170  
    1638A      2.134046  1639A      2.134748  1640A      2.138014  
    1641A      2.138644  1642A      2.140040  1643A      2.141271  
    1644A      2.142994  1645A      2.143983  1646A      2.145816  
    1647A      2.148262  1648A      2.149852  1649A      2.152269  
    1650A      2.154992  1651A      2.155519  1652A      2.161248  
    1653A      2.164482  1654A      2.164696  1655A      2.166034  
    1656A      2.166164  1657A      2.167563  1658A      2.170362  
    1659A      2.170594  1660A      2.171705  1661A      2.175065  
    1662A      2.176558  1663A      2.177057  1664A      2.178650  
    1665A      2.179636  1666A      2.179996  1667A      2.184555  
    1668A      2.189193  1669A      2.191025  1670A      2.191989  
    1671A      2.192354  1672A      2.194767  1673A      2.196647  
    1674A      2.206623  1675A      2.206933  1676A      2.209408  
    1677A      2.210579  1678A      2.211734  1679A      2.215274  
    1680A      2.220144  1681A      2.224013  1682A      2.225519  
    1683A      2.226781  1684A      2.233487  1685A      2.236350  
    1686A      2.237165  1687A      2.240099  1688A      2.246326  
    1689A      2.247097  1690A      2.251145  1691A      2.255046  
    1692A      2.259025  1693A      2.265388  1694A      2.266862  
    1695A      2.267276  1696A      2.269958  1697A      2.271606  
    1698A      2.272901  1699A      2.273580  1700A      2.273952  
    1701A      2.275165  1702A      2.277091  1703A      2.280615  
    1704A      2.283433  1705A      2.283815  1706A      2.284250  
    1707A      2.285889  1708A      2.286304  1709A      2.287376  
    1710A      2.289004  1711A      2.290094  1712A      2.290133  
    1713A      2.308257  1714A      2.311983  1715A      2.312948  
    1716A      2.326767  1717A      2.327167  1718A      2.330073  
    1719A      2.333015  1720A      2.334221  1721A      2.335364  
    1722A      2.337718  1723A      2.360499  1724A      2.361573  
    1725A      2.364684  1726A      2.365194  1727A      2.369868  
    1728A      2.373003  1729A      2.376273  1730A      2.384191  
    1731A      2.386100  1732A      2.393571  1733A      2.394202  
    1734A      2.406874  1735A      2.407236  1736A      2.410305  
    1737A      2.410502  1738A      2.414507  1739A      2.414780  
    1740A      2.434529  1741A      2.435073  1742A      2.435722  
    1743A      2.445179  1744A      2.450519  1745A      2.451037  
    1746A      2.454632  1747A      2.460206  1748A      2.478895  
    1749A      2.480694  1750A      2.480756  1751A      2.482863  
    1752A      2.484635  1753A      2.485222  1754A      2.486942  
    1755A      2.489369  1756A      2.491495  1757A      2.492542  
    1758A      2.494367  1759A      2.496429  1760A      2.496516  
    1761A      2.502635  1762A      2.505961  1763A      2.513505  
    1764A      2.515851  1765A      2.523879  1766A      2.525364  
    1767A      2.527815  1768A      2.528540  1769A      2.528939  
    1770A      2.529508  1771A      2.533517  1772A      2.534024  
    1773A      2.535522  1774A      2.539244  1775A      2.544376  
    1776A      2.544659  1777A      2.555382  1778A      2.556254  
    1779A      2.556463  1780A      2.556606  1781A      2.560461  
    1782A      2.561071  1783A      2.574887  1784A      2.582369  
    1785A      2.583614  1786A      2.585610  1787A      2.587117  
    1788A      2.589861  1789A      2.590179  1790A      2.591915  
    1791A      2.596105  1792A      2.599614  1793A      2.600135  
    1794A      2.605677  1795A      2.607116  1796A      2.608959  
    1797A      2.611184  1798A      2.613812  1799A      2.614175  
    1800A      2.615591  1801A      2.620550  1802A      2.622131  
    1803A      2.626990  1804A      2.627749  1805A      2.629082  
    1806A      2.632809  1807A      2.633230  1808A      2.633545  
    1809A      2.635090  1810A      2.637735  1811A      2.639200  
    1812A      2.641802  1813A      2.646146  1814A      2.664200  
    1815A      2.671767  1816A      2.672459  1817A      2.673714  
    1818A      2.675888  1819A      2.676577  1820A      2.680575  
    1821A      2.694601  1822A      2.696255  1823A      2.699993  
    1824A      2.700621  1825A      2.711760  1826A      2.715263  
    1827A      2.719337  1828A      2.721470  1829A      2.721768  
    1830A      2.738331  1831A      2.739989  1832A      2.740744  
    1833A      2.741013  1834A      2.742646  1835A      2.742818  
    1836A      2.743956  1837A      2.745098  1838A      2.751714  
    1839A      2.754263  1840A      2.754870  1841A      2.755432  
    1842A      2.758278  1843A      2.759185  1844A      2.765788  
    1845A      2.769458  1846A      2.771223  1847A      2.780522  
    1848A      2.781610  1849A      2.783371  1850A      2.784541  
    1851A      2.786646  1852A      2.789704  1853A      2.803595  
    1854A      2.806547  1855A      2.806717  1856A      2.813080  
    1857A      2.814667  1858A      2.816915  1859A      2.834359  
    1860A      2.835295  1861A      2.842089  1862A      2.855094  
    1863A      2.861700  1864A      2.861919  1865A      2.871983  
    1866A      2.874114  1867A      2.878639  1868A      2.878884  
    1869A      2.906118  1870A      2.909190  1871A      2.909560  
    1872A      2.919645  1873A      2.935992  1874A      2.936472  
    1875A      2.940476  1876A      2.970787  1877A      2.971498  
    1878A      2.979336  1879A      2.982916  1880A      2.988853  
    1881A      2.989860  1882A      2.992583  1883A      2.998730  
    1884A      2.998913  1885A      3.005692  1886A      3.009493  
    1887A      3.014898  1888A      3.052342  1889A      3.056927  
    1890A      3.057314  1891A      3.064865  1892A      3.069469  
    1893A      3.070982  1894A      3.074282  1895A      3.076373  
    1896A      3.077789  1897A      3.085959  1898A      3.086971  
    1899A      3.089162  1900A      3.091998  1901A      3.092589  
    1902A      3.094200  1903A      3.096281  1904A      3.097828  
    1905A      3.106570  1906A      3.107568  1907A      3.117109  
    1908A      3.119420  1909A      3.119754  1910A      3.137169  
    1911A      3.138519  1912A      3.164484  1913A      3.195599  
    1914A      3.202901  1915A      3.203862  1916A      3.203952  
    1917A      3.204703  1918A      3.207266  1919A      3.211620  
    1920A      3.214327  1921A      3.218075  1922A      3.218695  
    1923A      3.237792  1924A      3.239709  1925A      3.241079  
    1926A      3.247411  1927A      3.302242  1928A      3.302949  
    1929A      3.311144  1930A      3.355950  1931A      3.368852  
    1932A      3.372414  1933A      3.375089  1934A      3.388227  
    1935A      3.390272  1936A      3.402179  1937A      3.404877  
    1938A      3.406106  1939A      3.412117  1940A      3.415962  
    1941A      3.424195  1942A      3.428906  1943A      3.437594  
    1944A      3.449223  1945A      3.467929  1946A      3.480897  
    1947A      3.516070  1948A      3.516722  1949A      3.524734  
    1950A      3.532210  1951A      3.554431  1952A      3.581757  
    1953A      3.586744  1954A      3.606663  1955A      3.611208  
    1956A      3.645912  1957A      3.687639  1958A      3.692237  
    1959A      3.692614  1960A      3.703563  1961A      3.719813  
    1962A      3.721533  1963A      3.784600  1964A      3.785141  
    1965A      3.814549  1966A      3.816631  1967A      3.849008  
    1968A      3.855361  1969A      3.877656  1970A      3.883655  
    1971A      3.889943  1972A      3.891173  1973A      3.899734  
    1974A      3.904537  1975A      3.911254  1976A      3.964306  
    1977A      3.966629  1978A      4.012331  1979A      4.169916  
    1980A      4.241167  1981A      4.334179  

    Final Occupation by Irrep:
              A 
    DOCC [   326 ]
    NA   [   326 ]
    NB   [   326 ]

  @DF-RHF Final Energy: -3953.65379116147915

   => Energetics <=

    Nuclear Repulsion Energy =          17926.1842568257634412
    One-Electron Energy =              -41060.8870548086852068
    Two-Electron Energy =               19181.0490068214421626
    Total Energy =                      -3953.6537911614796030

Computation Completed


Properties will be evaluated at   0.000000,   0.000000,   0.000000 [a0]

Properties computed using the SCF density matrix


 Multipole Moments:

 ------------------------------------------------------------------------------------
     Multipole            Electronic (a.u.)      Nuclear  (a.u.)        Total (a.u.)
 ------------------------------------------------------------------------------------

 L = 1.  Multiply by 2.5417464519 to convert [e a0] to [Debye]
 Dipole X            :         -0.0029302            0.0004804           -0.0024498
 Dipole Y            :         -7.0460723            8.7122315            1.6661592
 Dipole Z            :         25.0123250          -33.3383771           -8.3260521
 Magnitude           :                                                    8.4911269

 ------------------------------------------------------------------------------------

*** tstop() called on n2cn1163 at Sat Jan 27 01:51:47 2024
Module time:
	user time   =   27661.72 seconds =     461.03 minutes
	system time =    1864.41 seconds =      31.07 minutes
	total time  =       5869 seconds =      97.82 minutes
Total time:
	user time   =   27661.72 seconds =     461.03 minutes
	system time =    1864.41 seconds =      31.07 minutes
	total time  =       5869 seconds =      97.82 minutes

  //>>>>>>>>>>>>>>>>>>>>>>>>>>>>>>>>>>>//
  //            Monomer A HF           //
  //<<<<<<<<<<<<<<<<<<<<<<<<<<<<<<<<<<<//

   => Libint2 <=

    Primary   basis highest AM E, G, H:  5, 4, 3
    Auxiliary basis highest AM E, G, H:  6, 5, 4
    Onebody   basis highest AM E, G, H:  6, 5, 4
    Solid Harmonics ordering:            gaussian

*** tstart() called on n2cn1163
*** at Sat Jan 27 01:51:47 2024

   => Loading Basis Set <=

    Name: JUN-CC-PVDZ
    Role: ORBITAL
    Keyword: BASIS
    atoms 1-2, 4-5, 10, 17-34, 41-53, 56-70, 73-89, 92-104, 109-119, 122-130 entry C          line   164 file /opt/software/pc2/EB-SW/software/PSI4/1.9-foss-2022a/share/psi4/basis/jun-cc-pvdz.gbs 
    atoms 3, 6                                                               entry N          line   198 file /opt/software/pc2/EB-SW/software/PSI4/1.9-foss-2022a/share/psi4/basis/jun-cc-pvdz.gbs 
    atoms 7-9, 11-16, 35-40, 54-55, 71-72, 90-91, 105-108, 120-121, 131-136  entry H          line    36 file /opt/software/pc2/EB-SW/software/PSI4/1.9-foss-2022a/share/psi4/basis/jun-cc-pvdz.gbs 


         ---------------------------------------------------------
                                   SCF
               by Justin Turney, Rob Parrish, Andy Simmonett
                          and Daniel G. A. Smith
                              RHF Reference
                       16 Threads,  61035 MiB Core
         ---------------------------------------------------------

  ==> Geometry <==

    Molecular point group: c1
    Full point group: C1

    Geometry (in Angstrom), charge = 1, multiplicity = 1:

       Center              X                  Y                   Z               Mass       
    ------------   -----------------  -----------------  -----------------  -----------------
         C            0.680062820275     1.308604348936    -6.573729579397    12.000000000000
         C           -0.680508179725     1.310632348936    -6.573345579397    12.000000000000
         N           -1.085639179725     1.311630348936    -5.255021579397    14.003074004430
         C            0.000103820275     1.314906348936    -4.473620579397    12.000000000000
[...]
    1585A      2.183018  1586A      2.188232  1587A      2.191001  
    1588A      2.191247  1589A      2.192284  1590A      2.192836  
    1591A      2.193271  1592A      2.195705  1593A      2.198285  
    1594A      2.199279  1595A      2.200927  1596A      2.201369  
    1597A      2.201610  1598A      2.202029  1599A      2.204836  
    1600A      2.205524  1601A      2.209170  1602A      2.209759  
    1603A      2.211134  1604A      2.214095  1605A      2.214527  
    1606A      2.220248  1607A      2.222208  1608A      2.222861  
    1609A      2.224045  1610A      2.224994  1611A      2.225087  
    1612A      2.228018  1613A      2.229078  1614A      2.232122  
    1615A      2.232815  1616A      2.233780  1617A      2.238889  
    1618A      2.239296  1619A      2.240148  1620A      2.240368  
    1621A      2.241645  1622A      2.245997  1623A      2.248379  
    1624A      2.249150  1625A      2.253902  1626A      2.254705  
    1627A      2.262681  1628A      2.263540  1629A      2.265421  
    1630A      2.267407  1631A      2.268647  1632A      2.270750  
    1633A      2.280551  1634A      2.283150  1635A      2.283582  
    1636A      2.284787  1637A      2.291031  1638A      2.292286  
    1639A      2.296614  1640A      2.296972  1641A      2.300575  
    1642A      2.304067  1643A      2.305132  1644A      2.309143  
    1645A      2.319739  1646A      2.323932  1647A      2.325251  
    1648A      2.325545  1649A      2.326811  1650A      2.327435  
    1651A      2.328056  1652A      2.330394  1653A      2.330786  
    1654A      2.332336  1655A      2.333634  1656A      2.335180  
    1657A      2.335406  1658A      2.340895  1659A      2.341949  
    1660A      2.342305  1661A      2.342506  1662A      2.344909  
    1663A      2.345928  1664A      2.346421  1665A      2.349205  
    1666A      2.349422  1667A      2.351124  1668A      2.367754  
    1669A      2.373050  1670A      2.373865  1671A      2.375756  
    1672A      2.384270  1673A      2.388258  1674A      2.388915  
    1675A      2.392530  1676A      2.396123  1677A      2.397767  
    1678A      2.401914  1679A      2.418480  1680A      2.419951  
    1681A      2.421298  1682A      2.424661  1683A      2.428467  
    1684A      2.433046  1685A      2.442577  1686A      2.444008  
    1687A      2.453194  1688A      2.453393  1689A      2.464251  
    1690A      2.464648  1691A      2.467891  1692A      2.468284  
    1693A      2.472053  1694A      2.472268  1695A      2.473817  
    1696A      2.477216  1697A      2.482559  1698A      2.491009  
    1699A      2.492356  1700A      2.494583  1701A      2.494834  
    1702A      2.498359  1703A      2.502690  1704A      2.507705  
    1705A      2.507996  1706A      2.511975  1707A      2.516935  
    1708A      2.539518  1709A      2.539706  1710A      2.540498  
    1711A      2.542529  1712A      2.543589  1713A      2.545094  
    1714A      2.545924  1715A      2.548723  1716A      2.549410  
    1717A      2.550413  1718A      2.552116  1719A      2.556801  
    1720A      2.556885  1721A      2.564437  1722A      2.571384  
    1723A      2.571837  1724A      2.580176  1725A      2.584012  
    1726A      2.584631  1727A      2.585228  1728A      2.586301  
    1729A      2.588566  1730A      2.589094  1731A      2.593286  
    1732A      2.593818  1733A      2.598997  1734A      2.601681  
    1735A      2.602011  1736A      2.613137  1737A      2.613641  
    1738A      2.614051  1739A      2.614278  1740A      2.618325  
    1741A      2.618925  1742A      2.633120  1743A      2.641047  
    1744A      2.642105  1745A      2.644049  1746A      2.645471  
    1747A      2.647040  1748A      2.648734  1749A      2.649370  
    1750A      2.651478  1751A      2.652847  1752A      2.656441  
    1753A      2.656671  1754A      2.665973  1755A      2.666096  
    1756A      2.667622  1757A      2.670116  1758A      2.670727  
    1759A      2.671355  1760A      2.672173  1761A      2.674174  
    1762A      2.677240  1763A      2.679362  1764A      2.682937  
    1765A      2.685846  1766A      2.686800  1767A      2.688326  
    1768A      2.691621  1769A      2.691895  1770A      2.692397  
    1771A      2.693002  1772A      2.695012  1773A      2.696554  
    1774A      2.697493  1775A      2.704869  1776A      2.721174  
    1777A      2.730859  1778A      2.731431  1779A      2.731590  
    1780A      2.731852  1781A      2.732164  1782A      2.752629  
    1783A      2.755821  1784A      2.761115  1785A      2.761688  
    1786A      2.763665  1787A      2.773108  1788A      2.775798  
    1789A      2.777250  1790A      2.780768  1791A      2.781450  
    1792A      2.799487  1793A      2.800043  1794A      2.802320  
    1795A      2.802361  1796A      2.802686  1797A      2.811320  
    1798A      2.814183  1799A      2.815732  1800A      2.816347  
    1801A      2.817101  1802A      2.817330  1803A      2.828575  
    1804A      2.828944  1805A      2.838153  1806A      2.840388  
    1807A      2.842567  1808A      2.842859  1809A      2.846451  
    1810A      2.852779  1811A      2.861475  1812A      2.865618  
    1813A      2.865990  1814A      2.867886  1815A      2.871118  
    1816A      2.873149  1817A      2.877136  1818A      2.896061  
    1819A      2.896949  1820A      2.902496  1821A      2.913526  
    1822A      2.917454  1823A      2.918041  1824A      2.918661  
    1825A      2.927971  1826A      2.930081  1827A      2.935027  
    1828A      2.936201  1829A      2.939605  1830A      2.945146  
    1831A      2.964010  1832A      2.965833  1833A      2.966276  
    1834A      2.971669  1835A      2.976645  1836A      2.991596  
    1837A      2.993921  1838A      2.996160  1839A      3.029825  
    1840A      3.030021  1841A      3.031794  1842A      3.036534  
    1843A      3.039843  1844A      3.043827  1845A      3.047462  
    1846A      3.048473  1847A      3.048742  1848A      3.057799  
    1849A      3.058032  1850A      3.064018  1851A      3.073050  
    1852A      3.077977  1853A      3.109016  1854A      3.113298  
    1855A      3.113780  1856A      3.123482  1857A      3.128699  
    1858A      3.129340  1859A      3.133996  1860A      3.135748  
    1861A      3.142730  1862A      3.143561  1863A      3.149462  
    1864A      3.149913  1865A      3.150751  1866A      3.151891  
    1867A      3.153975  1868A      3.158100  1869A      3.162399  
    1870A      3.168027  1871A      3.173534  1872A      3.175811  
    1873A      3.175993  1874A      3.193578  1875A      3.194765  
    1876A      3.220339  1877A      3.253133  1878A      3.259993  
    1879A      3.262045  1880A      3.262358  1881A      3.262985  
    1882A      3.265303  1883A      3.269062  1884A      3.271431  
    1885A      3.275131  1886A      3.276024  1887A      3.291591  
    1888A      3.296395  1889A      3.298436  1890A      3.300223  
    1891A      3.305911  1892A      3.326000  1893A      3.353516  
    1894A      3.362262  1895A      3.362782  1896A      3.371061  
    1897A      3.416159  1898A      3.430300  1899A      3.433229  
    1900A      3.437562  1901A      3.438810  1902A      3.449759  
    1903A      3.453043  1904A      3.464124  1905A      3.465285  
    1906A      3.466892  1907A      3.472586  1908A      3.476518  
    1909A      3.485165  1910A      3.490218  1911A      3.498374  
    1912A      3.509548  1913A      3.532907  1914A      3.541875  
    1915A      3.576099  1916A      3.576821  1917A      3.584599  
    1918A      3.590322  1919A      3.591076  1920A      3.642072  
    1921A      3.647231  1922A      3.649990  1923A      3.666535  
    1924A      3.669669  1925A      3.705488  1926A      3.748845  
    1927A      3.750614  1928A      3.751224  1929A      3.760961  
    1930A      3.764872  1931A      3.778884  1932A      3.781756  
    1933A      3.821684  1934A      3.842627  1935A      3.843787  
    1936A      3.871930  1937A      3.872748  1938A      3.875112  
    1939A      3.907729  1940A      3.914889  1941A      3.939257  
    1942A      3.945085  1943A      3.948493  1944A      3.949549  
    1945A      3.959622  1946A      3.965957  1947A      3.971648  
    1948A      3.983659  1949A      4.024853  1950A      4.027604  
    1951A      4.074347  1952A      4.215301  1953A      4.220206  
    1954A      4.233970  1955A      4.305230  1956A      4.377249  
    1957A      4.377665  1958A      4.397614  1959A      4.498567  
    1960A      4.759542  1961A      4.812063  1962A      4.839133  
    1963A      4.857434  1964A      4.947675  1965A      5.064410  
    1966A      5.067808  1967A      5.076784  1968A      5.120127  
    1969A      5.171640  1970A      5.400506  1971A      5.429036  
    1972A      5.744278  1973A      5.769958  1974A      6.072634  
    1975A     18.201973  1976A     18.465676  1977A     18.483542  
    1978A     18.567978  1979A     18.839441  1980A     25.345977  
    1981A     25.381506  

    Final Occupation by Irrep:
              A 
    DOCC [   300 ]
    NA   [   300 ]
    NB   [   300 ]

  @DF-RHF Final Energy: -3650.33934028410431

   => Energetics <=

    Nuclear Repulsion Energy =          15611.4211649754306563
    One-Electron Energy =              -36072.1334615888335975
    Two-Electron Energy =               16810.3729563293018145
    Total Energy =                      -3650.3393402841029456

Computation Completed


Properties will be evaluated at   0.000000,   0.000000,   0.000000 [a0]

Properties computed using the SCF density matrix


 Multipole Moments:

 ------------------------------------------------------------------------------------
     Multipole            Electronic (a.u.)      Nuclear  (a.u.)        Total (a.u.)
 ------------------------------------------------------------------------------------

 L = 1.  Multiply by 2.5417464519 to convert [e a0] to [Debye]
 Dipole X            :         -0.0007192            0.0002112           -0.0005080
 Dipole Y            :        123.2161473         -123.2131634            0.0029839
 Dipole Z            :       -501.3747195          501.3848706            0.0101511
 Magnitude           :                                                    0.0105927

 ------------------------------------------------------------------------------------

*** tstop() called on n2cn1163 at Sat Jan 27 03:20:05 2024
Module time:
	user time   =   20504.66 seconds =     341.74 minutes
	system time =    1709.41 seconds =      28.49 minutes
	total time  =       3555 seconds =      59.25 minutes
Total time:
	user time   =   54655.15 seconds =     910.92 minutes
	system time =    4197.95 seconds =      69.97 minutes
	total time  =      11167 seconds =     186.12 minutes
  Constructing Basis Sets for SAPT...

   => Loading Basis Set <=

    Name: (JUN-CC-PVDZ AUX)
    Role: RIFIT
    Keyword: DF_BASIS_SAPT
    atoms 1-2, 4-5, 10, 17-34, 41-53, 56-70, 73-89, 92-104, 109-119, 122-130 entry C          line   100 file /opt/software/pc2/EB-SW/software/PSI4/1.9-foss-2022a/share/psi4/basis/jun-cc-pvdz-ri.gbs 
    atoms 3, 6                                                               entry N          line   144 file /opt/software/pc2/EB-SW/software/PSI4/1.9-foss-2022a/share/psi4/basis/jun-cc-pvdz-ri.gbs 
    atoms 7-9, 11-16, 35-40, 54-55, 71-72, 90-91, 105-108, 120-121, 131-136  entry H          line    30 file /opt/software/pc2/EB-SW/software/PSI4/1.9-foss-2022a/share/psi4/basis/jun-cc-pvdz-ri.gbs 

   => Loading Basis Set <=

    Name: (JUN-CC-PVDZ AUX)
    Role: JKFIT
    Keyword: DF_BASIS_ELST
    atoms 1-2, 4-5, 10, 17-34, 41-53, 56-70, 73-89, 92-104, 109-119, 122-130 entry C          line   146 file /opt/software/pc2/EB-SW/software/PSI4/1.9-foss-2022a/share/psi4/basis/jun-cc-pvdz-jkfit.gbs 
    atoms 3, 6                                                               entry N          line   202 file /opt/software/pc2/EB-SW/software/PSI4/1.9-foss-2022a/share/psi4/basis/jun-cc-pvdz-jkfit.gbs 
    atoms 7-9, 11-16, 35-40, 54-55, 71-72, 90-91, 105-108, 120-121, 131-136  entry H          line    70 file /opt/software/pc2/EB-SW/software/PSI4/1.9-foss-2022a/share/psi4/basis/jun-cc-pvdz-jkfit.gbs 


  //>>>>>>>>>>>>>>>>>>>>>>>>>>>>>>>>>>>//
  //               SSAPT0              //
  //<<<<<<<<<<<<<<<<<<<<<<<<<<<<<<<<<<<//


*** tstart() called on n2cn1163
*** at Sat Jan 27 03:20:07 2024

        SAPT0  
    Ed Hohenstein
     6 June 2009

      Orbital Information
  --------------------------
    NSO        =      2019
    NMO        =      1981
    NRI        =      7157
    NRI (Elst) =      8896
    NOCC A     =        26
    NOCC B     =       300
    FOCC A     =         7
    FOCC B     =        96
    NVIR A     =      1955
    NVIR B     =      1681

    Elst10,r            =    -0.010271024467 [Eh]
    Exch10              =     0.000093431993 [Eh]
    Exch10 (S^2)        =     0.000093428204 [Eh]

    Iter     Energy [mEh]          dE [mEh]         Residual      Time [s]
       1      -0.02220597       0.022205970       1.340905107           282
       2      -0.02117315      -0.001032824       0.339094099           543
       3      -0.02303895       0.001865806       0.090977401           820
       4      -0.02312093       0.000081973       0.038942192          1089
       5      -0.02304045      -0.000080477       0.013138979          1344
       6      -0.02304288       0.000002436       0.004525844          1609
       7      -0.02305063       0.000007744       0.001370424          1937
       8      -0.02305138       0.000000754       0.000428346          2153
       9      -0.02305095      -0.000000433       0.000144082          2367
      10      -0.02305082      -0.000000126       0.000038435          2583
      11      -0.02305084       0.000000016       0.000010862          2772
      12      -0.02305085       0.000000010       0.000003168          2954
      13      -0.02305085       0.000000000       0.000001067          3158
      14      -0.02305085      -0.000000001       0.000000257          3327

    CHF Iterations converged


    Iter     Energy [mEh]          dE [mEh]         Residual      Time [s]
       1      -9.92216933       9.922169330      54.192495205           230
       2      -6.39071686      -3.531452473       6.619652969           390
       3      -6.35789625      -0.032820612       2.244531799           630
       4      -6.48022728       0.122331030       0.756218763           843
       5      -6.49766469       0.017437413       0.291805584          1043
       6      -6.49464384      -0.003020853       0.197112197          1250
       7      -6.49084625      -0.003797580       0.075003429          1461
       8      -6.49108604       0.000239789       0.030886096          1663
       9      -6.49165071       0.000564662       0.010629419          1893
      10      -6.49164014      -0.000010563       0.006281580          2136
      11      -6.49157852      -0.000061623       0.002875659          2366
      12      -6.49156510      -0.000013424       0.001558125          2587
      13      -6.49157685       0.000011750       0.000847523          2834
      14      -6.49158352       0.000006674       0.000522083          3061
      15      -6.49158198      -0.000001541       0.000378077          3311
      16      -6.49157737      -0.000004612       0.000190458          3587
      17      -6.49157895       0.000001579       0.000105959          3824
      18      -6.49158001       0.000001063       0.000057438          4084
      19      -6.49157983      -0.000000179       0.000044723          4316
      20      -6.49157939      -0.000000438       0.000020369          4539
      21      -6.49157945       0.000000058       0.000009578          4745
      22      -6.49157953       0.000000082       0.000003767          4952
      23      -6.49157954       0.000000003       0.000001463          5125
      24      -6.49157952      -0.000000011       0.000000779          5315

    CHF Iterations converged

    Ind20,r (A<-B)      =    -0.000023050849 [Eh]
    Ind20,r (B<-A)      =    -0.006491579525 [Eh]
    Ind20,r             =    -0.006514630373 [Eh]
    Exch-Ind20,r (A<-B) =     0.000002016692 [Eh]
    Exch-Ind20,r (B<-A) =     0.000018622793 [Eh]
    Exch-Ind20,r        =     0.000020639485 [Eh]
    Disp20              =    -0.004754519570 [Eh]
    Disp20 (SS)         =    -0.002377259785 [Eh]
    Disp20 (OS)         =    -0.002377259785 [Eh]
    Exch-Disp20         =     0.000013263447 [Eh]
    Exch-Disp20 (SS)    =     0.000009021662 [Eh]
    Exch-Disp20 (OS)    =     0.000004241785 [Eh]

    SAPT Results 
  --------------------------------------------------------------------------------------------------------
    Electrostatics                -10.27102447 [mEh]      -6.44516516 [kcal/mol]     -26.96657102 [kJ/mol]
      Elst10,r                    -10.27102447 [mEh]      -6.44516516 [kcal/mol]     -26.96657102 [kJ/mol]

    Exchange                        0.09343199 [mEh]       0.05862946 [kcal/mol]       0.24530567 [kJ/mol]
      Exch10                        0.09343199 [mEh]       0.05862946 [kcal/mol]       0.24530567 [kJ/mol]
      Exch10(S^2)                   0.09342820 [mEh]       0.05862708 [kcal/mol]       0.24529571 [kJ/mol]

    Induction                      -6.75076127 [mEh]      -4.23616665 [kcal/mol]     -17.72412126 [kJ/mol]
      Ind20,r                      -6.51463037 [mEh]      -4.08799228 [kcal/mol]     -17.10415969 [kJ/mol]
      Exch-Ind20,r                  0.02063949 [mEh]       0.01295147 [kcal/mol]       0.05418896 [kJ/mol]
      delta HF,r (2)               -0.25677038 [mEh]      -0.16112584 [kcal/mol]      -0.67415053 [kJ/mol]

    Dispersion                     -4.74125612 [mEh]      -2.97518313 [kcal/mol]     -12.44816623 [kJ/mol]
      Disp20                       -4.75451957 [mEh]      -2.98350607 [kcal/mol]     -12.48298941 [kJ/mol]
      Exch-Disp20                   0.01326345 [mEh]       0.00832294 [kcal/mol]       0.03482318 [kJ/mol]
      Disp20 (SS)                  -2.37725979 [mEh]      -1.49175304 [kcal/mol]      -6.24149471 [kJ/mol]
      Disp20 (OS)                  -2.37725979 [mEh]      -1.49175304 [kcal/mol]      -6.24149471 [kJ/mol]
      Exch-Disp20 (SS)              0.00902166 [mEh]       0.00566118 [kcal/mol]       0.02368637 [kJ/mol]
      Exch-Disp20 (OS)              0.00424179 [mEh]       0.00266176 [kcal/mol]       0.01113681 [kJ/mol]

  Total HF                        -16.92835374 [mEh]     -10.62270235 [kcal/mol]     -44.44538662 [kJ/mol]
  Total SAPT0                     -21.66960986 [mEh]     -13.59788548 [kcal/mol]     -56.89355285 [kJ/mol]

  Special recipe for scaled SAPT0 (see Manual):
    Electrostatics sSAPT0         -10.27102447 [mEh]      -6.44516516 [kcal/mol]     -26.96657102 [kJ/mol]
    Exchange sSAPT0                 0.09343199 [mEh]       0.05862946 [kcal/mol]       0.24530567 [kJ/mol]
    Induction sSAPT0               -6.75075875 [mEh]      -4.23616507 [kcal/mol]     -17.72411467 [kJ/mol]
    Dispersion sSAPT0              -4.74125451 [mEh]      -2.97518212 [kcal/mol]     -12.44816200 [kJ/mol]
  Total sSAPT0                    -21.66960574 [mEh]     -13.59788289 [kcal/mol]     -56.89354202 [kJ/mol]
  --------------------------------------------------------------------------------------------------------

*** tstop() called on n2cn1163 at Sat Jan 27 10:17:39 2024
Module time:
	user time   =   79636.32 seconds =    1327.27 minutes
	system time =    4048.55 seconds =      67.48 minutes
	total time  =      25052 seconds =     417.53 minutes
Total time:
	user time   =  134293.02 seconds =    2238.22 minutes
	system time =    8246.51 seconds =     137.44 minutes
	total time  =      36221 seconds =     603.68 minutes

    Psi4 stopped on: Saturday, 27 January 2024 10:17AM
    Psi4 wall time for execution: 10:03:42.91

*** Psi4 exiting successfully. Buy a developer a beer!
