
    -----------------------------------------------------------------------
          Psi4: An Open-Source Ab Initio Electronic Structure Package
                               Psi4 1.9 release

                         Git: Rev {} zzzzzzz 


    D. G. A. Smith, L. A. Burns, A. C. Simmonett, R. M. Parrish,
    M. C. Schieber, R. Galvelis, P. Kraus, H. Kruse, R. Di Remigio,
    A. Alenaizan, A. M. James, S. Lehtola, J. P. Misiewicz, M. Scheurer,
    R. A. Shaw, J. B. Schriber, Y. Xie, Z. L. Glick, D. A. Sirianni,
    J. S. O'Brien, J. M. Waldrop, A. Kumar, E. G. Hohenstein,
    B. P. Pritchard, B. R. Brooks, H. F. Schaefer III, A. Yu. Sokolov,
    K. Patkowski, A. E. DePrince III, U. Bozkaya, R. A. King,
    F. A. Evangelista, J. M. Turney, T. D. Crawford, C. D. Sherrill,
    J. Chem. Phys. 152(18) 184108 (2020). https://doi.org/10.1063/5.0006002

                            Additional Code Authors
    E. T. Seidl, C. L. Janssen, E. F. Valeev, M. L. Leininger,
    J. F. Gonthier, R. M. Richard, H. R. McAlexander, M. Saitow, X. Wang,
    P. Verma, M. H. Lechner, A. Jiang, S. Behnle, A. G. Heide,
    M. F. Herbst, and D. L. Poole

             Previous Authors, Complete List of Code Contributors,
                       and Citations for Specific Modules
    https://github.com/psi4/psi4/blob/master/codemeta.json
    https://github.com/psi4/psi4/graphs/contributors
    http://psicode.org/psi4manual/master/introduction.html#citing-psifour

    -----------------------------------------------------------------------


    Psi4 started on: Wednesday, 24 January 2024 07:40PM

    Process ID: 2175387
    Host:       n2cn0485
    PSIDATADIR: /opt/software/pc2/EB-SW/software/PSI4/1.9-foss-2022a/share/psi4
    Memory:     500.0 MiB
    Threads:    16
    
  ==> Input File <==

--------------------------------------------------------------------------
memory 47 GB # how much memory is available ! Depends on the nodes/cores !

molecule dimer {
# monomer A
-1 1    # Charge and multiplicity
B -0.000046  0.000337 3.399994
F -1.153597  0.000048 4.215641
F  1.153661 -0.000581 4.215641
F -0.000019 -1.153637 2.584360
F -0.000019  1.153978 2.584360
--
# monomer B
0 1     # Charge and multiplicity
C   -3.66844126402057      7.80375217008252      0.00190004133558
C   -4.84759871934653      7.13124183134024     -0.00046653359696
C   -4.89495929917518      5.69633040353158     -0.00103944469517
C   -3.65374067877320      4.98073034095895      0.00662099703436
C   -2.40942512149445      7.11398103667468      0.00209438359570
C   -2.42547734410473      5.68112195090346     -0.00491050527438
C   -1.19474401643570      7.78614419430947      0.00356656413763
C   0.03795902893699      7.09942164575698      0.00139585983271
C   0.03033258741920      5.66948955970466     -0.00408752508301
C   -1.20098450790502      4.96927034791531      0.00488220885047
C   1.27795782581485      7.77285944319479      0.00277170839332
C   2.48535808472416      7.08769688523756      0.00049722048857
C   2.48612868491717      5.65477081024076     -0.00644052849921
C   1.25408291964399      4.95607811366431      0.00518741308898
C   3.75171459140595      7.76391215098033      0.00062407186893
C   4.92356605618520      7.07878077698995     -0.00143240883900
C   4.95560727132542      5.64344746336949     -0.00159282164606
C   3.70680153420475      4.94121020833308      0.00349873852374
H   -3.65852113775815      8.89082741913536      0.00358502958574
H   -1.18921332975660      8.87412108735996      0.00753844057883
H   1.28429423888630      8.86083343548850      0.00693053253426
H   3.75354208679975      8.85103527897216      0.00214659618464
H   5.86995870320703      7.61379483465560     -0.00235777588134
H   -5.78823170750226      7.67630221293400     -0.00202638095293
C   -6.09197395869619      4.99326001364347     -0.00291168518608
C   -6.12866148031747      3.58258016879823     -0.00171050815740
C   -3.66457974004527      3.56418217974434     -0.00463560277484
C   -4.89429820469869      2.86108077590057      0.00453338221034
C   -2.43733499489796      2.84761165708481      0.00719617576166
C   -1.20922785759670      3.54788693497833     -0.00648285103018
C   1.24714157216223      3.53468075142962     -0.00729145743546
C   0.01517603956900      2.83311183930540      0.00439272578912
C   2.46764517244071      2.82128997725533      0.00449278391269
C   3.70254947457969      3.52466015442405     -0.00899517692985
C   6.14498038638375      4.92757236613191     -0.00282626685777
C   6.16658835886151      3.51658447594213     -0.00065971342101
C   4.92460995845939      2.80840792535402      0.00587903281610
H   7.08990550964105      5.46688776622306     -0.00658814770723
H   -7.03104175110130      5.54268795285765     -0.00714490013730
C   -7.33969804112295      2.85841153457957     -0.00333767559888
C   -7.36488195805880      1.47032337158330     -0.00157213747140
C   -4.90350460894690      1.44442681216000     -0.00628840166334
C   -6.13225715261081      0.73993935705394      0.00600164231964
C   -3.67687480051673      0.72669714267312      0.00433931473643
C   -2.44565658606518      1.42964113326212     -0.00597039546461
C   -1.22360068130162      0.71532450163492      0.00545886906656
C   0.00763786931376      1.41738314923765      0.00392452278437
C   1.23121980774686      0.70211669058719     -0.01490206287210
C   2.46082110053113      1.40329203612573      0.00460244601878
C   3.68443025419614      0.68719842821222      0.00377365974158
C   4.91870890153864      1.39173456118907     -0.00862816189375
C   7.36980207796101      2.77948220318441     -0.00242013321349
C   7.38016266612146      1.39121750785509     -0.00087345036788
C   6.13979953912259      0.67411862320065      0.00545489144369
H   -8.27919079934664      3.40711804112415     -0.00763522772059
H   8.31511347147953      3.31811809662368     -0.00663070901292
C   -8.59175593758115      0.72483255304480     -0.00123170985383
C   -8.59902460370342     -0.63263980622873      0.00089141472904
C   -6.13981313911873     -0.67413663715361     -0.00609792660607
C   -7.38018411213749     -1.39126618958160      0.00131813493501
C   -4.91868448025621     -1.39175501803000      0.00624257154343
C   -3.68443829568458     -0.68723731573599     -0.00478966852105
C   -2.46081704024768     -1.40334517882457      0.00575341766833
C   -1.23116201232071     -0.70217386488055     -0.00636696112346
C   -0.00756962538737     -1.41741884941102      0.00108956317991
C   1.22364771588843     -0.71527537726392      0.01109518512883
C   2.44567064933149     -1.42964328900682     -0.00065482763106
C   3.67686670284649     -0.72670743155550     -0.00479541202602
C   6.13224884641929     -0.73997883984993     -0.00632338623858
C   4.90351914550401     -1.44445752054090      0.00751768830159
C   8.59901484869081      0.63260386666793     -0.00101133422380
C   8.59174548810050     -0.72485086719319      0.00072504603735
C   7.36486276438985     -1.47033266560598      0.00049486934466
H   -9.52830597181814      1.27684744919284     -0.00270163681798
H   9.54141097460619      1.17457248844457     -0.00206336648518
C   -7.36983790976868     -2.77954514593389      0.00312634335708
C   -4.92459910905015     -2.80843725734101     -0.00460528907921
C   -6.16662249566744     -3.51665219282533      0.00169655107992
C   -3.70251035970491     -3.52468154912026      0.00571878010666
C   -2.46764698511392     -2.82132596280400     -0.00632585824990
C   -0.01513347410770     -2.83314164539971     -0.00604426974092
C   -1.24712184122656     -3.53473217556300      0.00551968366725
C   1.20924506964357     -3.54791467864352      0.00805871345849
C   2.43733602215464     -2.84764173817541     -0.00608104485234
C   4.89430234377080     -2.86112296828604     -0.00526030478103
C   3.66461525504104     -3.56421984553201      0.00761911515957
C   6.12863901474565     -3.58258405771778      0.00096495711699
C   7.33967266469532     -2.85841330737039      0.00248018319869
H   -9.54144911125902     -1.17456346666430      0.00226083090216
H   9.52826186807155     -1.27691907390448      0.00197485379837
H   -8.31516504384864     -3.31814985321231      0.00729857188773
H   8.27915514249207     -3.40714078989363      0.00681973918158
C   -6.14499418870218     -4.92764727278338      0.00302254913999
C   -3.70678334799751     -4.94126171411716     -0.00679841894792
C   -4.95559005800169     -5.64349397349412      0.00116871569699
C   -2.48612132622665     -5.65478557440947      0.00614125209662
C   -1.25405833548005     -4.95612205000132     -0.00503435388927
C   1.20101257386816     -4.96928038819302     -0.00385322963129
C   -0.03033667441341     -5.66952030313900      0.00398997003238
C   3.65375010132847     -4.98074377541453     -0.00309522988330
C   2.42549269587528     -5.68117463552727      0.00628170066869
C   6.09196561781097     -4.99325796338655      0.00325918379042
C   4.89497644461045     -5.69634842095790      0.00202298796027
H   -7.08989238804069     -5.46699984223871      0.00742531082125
H   7.03105520920009     -5.54265853633254      0.00683896355417
C   -4.92354532219813     -7.07882109967734      0.00061394679214
C   -2.48534208823777     -7.08772807792913     -0.00189594564379
C   -3.75168589177895     -7.76394715763627     -0.00170126671874
C   -0.03794895698805     -7.09946487446944     -0.00168022049625
C   -1.27795610040136     -7.77290438466689     -0.00366491325785
C   2.40944432072629     -7.11402201200282     -0.00081701968533
C   1.19474993715296     -7.78618536556242     -0.00296931056689
C   4.84762105249800     -7.13126211057943      0.00168979497423
C   3.66847160587561     -7.80378799294376     -0.00065863938960
H   -5.86994035041618     -7.61383059804164      0.00215798365757
H   5.78824962538815     -7.67633218931421      0.00281691445618
H   -3.75352693944918     -8.85107156923607     -0.00353718114765
H   -1.28430440589466     -8.86087539249706     -0.00809229711623
H   1.18922157469537     -8.87416062058945     -0.00706194725726
H   3.65854661482387     -8.89086063405326     -0.00231318081200

    units angstrom      # Angstroms are the default
    no_reorient         # Geometry fixed, default
    symmetry c1         # C1 symmetry, default
}

set {
    scf_type DF         # Density fitting, faster than exact integrals
    freeze_core True    # Freeze core electrons
    basis jun-cc-pVDZ   # Jun-cc-pVDZ basis set, recommended for sSAPT0 in https://doi.org/10.1063/1.4867135
}

energy('ssapt0')        # Compute sSAPT0 energy, includes also SAPT0
--------------------------------------------------------------------------

  Memory set to  43.772 GiB by Python driver.

Scratch directory: /tmp/
   => Loading Basis Set <=

    Name: JUN-CC-PVDZ
    Role: ORBITAL
    Keyword: BASIS
    atoms 1                                                   entry B          line   130 file /opt/software/pc2/EB-SW/software/PSI4/1.9-foss-2022a/share/psi4/basis/jun-cc-pvdz.gbs 
    atoms 2-5                                                 entry F          line   266 file /opt/software/pc2/EB-SW/software/PSI4/1.9-foss-2022a/share/psi4/basis/jun-cc-pvdz.gbs 
    atoms 6-23, 30-42, 45-59, 62-78, 81-93, 98-108, 111-119   entry C          line   164 file /opt/software/pc2/EB-SW/software/PSI4/1.9-foss-2022a/share/psi4/basis/jun-cc-pvdz.gbs 
    atoms 24-29, 43-44, 60-61, 79-80, 94-97, 109-110, 120-125 entry H          line    36 file /opt/software/pc2/EB-SW/software/PSI4/1.9-foss-2022a/share/psi4/basis/jun-cc-pvdz.gbs 

   => Loading Basis Set <=

    Name: JUN-CC-PVDZ
    Role: ORBITAL
    Keyword: BASIS
    atoms 1                                                   entry B          line   130 file /opt/software/pc2/EB-SW/software/PSI4/1.9-foss-2022a/share/psi4/basis/jun-cc-pvdz.gbs 
    atoms 2-5                                                 entry F          line   266 file /opt/software/pc2/EB-SW/software/PSI4/1.9-foss-2022a/share/psi4/basis/jun-cc-pvdz.gbs 
    atoms 6-23, 30-42, 45-59, 62-78, 81-93, 98-108, 111-119   entry C          line   164 file /opt/software/pc2/EB-SW/software/PSI4/1.9-foss-2022a/share/psi4/basis/jun-cc-pvdz.gbs 
    atoms 24-29, 43-44, 60-61, 79-80, 94-97, 109-110, 120-125 entry H          line    36 file /opt/software/pc2/EB-SW/software/PSI4/1.9-foss-2022a/share/psi4/basis/jun-cc-pvdz.gbs 


  //>>>>>>>>>>>>>>>>>>>>>>>>>>>>>>>>>>>//
  //              Dimer HF             //
  //<<<<<<<<<<<<<<<<<<<<<<<<<<<<<<<<<<<//

   => Libint2 <=

    Primary   basis highest AM E, G, H:  5, 4, 3
    Auxiliary basis highest AM E, G, H:  6, 5, 4
    Onebody   basis highest AM E, G, H:  6, 5, 4
    Solid Harmonics ordering:            gaussian

*** tstart() called on n2cn0485
*** at Wed Jan 24 19:40:41 2024

   => Loading Basis Set <=

    Name: JUN-CC-PVDZ
    Role: ORBITAL
    Keyword: BASIS
    atoms 1                                                   entry B          line   130 file /opt/software/pc2/EB-SW/software/PSI4/1.9-foss-2022a/share/psi4/basis/jun-cc-pvdz.gbs 
    atoms 2-5                                                 entry F          line   266 file /opt/software/pc2/EB-SW/software/PSI4/1.9-foss-2022a/share/psi4/basis/jun-cc-pvdz.gbs 
    atoms 6-23, 30-42, 45-59, 62-78, 81-93, 98-108, 111-119   entry C          line   164 file /opt/software/pc2/EB-SW/software/PSI4/1.9-foss-2022a/share/psi4/basis/jun-cc-pvdz.gbs 
    atoms 24-29, 43-44, 60-61, 79-80, 94-97, 109-110, 120-125 entry H          line    36 file /opt/software/pc2/EB-SW/software/PSI4/1.9-foss-2022a/share/psi4/basis/jun-cc-pvdz.gbs 


         ---------------------------------------------------------
                                   SCF
               by Justin Turney, Rob Parrish, Andy Simmonett
                          and Daniel G. A. Smith
                              RHF Reference
                       16 Threads,  44822 MiB Core
         ---------------------------------------------------------

  ==> Geometry <==

    Molecular point group: c1
    Full point group: C1

    Geometry (in Angstrom), charge = -1, multiplicity = 1:

       Center              X                  Y                   Z               Mass       
    ------------   -----------------  -----------------  -----------------  -----------------
         B           -0.000050191042     0.000351518223     3.165814129302    11.009305360000
         F           -1.153601191042     0.000062518223     3.981461129302    18.998403162730
         F            1.153656808958    -0.000566481777     3.981461129302    18.998403162730
         F           -0.000023191042    -1.153622481777     2.350180129302    18.998403162730
         F           -0.000023191042     1.153992518223     2.350180129302    18.998403162730
         C           -3.668445455062     7.803766688305    -0.232279829363    12.000000000000
         C           -4.847602910388     7.131256349563    -0.234646404295    12.000000000000
         C           -4.894963490217     5.696344921754    -0.235219315393    12.000000000000
         C           -3.653744869815     4.980744859182    -0.227558873664    12.000000000000
         C           -2.409429312536     7.113995554897    -0.232085487102    12.000000000000
         C           -2.425481535146     5.681136469126    -0.239090375973    12.000000000000
         C           -1.194748207477     7.786158712532    -0.230613306560    12.000000000000
         C            0.037954837895     7.099436163980    -0.232784010865    12.000000000000
         C            0.030328396378     5.669504077927    -0.238267395781    12.000000000000
         C           -1.200988698947     4.969284866138    -0.229297661848    12.000000000000
         C            1.277953634773     7.772873961417    -0.231408162305    12.000000000000
         C            2.485353893683     7.087711403460    -0.233682650210    12.000000000000
         C            2.486124493876     5.654785328463    -0.240620399197    12.000000000000
         C            1.254078728602     4.956092631887    -0.228992457609    12.000000000000
         C            3.751710400364     7.763926669203    -0.233555798829    12.000000000000
         C            4.923561865144     7.078795295213    -0.235612279537    12.000000000000
         C            4.955603080284     5.643461981592    -0.235772692344    12.000000000000
         C            3.706797343163     4.941224726556    -0.230681132174    12.000000000000
         H           -3.658525328800     8.890841937358    -0.230594841112     1.007825032230
         H           -1.189217520798     8.874135605583    -0.226641430119     1.007825032230
         H            1.284290047845     8.860847953711    -0.227249338164     1.007825032230
         H            3.753537895758     8.851049797195    -0.232033274513     1.007825032230
         H            5.869954512165     7.613809352878    -0.236537646579     1.007825032230
         H           -5.788235898544     7.676316731157    -0.236206251651     1.007825032230
         C           -6.091978149738     4.993274531866    -0.237091555884    12.000000000000
         C           -6.128665671359     3.582594687021    -0.235890378856    12.000000000000
         C           -3.664583931087     3.564196697967    -0.238815473473    12.000000000000
         C           -4.894302395740     2.861095294123    -0.229646488488    12.000000000000
         C           -2.437339185940     2.847626175307    -0.226983694936    12.000000000000
         C           -1.209232048638     3.547901453201    -0.240662721728    12.000000000000
         C            1.247137381121     3.534695269652    -0.241471328134    12.000000000000
         C            0.015171848527     2.833126357528    -0.229787144909    12.000000000000
         C            2.467640981399     2.821304495478    -0.229687086785    12.000000000000
         C            3.702545283538     3.524674672647    -0.243175047628    12.000000000000
         C            6.144976195342     4.927586884354    -0.237006137556    12.000000000000
         C            6.166584167820     3.516598994165    -0.234839584119    12.000000000000
         C            4.924605767418     2.808422443577    -0.228300837882    12.000000000000
         H            7.089901318599     5.466902284446    -0.240768018405     1.007825032230
         H           -7.031045942143     5.542702471080    -0.241324770835     1.007825032230
         C           -7.339702232165     2.858426052802    -0.237517546297    12.000000000000
         C           -7.364886149100     1.470337889806    -0.235752008170    12.000000000000
         C           -4.903508799989     1.444441330383    -0.240468272361    12.000000000000
         C           -6.132261343652     0.739953875277    -0.228178228378    12.000000000000
         C           -3.676878991558     0.726711660896    -0.229840555962    12.000000000000
         C           -2.445660777107     1.429655651485    -0.240150266163    12.000000000000
         C           -1.223604872343     0.715339019858    -0.228721001632    12.000000000000
         C            0.007633678272     1.417397667460    -0.230255347914    12.000000000000
         C            1.231215616705     0.702131208810    -0.249081933570    12.000000000000
         C            2.460816909489     1.403306554348    -0.229577424679    12.000000000000
         C            3.684426063155     0.687212946435    -0.230406210957    12.000000000000
         C            4.918704710497     1.391749079412    -0.242808032592    12.000000000000
         C            7.369797886919     2.779496721407    -0.236600003912    12.000000000000
         C            7.380158475080     1.391232026078    -0.235053321066    12.000000000000
         C            6.139795348081     0.674133141423    -0.228724979254    12.000000000000
         H           -8.279194990388     3.407132559347    -0.241815098419     1.007825032230
         H            8.315109280438     3.318132614846    -0.240810579711     1.007825032230
         C           -8.591760128623     0.724847071267    -0.235411580552    12.000000000000
         C           -8.599028794745    -0.632625288006    -0.233288455969    12.000000000000
         C           -6.139817330160    -0.674122118931    -0.240277797304    12.000000000000
         C           -7.380188303179    -1.391251671359    -0.232861735763    12.000000000000
         C           -4.918688671298    -1.391740499807    -0.227937299155    12.000000000000
         C           -3.684442486726    -0.687222797513    -0.238969539219    12.000000000000
         C           -2.460821231289    -1.403330660602    -0.228426453030    12.000000000000
         C           -1.231166203362    -0.702159346658    -0.240546831822    12.000000000000
         C           -0.007573816429    -1.417404331188    -0.233090307518    12.000000000000
         C            1.223643524847    -0.715260859041    -0.223084685569    12.000000000000
         C            2.445666458290    -1.429628770784    -0.234834698329    12.000000000000
         C            3.676862511805    -0.726692913333    -0.238975282724    12.000000000000
         C            6.132244655378    -0.739964321627    -0.240503256937    12.000000000000
         C            4.903514954462    -1.444443002318    -0.226662182397    12.000000000000
         C            8.599010657649     0.632618384891    -0.235191204922    12.000000000000
         C            8.591741297059    -0.724836348971    -0.233454824661    12.000000000000
         C            7.364858573348    -1.470318147383    -0.233685001353    12.000000000000
         H           -9.528310162860     1.276861967415    -0.236881507516     1.007825032230
         H            9.541406783565     1.174587006667    -0.236243237183     1.007825032230
         C           -7.369842100810    -2.779530627711    -0.231053527341    12.000000000000
         C           -4.924603300092    -2.808422739118    -0.238785159777    12.000000000000
         C           -6.166626686709    -3.516637674603    -0.232483319618    12.000000000000
         C           -3.702514550747    -3.524667030898    -0.228461090591    12.000000000000
         C           -2.467651176156    -2.821311444581    -0.240505728948    12.000000000000
         C           -0.015137665149    -2.833127127177    -0.240224140439    12.000000000000
         C           -1.247126032268    -3.534717657340    -0.228660187031    12.000000000000
         C            1.209240878602    -3.547900160421    -0.226121157240    12.000000000000
         C            2.437331831113    -2.847627219953    -0.240260915550    12.000000000000
         C            4.894298152729    -2.861108450063    -0.239440175479    12.000000000000
         C            3.664611063999    -3.564205327309    -0.226560755539    12.000000000000
         C            6.128634823704    -3.582569539495    -0.233214913581    12.000000000000
         C            7.339668473654    -2.858398789148    -0.231699687499    12.000000000000
         H           -9.541453302301    -1.174548948442    -0.231919039796     1.007825032230
         H            9.528257677030    -1.276904555682    -0.232205016900     1.007825032230
         H           -8.315169234890    -3.318135334990    -0.226881298810     1.007825032230
         H            8.279150951450    -3.407126271671    -0.227360131517     1.007825032230
         C           -6.144998379744    -4.927632754561    -0.231157321558    12.000000000000
         C           -3.706787539039    -4.941247195895    -0.240978289646    12.000000000000
         C           -4.955594249043    -5.643479455272    -0.233011155001    12.000000000000
         C           -2.486125517268    -5.654771056187    -0.228038618602    12.000000000000
         C           -1.254062526522    -4.956107531779    -0.239214224587    12.000000000000
         C            1.201008382827    -4.969265869970    -0.238033100329    12.000000000000
         C           -0.030340865455    -5.669505784916    -0.230189900666    12.000000000000
         C            3.653745910287    -4.980729257192    -0.237275100581    12.000000000000
         C            2.425488504834    -5.681160117305    -0.227898170029    12.000000000000
         C            6.091961426769    -4.993243445164    -0.230920686908    12.000000000000
         C            4.894972253569    -5.696333902735    -0.232156882738    12.000000000000
         H           -7.089896579082    -5.466985324016    -0.226754559877     1.007825032230
         H            7.031051018158    -5.542644018110    -0.227340907144     1.007825032230
         C           -4.923549513240    -7.078806581455    -0.233565923906    12.000000000000
         C           -2.485346279279    -7.087713559707    -0.236075816342    12.000000000000
         C           -3.751690082821    -7.763932639414    -0.235881137417    12.000000000000
         C           -0.037953148030    -7.099450356247    -0.235860091194    12.000000000000
         C           -1.277960291443    -7.772889866444    -0.237844783956    12.000000000000
         C            2.409440129685    -7.114007493780    -0.234996890383    12.000000000000
         C            1.194745746111    -7.786170847340    -0.237149181265    12.000000000000
         C            4.847616861456    -7.131247592357    -0.232490075724    12.000000000000
         C            3.668467414834    -7.803773474721    -0.234838510088    12.000000000000
         H           -5.869944541458    -7.613816079819    -0.232021887041     1.007825032230
         H            5.788245434347    -7.676317671092    -0.231362956242     1.007825032230
         H           -3.753531130491    -8.851057051013    -0.237717051846     1.007825032230
         H           -1.284308596936    -8.860860874274    -0.242272167814     1.007825032230
         H            1.189217383654    -8.874146102367    -0.241241817955     1.007825032230
         H            3.658542423782    -8.890846115831    -0.236493051510     1.007825032230

  Running in c1 symmetry.

  Rotational constants: A =      0.00068  B =      0.00068  C =      0.00035 [cm^-1]
  Rotational constants: A =     20.26878  B =     20.26527  C =     10.55117 [MHz]
  Nuclear repulsion = 17773.772218689646252

  Charge       = -1
  Multiplicity = 1
  Electrons    = 642
  Nalpha       = 321
  Nbeta        = 321

  ==> Algorithm <==

  SCF Algorithm Type is DF.
  DIIS enabled.
  MOM disabled.
  Fractional occupation disabled.
  Guess Type is SAD.
  Energy threshold   = 1.00e-08
  Density threshold  = 1.00e-08
  Integral threshold = 1.00e-12

  ==> Primary Basis <==

  Basis Set: JUN-CC-PVDZ
    Blend: JUN-CC-PVDZ
    Number of shells: 880
    Number of basis functions: 1938
    Number of Cartesian functions: 2039
    Spherical Harmonics?: true
    Max angular momentum: 2

   => Loading Basis Set <=

    Name: (JUN-CC-PVDZ AUX)
    Role: JKFIT
    Keyword: DF_BASIS_SCF
    atoms 1                                                   entry B          line    90 file /opt/software/pc2/EB-SW/software/PSI4/1.9-foss-2022a/share/psi4/basis/jun-cc-pvdz-jkfit.gbs 
    atoms 2-5                                                 entry F          line   314 file /opt/software/pc2/EB-SW/software/PSI4/1.9-foss-2022a/share/psi4/basis/jun-cc-pvdz-jkfit.gbs 
    atoms 6-23, 30-42, 45-59, 62-78, 81-93, 98-108, 111-119   entry C          line   146 file /opt/software/pc2/EB-SW/software/PSI4/1.9-foss-2022a/share/psi4/basis/jun-cc-pvdz-jkfit.gbs 
    atoms 24-29, 43-44, 60-61, 79-80, 94-97, 109-110, 120-125 entry H          line    70 file /opt/software/pc2/EB-SW/software/PSI4/1.9-foss-2022a/share/psi4/basis/jun-cc-pvdz-jkfit.gbs 

  ==> Integral Setup <==

  ==> DiskDFJK: Density-Fitted J/K Matrices <==

    J tasked:                  Yes
    K tasked:                  Yes
    wK tasked:                  No
    OpenMP threads:             16
    Integrals threads:          16
    Memory [MiB]:            33617
    Algorithm:                Disk
    Integral Cache:           SAVE
    Schwarz Cutoff:          1E-12
    Fitting Condition:       1E-10

   => Auxiliary Basis Set <=

  Basis Set: (JUN-CC-PVDZ AUX)
    Blend: JUN-CC-PVDZ-JKFIT
    Number of shells: 2943
    Number of basis functions: 8531
    Number of Cartesian functions: 9791
    Spherical Harmonics?: true
    Max angular momentum: 3

  Minimum eigenvalue in the overlap matrix is 7.2056167432E-11.
  Reciprocal condition number of the overlap matrix is 2.9858574963E-12.
    Using canonical orthogonalization.
  Overall, 39 of 1938 possible MOs eliminated.


  ==> Pre-Iterations <==

  SCF Guess: Superposition of Atomic Densities via on-the-fly atomic UHF (no occupation information).

   -------------------------
    Irrep   Nso     Nmo    
   -------------------------
     A       1938    1899 
   -------------------------
    Total    1938    1899
   -------------------------

  ==> Iterations <==

                           Total Energy        Delta E     RMS |[F,P]|

   @DF-RHF iter SAD: -4085.26104026034500   -4.08526e+03   0.00000e+00 
   @DF-RHF iter   1: -4071.49354692591260    1.37675e+01   7.92035e-04 ADIIS/DIIS
   @DF-RHF iter   2: -4072.90243617513806   -1.40889e+00   3.13116e-04 ADIIS/DIIS
   @DF-RHF iter   3: -4073.07453021778747   -1.72094e-01   1.09422e-04 ADIIS/DIIS
   @DF-RHF iter   4: -4073.09897274358582   -2.44425e-02   4.59833e-05 DIIS
   @DF-RHF iter   5: -4073.10403663225543   -5.06389e-03   1.35704e-05 DIIS
   @DF-RHF iter   6: -4073.10464741309124   -6.10781e-04   4.94272e-06 DIIS
   @DF-RHF iter   7: -4073.10484212038409   -1.94707e-04   2.67436e-06 DIIS
   @DF-RHF iter   8: -4073.10491170721480   -6.95868e-05   1.26582e-06 DIIS
   @DF-RHF iter   9: -4073.10493453630124   -2.28291e-05   4.64739e-07 DIIS
   @DF-RHF iter  10: -4073.10493607279022   -1.53649e-06   1.82446e-07 DIIS
   @DF-RHF iter  11: -4073.10493630914561   -2.36355e-07   6.62582e-08 DIIS
   @DF-RHF iter  12: -4073.10493634812246   -3.89769e-08   3.60636e-08 DIIS
   @DF-RHF iter  13: -4073.10493635827379   -1.01513e-08   1.27097e-08 DIIS
   @DF-RHF iter  14: -4073.10493635964121   -1.36743e-09   6.03341e-09 DIIS
  Energy and wave function converged.


  ==> Post-Iterations <==

    Orbital Energies [Eh]
    ---------------------

    Doubly Occupied:                                                      

       1A    -26.103404     2A    -26.103185     3A    -26.090370  
       4A    -26.090330     5A    -11.196231     6A    -11.196224  
       7A    -11.196216     8A    -11.196203     9A    -11.196118  
      10A    -11.196112    11A    -11.196111    12A    -11.196103  
      13A    -11.196075    14A    -11.196070    15A    -11.196061  
      16A    -11.196055    17A    -11.195229    18A    -11.195226  
      19A    -11.195218    20A    -11.195211    21A    -11.195113  
      22A    -11.195096    23A    -11.193189    24A    -11.193181  
      25A    -11.193102    26A    -11.193101    27A    -11.193098  
      28A    -11.193094    29A    -11.191909    30A    -11.191886  
      31A    -11.191756    32A    -11.191740    33A    -11.191733  
      34A    -11.191720    35A    -11.191651    36A    -11.191649  
      37A    -11.191647    38A    -11.191642    39A    -11.191633  
      40A    -11.191591    41A    -11.191578    42A    -11.191515  
      43A    -11.191427    44A    -11.191379    45A    -11.191274  
      46A    -11.191246    47A    -11.190892    48A    -11.190860  
      49A    -11.190717    50A    -11.190683    51A    -11.190504  
      52A    -11.190466    53A    -11.190142    54A    -11.190112  
      55A    -11.189959    56A    -11.189903    57A    -11.189866  
      58A    -11.189816    59A    -11.189663    60A    -11.189632  
      61A    -11.189614    62A    -11.189586    63A    -11.189452  
      64A    -11.189452    65A    -11.188095    66A    -11.188045  
      67A    -11.188026    68A    -11.187997    69A    -11.187996  
      70A    -11.187983    71A    -11.187945    72A    -11.187932  
      73A    -11.187692    74A    -11.187682    75A    -11.187638  
      76A    -11.187617    77A    -11.187214    78A    -11.187193  
      79A    -11.186408    80A    -11.186396    81A    -11.186347  
      82A    -11.186329    83A    -11.186160    84A    -11.186134  
      85A    -11.185348    86A    -11.185319    87A    -11.185276  
      88A    -11.185270    89A    -11.183122    90A    -11.183110  
      91A    -11.183000    92A    -11.182944    93A    -11.181266  
      94A    -11.181178    95A    -11.179915    96A    -11.179626  
      97A    -11.179209    98A    -11.178525    99A    -11.178128  
     100A    -11.177785   101A     -7.568837   102A     -1.443235  
     103A     -1.390615   104A     -1.381743   105A     -1.374346  
     106A     -1.178100   107A     -1.167437   108A     -1.167078  
     109A     -1.150942   110A     -1.150876   111A     -1.140478  
     112A     -1.133246   113A     -1.126874   114A     -1.115333  
     115A     -1.114755   116A     -1.106402   117A     -1.106324  
     118A     -1.084050   119A     -1.083951   120A     -1.079704  
     121A     -1.077747   122A     -1.077727   123A     -1.058953  
     124A     -1.045945   125A     -1.045231   126A     -1.043597  
     127A     -1.040496   128A     -1.040092   129A     -1.019123  
     130A     -1.018948   131A     -1.010134   132A     -1.010063  
     133A     -0.997139   134A     -0.997083   135A     -0.992943  
     136A     -0.978286   137A     -0.978273   138A     -0.971858  
     139A     -0.971847   140A     -0.971539   141A     -0.954205  
     142A     -0.947264   143A     -0.946968   144A     -0.939327  
     145A     -0.937251   146A     -0.934367   147A     -0.930038  
     148A     -0.929880   149A     -0.924901   150A     -0.900912  
     151A     -0.900810   152A     -0.888034   153A     -0.887936  
     154A     -0.839891   155A     -0.839860   156A     -0.833678  
     157A     -0.833640   158A     -0.830677   159A     -0.819769  
     160A     -0.819756   161A     -0.819290   162A     -0.818238  
     163A     -0.818056   164A     -0.805222   165A     -0.804743  
     166A     -0.784756   167A     -0.777333   168A     -0.777276  
     169A     -0.773865   170A     -0.773252   171A     -0.766296  
     172A     -0.766250   173A     -0.761968   174A     -0.761909  
     175A     -0.718904   176A     -0.718880   177A     -0.713125  
     178A     -0.713052   179A     -0.711510   180A     -0.711420  
     181A     -0.711112   182A     -0.698837   183A     -0.689385  
     184A     -0.679814   185A     -0.667541   186A     -0.658761  
     187A     -0.658653   188A     -0.656231   189A     -0.656205  
     190A     -0.656002   191A     -0.646407   192A     -0.643302  
     193A     -0.643271   194A     -0.635816   195A     -0.632015  
     196A     -0.631923   197A     -0.619126   198A     -0.619071  
     199A     -0.614811   200A     -0.614465   201A     -0.614412  
     202A     -0.610171   203A     -0.586084   204A     -0.583120  
     205A     -0.583098   206A     -0.582768   207A     -0.579301  
     208A     -0.579267   209A     -0.572805   210A     -0.572366  
     211A     -0.570988   212A     -0.570969   213A     -0.567120  
     214A     -0.566638   215A     -0.566581   216A     -0.560791  
     217A     -0.559375   218A     -0.557329   219A     -0.548649  
     220A     -0.548600   221A     -0.541847   222A     -0.541835  
     223A     -0.541764   224A     -0.529951   225A     -0.529280  
     226A     -0.529161   227A     -0.528972   228A     -0.528426  
     229A     -0.528370   230A     -0.527433   231A     -0.527213  
     232A     -0.526473   233A     -0.522059   234A     -0.521984  
     235A     -0.520041   236A     -0.515425   237A     -0.513001  
     238A     -0.512975   239A     -0.506489   240A     -0.506477  
     241A     -0.506238   242A     -0.502585   243A     -0.499934  
     244A     -0.499881   245A     -0.495966   246A     -0.495941  
     247A     -0.495887   248A     -0.492846   249A     -0.489143  
     250A     -0.489025   251A     -0.485166   252A     -0.483366  
     253A     -0.483323   254A     -0.479024   255A     -0.476059  
     256A     -0.473997   257A     -0.466319   258A     -0.466302  
     259A     -0.462527   260A     -0.460904   261A     -0.460668  
     262A     -0.460599   263A     -0.456322   264A     -0.448720  
     265A     -0.448673   266A     -0.447679   267A     -0.447613  
     268A     -0.443102   269A     -0.443073   270A     -0.440851  
     271A     -0.440634   272A     -0.438382   273A     -0.429764  
     274A     -0.427287   275A     -0.427239   276A     -0.422517  
     277A     -0.421940   278A     -0.421831   279A     -0.414829  
     280A     -0.414301   281A     -0.411534   282A     -0.410901  
     283A     -0.410473   284A     -0.406883   285A     -0.406267  
     286A     -0.398950   287A     -0.397252   288A     -0.397177  
     289A     -0.389492   290A     -0.373419   291A     -0.373253  
     292A     -0.369976   293A     -0.369328   294A     -0.367245  
     295A     -0.366966   296A     -0.363759   297A     -0.338136  
     298A     -0.337767   299A     -0.320065   300A     -0.319700  
     301A     -0.315173   302A     -0.315139   303A     -0.309069  
     304A     -0.285820   305A     -0.285551   306A     -0.281673  
     307A     -0.267258   308A     -0.267194   309A     -0.262932  
     310A     -0.258055   311A     -0.254555   312A     -0.236259  
     313A     -0.232558   314A     -0.229897   315A     -0.229321  
     316A     -0.218082   317A     -0.192441   318A     -0.181403  
     319A     -0.179394   320A     -0.135653   321A     -0.135343  

    Virtual:                                                              

     322A      0.056596   323A      0.056791   324A      0.094611  
     325A      0.094667   326A      0.095259   327A      0.096982  
     328A      0.097103   329A      0.102335   330A      0.102755  
     331A      0.104855   332A      0.105935   333A      0.106388  
     334A      0.110359   335A      0.110362   336A      0.121680  
     337A      0.121702   338A      0.130654   339A      0.131537  
     340A      0.134705   341A      0.137359   342A      0.137489  
     343A      0.138391   344A      0.139516   345A      0.140516  
     346A      0.140715   347A      0.141049   348A      0.141316  
     349A      0.142547   350A      0.142917   351A      0.142941  
     352A      0.148941   353A      0.149249   354A      0.149507  
     355A      0.149699   356A      0.149713   357A      0.150152  
     358A      0.157847   359A      0.161936   360A      0.162151  
     361A      0.162256   362A      0.163230   363A      0.163584  
     364A      0.163704   365A      0.164482   366A      0.170727  
     367A      0.171448   368A      0.171551   369A      0.171810  
     370A      0.172492   371A      0.173883   372A      0.174283  
     373A      0.175118   374A      0.175381   375A      0.176704  
     376A      0.178721   377A      0.179502   378A      0.179695  
     379A      0.179788   380A      0.187662   381A      0.187690  
     382A      0.189925   383A      0.195193   384A      0.195856  
     385A      0.196086   386A      0.198406   387A      0.198418  
     388A      0.202670   389A      0.203358   390A      0.203546  
     391A      0.204179   392A      0.204321   393A      0.212956  
     394A      0.214686   395A      0.215319   396A      0.215635  
     397A      0.216038   398A      0.217740   399A      0.219467  
     400A      0.221009   401A      0.221522   402A      0.222541  
     403A      0.223287   404A      0.223373   405A      0.224059  
     406A      0.225591   407A      0.225717   408A      0.226906  
     409A      0.226941   410A      0.228482   411A      0.230328  
     412A      0.233665   413A      0.234958   414A      0.239088  
     415A      0.239117   416A      0.241837   417A      0.242469  
     418A      0.243034   419A      0.243052   420A      0.243318  
     421A      0.243384   422A      0.250138   423A      0.251191  
     424A      0.251673   425A      0.252588   426A      0.253546  
     427A      0.256806   428A      0.257413   429A      0.257590  
     430A      0.259980   431A      0.260139   432A      0.260320  
     433A      0.261370   434A      0.262702   435A      0.263428  
     436A      0.268802   437A      0.269231   438A      0.271709  
     439A      0.271886   440A      0.272117   441A      0.272226  
     442A      0.273122   443A      0.273533   444A      0.273783  
     445A      0.274007   446A      0.274594   447A      0.275539  
     448A      0.275630   449A      0.275829   450A      0.277788  
     451A      0.277968   452A      0.279454   453A      0.279920  
     454A      0.284130   455A      0.284832   456A      0.289242  
     457A      0.290037   458A      0.291033   459A      0.291664  
     460A      0.291696   461A      0.291869   462A      0.293055  
     463A      0.293196   464A      0.294304   465A      0.294468  
     466A      0.295585   467A      0.297696   468A      0.298814  
     469A      0.302669   470A      0.304495   471A      0.305515  
     472A      0.307135   473A      0.308423   474A      0.310007  
     475A      0.314650   476A      0.315207   477A      0.315547  
     478A      0.315690   479A      0.318367   480A      0.318665  
     481A      0.320256   482A      0.320551   483A      0.321103  
     484A      0.321481   485A      0.323585   486A      0.324324  
     487A      0.325146   488A      0.327297   489A      0.327608  
     490A      0.328885   491A      0.330014   492A      0.330149  
     493A      0.337986   494A      0.338025   495A      0.338573  
     496A      0.338752   497A      0.340550   498A      0.341260  
     499A      0.341827   500A      0.343000   501A      0.343469  
     502A      0.343804   503A      0.344193   504A      0.346325  
     505A      0.348096   506A      0.348404   507A      0.349431  
     508A      0.349797   509A      0.352716   510A      0.352815  
     511A      0.358077   512A      0.358880   513A      0.359598  
     514A      0.359970   515A      0.362452   516A      0.365099  
     517A      0.365713   518A      0.365792   519A      0.366767  
     520A      0.367735   521A      0.367795   522A      0.369304  
     523A      0.369511   524A      0.370426   525A      0.371721  
     526A      0.372564   527A      0.372911   528A      0.374547  
     529A      0.374852   530A      0.374983   531A      0.376850  
     532A      0.378610   533A      0.378856   534A      0.379516  
     535A      0.380635   536A      0.382150   537A      0.384497  
     538A      0.384818   539A      0.385758   540A      0.386191  
     541A      0.388306   542A      0.388876   543A      0.389096  
     544A      0.390061   545A      0.390726   546A      0.391989  
     547A      0.393386   548A      0.395799   549A      0.396039  
     550A      0.396099   551A      0.396498   552A      0.398003  
     553A      0.398268   554A      0.401339   555A      0.402207  
     556A      0.402377   557A      0.403536   558A      0.406454  
     559A      0.406547   560A      0.406591   561A      0.408811  
     562A      0.409675   563A      0.415329   564A      0.415804  
     565A      0.417793   566A      0.418606   567A      0.420732  
     568A      0.422147   569A      0.422862   570A      0.423392  
     571A      0.423663   572A      0.425789   573A      0.425966  
     574A      0.428442   575A      0.430384   576A      0.430773  
     577A      0.433293   578A      0.434166   579A      0.436373  
     580A      0.436625   581A      0.438121   582A      0.438594  
     583A      0.438947   584A      0.441160   585A      0.442926  
     586A      0.443943   587A      0.444768   588A      0.445450  
     589A      0.446531   590A      0.449616   591A      0.449902  
     592A      0.454002   593A      0.454192   594A      0.455089  
     595A      0.455568   596A      0.456036   597A      0.457152  
     598A      0.457629   599A      0.458805   600A      0.459148  
     601A      0.459187   602A      0.460346   603A      0.461927  
     604A      0.462558   605A      0.463727   606A      0.464507  
     607A      0.464717   608A      0.465301   609A      0.465983  
     610A      0.466388   611A      0.469847   612A      0.470050  
     613A      0.471028   614A      0.471309   615A      0.472015  
     616A      0.472662   617A      0.472730   618A      0.473134  
     619A      0.473674   620A      0.475201   621A      0.475384  
     622A      0.476384   623A      0.476539   624A      0.476907  
     625A      0.477422   626A      0.479447   627A      0.481016  
     628A      0.481467   629A      0.481853   630A      0.483605  
     631A      0.484298   632A      0.484610   633A      0.485010  
     634A      0.486769   635A      0.487394   636A      0.489379  
     637A      0.489927   638A      0.490921   639A      0.491706  
     640A      0.495797   641A      0.496898   642A      0.497003  
     643A      0.497713   644A      0.499482   645A      0.500238  
     646A      0.500279   647A      0.500710   648A      0.502058  
     649A      0.503453   650A      0.504160   651A      0.504269  
     652A      0.504416   653A      0.505143   654A      0.506121  
     655A      0.507751   656A      0.509268   657A      0.510982  
     658A      0.511451   659A      0.512277   660A      0.515649  
     661A      0.516058   662A      0.517402   663A      0.517704  
     664A      0.518210   665A      0.518465   666A      0.518664  
     667A      0.520310   668A      0.521476   669A      0.521514  
     670A      0.522146   671A      0.524523   672A      0.524865  
     673A      0.526566   674A      0.526684   675A      0.527644  
     676A      0.529686   677A      0.530811   678A      0.531293  
     679A      0.535560   680A      0.536342   681A      0.538083  
     682A      0.538522   683A      0.539665   684A      0.540735  
     685A      0.541345   686A      0.542183   687A      0.543301  
     688A      0.544406   689A      0.544748   690A      0.545165  
     691A      0.546882   692A      0.547340   693A      0.549046  
     694A      0.549672   695A      0.550035   696A      0.550425  
     697A      0.550922   698A      0.551026   699A      0.552488  
     700A      0.556366   701A      0.557254   702A      0.558027  
     703A      0.558266   704A      0.560444   705A      0.562466  
     706A      0.563259   707A      0.563957   708A      0.564462  
     709A      0.565072   710A      0.566569   711A      0.566767  
     712A      0.566858   713A      0.567080   714A      0.567906  
     715A      0.569877   716A      0.570953   717A      0.572590  
     718A      0.576495   719A      0.577453   720A      0.577765  
     721A      0.578025   722A      0.581543   723A      0.582979  
     724A      0.583592   725A      0.583979   726A      0.585095  
     727A      0.586248   728A      0.587465   729A      0.590413  
     730A      0.591683   731A      0.591962   732A      0.594599  
     733A      0.597079   734A      0.598340   735A      0.599373  
     736A      0.599493   737A      0.601262   738A      0.602235  
     739A      0.606014   740A      0.607996   741A      0.608842  
     742A      0.610042   743A      0.613448   744A      0.614539  
     745A      0.617403   746A      0.620368   747A      0.621052  
     748A      0.622513   749A      0.624195   750A      0.626192  
     751A      0.627068   752A      0.627547   753A      0.630095  
     754A      0.630589   755A      0.631672   756A      0.631903  
     757A      0.635264   758A      0.636145   759A      0.638370  
     760A      0.638791   761A      0.641297   762A      0.642573  
     763A      0.645907   764A      0.646439   765A      0.648084  
     766A      0.648358   767A      0.650477   768A      0.651570  
     769A      0.652495   770A      0.653327   771A      0.654859  
     772A      0.655634   773A      0.658038   774A      0.661215  
     775A      0.663342   776A      0.667745   777A      0.668659  
     778A      0.671238   779A      0.671927   780A      0.673164  
     781A      0.674531   782A      0.675492   783A      0.675798  
     784A      0.676814   785A      0.679102   786A      0.684657  
     787A      0.685290   788A      0.685684   789A      0.686646  
     790A      0.687009   791A      0.688586   792A      0.696250  
     793A      0.696962   794A      0.699921   795A      0.700546  
     796A      0.707513   797A      0.708553   798A      0.709928  
     799A      0.710125   800A      0.712305   801A      0.714102  
     802A      0.714281   803A      0.718614   804A      0.722278  
     805A      0.724132   806A      0.726202   807A      0.727207  
     808A      0.729056   809A      0.730588   810A      0.731425  
     811A      0.733789   812A      0.735468   813A      0.738355  
     814A      0.743225   815A      0.744762   816A      0.747291  
     817A      0.750856   818A      0.754339   819A      0.756893  
     820A      0.757912   821A      0.758380   822A      0.759559  
     823A      0.760290   824A      0.763192   825A      0.764545  
     826A      0.766350   827A      0.766770   828A      0.768659  
     829A      0.774825   830A      0.777250   831A      0.779711  
     832A      0.781194   833A      0.785582   834A      0.798559  
     835A      0.799376   836A      0.801160   837A      0.801872  
     838A      0.806075   839A      0.807949   840A      0.809857  
     841A      0.810884   842A      0.812396   843A      0.814531  
     844A      0.818580   845A      0.821249   846A      0.823360  
     847A      0.824454   848A      0.827701   849A      0.832405  
     850A      0.842975   851A      0.846340   852A      0.853536  
     853A      0.855324   854A      0.856318   855A      0.857583  
     856A      0.863887   857A      0.864735   858A      0.866968  
     859A      0.868149   860A      0.869101   861A      0.869923  
     862A      0.871428   863A      0.875323   864A      0.879145  
     865A      0.880396   866A      0.880663   867A      0.881253  
     868A      0.882780   869A      0.883735   870A      0.884707  
     871A      0.887602   872A      0.891474   873A      0.893555  
     874A      0.894142   875A      0.896781   876A      0.898144  
     877A      0.900748   878A      0.903900   879A      0.906340  
     880A      0.909656   881A      0.911491   882A      0.912310  
     883A      0.913523   884A      0.913822   885A      0.918406  
     886A      0.921884   887A      0.922604   888A      0.923698  
     889A      0.925761   890A      0.927885   891A      0.928949  
     892A      0.930700   893A      0.931311   894A      0.932144  
     895A      0.932787   896A      0.935653   897A      0.938108  
     898A      0.939656   899A      0.940786   900A      0.941819  
     901A      0.943950   902A      0.944693   903A      0.945428  
     904A      0.948093   905A      0.949904   906A      0.951211  
     907A      0.953840   908A      0.955710   909A      0.958839  
     910A      0.961076   911A      0.962361   912A      0.963320  
     913A      0.964716   914A      0.966106   915A      0.966608  
     916A      0.970837   917A      0.971980   918A      0.972741  
     919A      0.974603   920A      0.978691   921A      0.980290  
     922A      0.981806   923A      0.982537   924A      0.983412  
     925A      0.984989   926A      0.985575   927A      0.988197  
     928A      0.988422   929A      0.989437   930A      0.993682  
     931A      0.995171   932A      0.996413   933A      0.998759  
     934A      0.999686   935A      1.000338   936A      1.001528  
     937A      1.003598   938A      1.005750   939A      1.007325  
     940A      1.008187   941A      1.009788   942A      1.011035  
     943A      1.012975   944A      1.014249   945A      1.016245  
     946A      1.016926   947A      1.017483   948A      1.018057  
     949A      1.020295   950A      1.021494   951A      1.021960  
     952A      1.022278   953A      1.024340   954A      1.024772  
     955A      1.028231   956A      1.029804   957A      1.031446  
     958A      1.032552   959A      1.040157   960A      1.041155  
     961A      1.045617   962A      1.048680   963A      1.050785  
     964A      1.055939   965A      1.056260   966A      1.057981  
     967A      1.059901   968A      1.061075   969A      1.063905  
     970A      1.065786   971A      1.066996   972A      1.070651  
     973A      1.071302   974A      1.071760   975A      1.072257  
     976A      1.072815   977A      1.073660   978A      1.080111  
     979A      1.080220   980A      1.080760   981A      1.082107  
     982A      1.087274   983A      1.087594   984A      1.088850  
     985A      1.091646   986A      1.093183   987A      1.093551  
     988A      1.094494   989A      1.096021   990A      1.103464  
     991A      1.105010   992A      1.108852   993A      1.112173  
     994A      1.112679   995A      1.114123   996A      1.114531  
     997A      1.115089   998A      1.115948   999A      1.117750  
    1000A      1.118463  1001A      1.119788  1002A      1.120951  
    1003A      1.122633  1004A      1.123523  1005A      1.124018  
    1006A      1.125998  1007A      1.128325  1008A      1.129733  
    1009A      1.130030  1010A      1.130988  1011A      1.131282  
    1012A      1.132046  1013A      1.133230  1014A      1.135935  
    1015A      1.137872  1016A      1.138135  1017A      1.138892  
    1018A      1.139881  1019A      1.140513  1020A      1.141130  
    1021A      1.141377  1022A      1.143830  1023A      1.144076  
    1024A      1.145551  1025A      1.146180  1026A      1.146748  
    1027A      1.147370  1028A      1.148651  1029A      1.149197  
    1030A      1.149377  1031A      1.149621  1032A      1.150479  
    1033A      1.150881  1034A      1.151791  1035A      1.152357  
    1036A      1.152983  1037A      1.154129  1038A      1.155286  
    1039A      1.156258  1040A      1.158428  1041A      1.160213  
    1042A      1.160395  1043A      1.163642  1044A      1.165176  
    1045A      1.167655  1046A      1.168176  1047A      1.170436  
    1048A      1.171257  1049A      1.172570  1050A      1.173575  
    1051A      1.174366  1052A      1.175892  1053A      1.178973  
    1054A      1.180059  1055A      1.183415  1056A      1.183499  
    1057A      1.185255  1058A      1.186673  1059A      1.188263  
    1060A      1.188625  1061A      1.192249  1062A      1.192808  
    1063A      1.194365  1064A      1.197930  1065A      1.198883  
    1066A      1.200947  1067A      1.201804  1068A      1.204190  
    1069A      1.205625  1070A      1.205998  1071A      1.207802  
    1072A      1.208018  1073A      1.209886  1074A      1.214800  
    1075A      1.216932  1076A      1.219339  1077A      1.220493  
    1078A      1.221235  1079A      1.221539  1080A      1.223957  
    1081A      1.225621  1082A      1.226709  1083A      1.227759  
    1084A      1.228651  1085A      1.230937  1086A      1.232848  
    1087A      1.236731  1088A      1.238241  1089A      1.238840  
    1090A      1.240381  1091A      1.242343  1092A      1.242745  
    1093A      1.245794  1094A      1.247534  1095A      1.251171  
    1096A      1.252265  1097A      1.252906  1098A      1.256450  
    1099A      1.257408  1100A      1.259750  1101A      1.261052  
    1102A      1.262221  1103A      1.265862  1104A      1.267421  
    1105A      1.271066  1106A      1.272690  1107A      1.274828  
    1108A      1.275892  1109A      1.277432  1110A      1.278879  
    1111A      1.280322  1112A      1.281759  1113A      1.281817  
    1114A      1.283637  1115A      1.286080  1116A      1.286368  
    1117A      1.287873  1118A      1.289399  1119A      1.292172  
    1120A      1.292486  1121A      1.297786  1122A      1.302814  
    1123A      1.303292  1124A      1.309499  1125A      1.315971  
    1126A      1.319508  1127A      1.319886  1128A      1.321642  
    1129A      1.324341  1130A      1.326139  1131A      1.326441  
    1132A      1.329526  1133A      1.329906  1134A      1.333826  
    1135A      1.335605  1136A      1.336437  1137A      1.339167  
    1138A      1.339593  1139A      1.347733  1140A      1.347951  
    1141A      1.353411  1142A      1.353859  1143A      1.358769  
    1144A      1.360198  1145A      1.361012  1146A      1.361421  
    1147A      1.363031  1148A      1.364565  1149A      1.369391  
    1150A      1.370935  1151A      1.371860  1152A      1.373933  
    1153A      1.379635  1154A      1.381518  1155A      1.382098  
    1156A      1.382946  1157A      1.383543  1158A      1.385644  
    1159A      1.387064  1160A      1.388422  1161A      1.388891  
    1162A      1.390428  1163A      1.392839  1164A      1.395734  
    1165A      1.395864  1166A      1.398382  1167A      1.399818  
    1168A      1.401234  1169A      1.402971  1170A      1.408160  
    1171A      1.409330  1172A      1.409768  1173A      1.411822  
    1174A      1.422870  1175A      1.424919  1176A      1.425545  
    1177A      1.427536  1178A      1.427742  1179A      1.429631  
    1180A      1.429954  1181A      1.430031  1182A      1.430816  
    1183A      1.432145  1184A      1.440269  1185A      1.441601  
    1186A      1.443086  1187A      1.443287  1188A      1.447280  
    1189A      1.452603  1190A      1.454394  1191A      1.454927  
    1192A      1.458059  1193A      1.458534  1194A      1.460199  
    1195A      1.464638  1196A      1.472646  1197A      1.473462  
    1198A      1.474303  1199A      1.476501  1200A      1.476683  
    1201A      1.476731  1202A      1.477815  1203A      1.478284  
    1204A      1.479206  1205A      1.483688  1206A      1.485675  
    1207A      1.489576  1208A      1.489728  1209A      1.491264  
    1210A      1.495797  1211A      1.498025  1212A      1.499954  
    1213A      1.501291  1214A      1.502514  1215A      1.503343  
    1216A      1.505194  1217A      1.506947  1218A      1.509812  
    1219A      1.510146  1220A      1.511012  1221A      1.514462  
    1222A      1.515724  1223A      1.520289  1224A      1.524322  
    1225A      1.525935  1226A      1.526680  1227A      1.527737  
    1228A      1.530668  1229A      1.535406  1230A      1.536760  
    1231A      1.539952  1232A      1.542151  1233A      1.543758  
    1234A      1.544330  1235A      1.548582  1236A      1.551066  
    1237A      1.553958  1238A      1.555956  1239A      1.557109  
    1240A      1.561667  1241A      1.562642  1242A      1.565938  
    1243A      1.567553  1244A      1.570986  1245A      1.573087  
    1246A      1.577605  1247A      1.585834  1248A      1.588690  
    1249A      1.589511  1250A      1.605440  1251A      1.606360  
    1252A      1.609251  1253A      1.611432  1254A      1.618352  
    1255A      1.618941  1256A      1.625882  1257A      1.642483  
    1258A      1.644962  1259A      1.653087  1260A      1.656905  
    1261A      1.667887  1262A      1.672262  1263A      1.676258  
    1264A      1.677696  1265A      1.679148  1266A      1.680601  
    1267A      1.682384  1268A      1.683801  1269A      1.684564  
    1270A      1.686623  1271A      1.686946  1272A      1.687610  
    1273A      1.689100  1274A      1.689751  1275A      1.690769  
    1276A      1.692026  1277A      1.692784  1278A      1.695080  
    1279A      1.696893  1280A      1.698810  1281A      1.701226  
    1282A      1.701506  1283A      1.703147  1284A      1.704638  
    1285A      1.705769  1286A      1.707741  1287A      1.708538  
    1288A      1.708848  1289A      1.710451  1290A      1.711640  
    1291A      1.714159  1292A      1.714809  1293A      1.715220  
    1294A      1.716576  1295A      1.717483  1296A      1.718397  
    1297A      1.720734  1298A      1.723112  1299A      1.725153  
    1300A      1.726073  1301A      1.726473  1302A      1.728745  
    1303A      1.729540  1304A      1.729746  1305A      1.737989  
    1306A      1.738234  1307A      1.739826  1308A      1.740271  
    1309A      1.740599  1310A      1.741375  1311A      1.742377  
    1312A      1.743536  1313A      1.748690  1314A      1.749703  
    1315A      1.750580  1316A      1.756175  1317A      1.756759  
    1318A      1.762066  1319A      1.764023  1320A      1.767058  
    1321A      1.769318  1322A      1.772033  1323A      1.773222  
    1324A      1.777400  1325A      1.779660  1326A      1.780994  
    1327A      1.782152  1328A      1.783169  1329A      1.784095  
    1330A      1.786049  1331A      1.788995  1332A      1.790508  
    1333A      1.792631  1334A      1.793181  1335A      1.795909  
    1336A      1.795986  1337A      1.796951  1338A      1.807854  
    1339A      1.816716  1340A      1.818737  1341A      1.818990  
    1342A      1.819948  1343A      1.831014  1344A      1.834470  
    1345A      1.835551  1346A      1.836340  1347A      1.845894  
    1348A      1.848633  1349A      1.852277  1350A      1.852897  
    1351A      1.864777  1352A      1.876505  1353A      1.876761  
    1354A      1.887857  1355A      1.890994  1356A      1.892488  
    1357A      1.894161  1358A      1.894320  1359A      1.894636  
    1360A      1.897650  1361A      1.898941  1362A      1.901249  
    1363A      1.901659  1364A      1.902757  1365A      1.908968  
    1366A      1.914582  1367A      1.917268  1368A      1.917883  
    1369A      1.919489  1370A      1.920442  1371A      1.922310  
    1372A      1.928861  1373A      1.929345  1374A      1.932332  
    1375A      1.933630  1376A      1.933757  1377A      1.935583  
    1378A      1.937222  1379A      1.939090  1380A      1.939983  
    1381A      1.940176  1382A      1.941038  1383A      1.941599  
    1384A      1.946645  1385A      1.946797  1386A      1.950910  
    1387A      1.952945  1388A      1.953598  1389A      1.956113  
    1390A      1.959106  1391A      1.959293  1392A      1.960952  
    1393A      1.961639  1394A      1.969958  1395A      1.970770  
    1396A      1.974517  1397A      1.974978  1398A      1.976633  
    1399A      1.984709  1400A      1.988043  1401A      1.990237  
    1402A      1.991123  1403A      1.993678  1404A      1.994549  
    1405A      1.996651  1406A      1.997859  1407A      1.999731  
    1408A      2.001263  1409A      2.001386  1410A      2.006282  
    1411A      2.006975  1412A      2.007455  1413A      2.010725  
    1414A      2.012201  1415A      2.012678  1416A      2.014654  
    1417A      2.017053  1418A      2.018514  1419A      2.021814  
    1420A      2.024371  1421A      2.026656  1422A      2.026834  
    1423A      2.027862  1424A      2.029069  1425A      2.031691  
    1426A      2.034118  1427A      2.035399  1428A      2.038586  
    1429A      2.040149  1430A      2.041460  1431A      2.044502  
    1432A      2.046165  1433A      2.048644  1434A      2.053398  
    1435A      2.054258  1436A      2.057629  1437A      2.058783  
    1438A      2.059918  1439A      2.061501  1440A      2.063831  
    1441A      2.065260  1442A      2.065738  1443A      2.070048  
    1444A      2.071983  1445A      2.079425  1446A      2.080316  
    1447A      2.082065  1448A      2.082687  1449A      2.084733  
    1450A      2.085203  1451A      2.087188  1452A      2.088899  
    1453A      2.089376  1454A      2.090419  1455A      2.090494  
    1456A      2.092375  1457A      2.097110  1458A      2.098354  
    1459A      2.100898  1460A      2.102068  1461A      2.103905  
    1462A      2.104913  1463A      2.105440  1464A      2.106765  
    1465A      2.107232  1466A      2.110536  1467A      2.115239  
    1468A      2.117671  1469A      2.120121  1470A      2.122665  
    1471A      2.124875  1472A      2.127068  1473A      2.128952  
    1474A      2.129815  1475A      2.132478  1476A      2.134730  
    1477A      2.136312  1478A      2.136755  1479A      2.139484  
    1480A      2.143071  1481A      2.146632  1482A      2.147314  
    1483A      2.148873  1484A      2.150509  1485A      2.151144  
    1486A      2.152761  1487A      2.153399  1488A      2.154292  
    1489A      2.154898  1490A      2.155564  1491A      2.155843  
    1492A      2.156831  1493A      2.157217  1494A      2.157765  
    1495A      2.158973  1496A      2.160818  1497A      2.161132  
    1498A      2.161884  1499A      2.167688  1500A      2.169108  
    1501A      2.169198  1502A      2.170291  1503A      2.170985  
    1504A      2.176247  1505A      2.178267  1506A      2.178580  
    1507A      2.180263  1508A      2.181805  1509A      2.183787  
    1510A      2.184609  1511A      2.184728  1512A      2.185276  
    1513A      2.185676  1514A      2.186963  1515A      2.189230  
    1516A      2.191255  1517A      2.193603  1518A      2.194136  
    1519A      2.195046  1520A      2.195312  1521A      2.195822  
    1522A      2.199674  1523A      2.200876  1524A      2.202468  
    1525A      2.203704  1526A      2.205004  1527A      2.207638  
    1528A      2.209351  1529A      2.211322  1530A      2.212917  
    1531A      2.213563  1532A      2.215102  1533A      2.216183  
    1534A      2.219797  1535A      2.222045  1536A      2.222801  
    1537A      2.225136  1538A      2.228197  1539A      2.228791  
    1540A      2.229170  1541A      2.230070  1542A      2.233206  
    1543A      2.235644  1544A      2.236384  1545A      2.240278  
    1546A      2.243395  1547A      2.247929  1548A      2.250453  
    1549A      2.251293  1550A      2.251546  1551A      2.253588  
    1552A      2.258693  1553A      2.261090  1554A      2.263677  
    1555A      2.264931  1556A      2.265554  1557A      2.266663  
    1558A      2.267988  1559A      2.268754  1560A      2.269651  
    1561A      2.271102  1562A      2.274019  1563A      2.275871  
    1564A      2.277596  1565A      2.278835  1566A      2.281890  
    1567A      2.283861  1568A      2.285979  1569A      2.287356  
    1570A      2.288435  1571A      2.289667  1572A      2.291232  
    1573A      2.291778  1574A      2.293342  1575A      2.295616  
    1576A      2.296141  1577A      2.298078  1578A      2.299270  
    1579A      2.300387  1580A      2.301638  1581A      2.303285  
    1582A      2.306596  1583A      2.309330  1584A      2.310405  
    1585A      2.312947  1586A      2.313671  1587A      2.315307  
    1588A      2.317892  1589A      2.326804  1590A      2.332408  
    1591A      2.334900  1592A      2.336811  1593A      2.340309  
    1594A      2.342570  1595A      2.345127  1596A      2.348838  
    1597A      2.351104  1598A      2.352955  1599A      2.358955  
    1600A      2.359890  1601A      2.363493  1602A      2.367744  
    1603A      2.368072  1604A      2.371048  1605A      2.371579  
    1606A      2.377297  1607A      2.389707  1608A      2.392841  
    1609A      2.393965  1610A      2.396584  1611A      2.397369  
    1612A      2.397655  1613A      2.401868  1614A      2.404806  
    1615A      2.404889  1616A      2.405517  1617A      2.407696  
    1618A      2.409895  1619A      2.411421  1620A      2.411551  
    1621A      2.413630  1622A      2.414069  1623A      2.414449  
    1624A      2.420228  1625A      2.424424  1626A      2.429074  
    1627A      2.430881  1628A      2.448758  1629A      2.451830  
    1630A      2.452269  1631A      2.455388  1632A      2.457790  
    1633A      2.459466  1634A      2.463678  1635A      2.474747  
    1636A      2.476678  1637A      2.486699  1638A      2.490058  
    1639A      2.494732  1640A      2.496440  1641A      2.500162  
    1642A      2.507350  1643A      2.512237  1644A      2.513107  
    1645A      2.524300  1646A      2.525678  1647A      2.530060  
    1648A      2.533604  1649A      2.535759  1650A      2.536477  
    1651A      2.539205  1652A      2.540093  1653A      2.545520  
    1654A      2.557933  1655A      2.563443  1656A      2.569258  
    1657A      2.572852  1658A      2.575212  1659A      2.576696  
    1660A      2.580883  1661A      2.587515  1662A      2.608656  
    1663A      2.610135  1664A      2.610832  1665A      2.611529  
    1666A      2.613283  1667A      2.613793  1668A      2.618241  
    1669A      2.621904  1670A      2.623340  1671A      2.627382  
    1672A      2.629668  1673A      2.631062  1674A      2.632819  
    1675A      2.636445  1676A      2.639345  1677A      2.646649  
    1678A      2.649073  1679A      2.650730  1680A      2.652861  
    1681A      2.653292  1682A      2.653810  1683A      2.656458  
    1684A      2.657226  1685A      2.660723  1686A      2.669801  
    1687A      2.670867  1688A      2.681206  1689A      2.682462  
    1690A      2.682805  1691A      2.683893  1692A      2.687028  
    1693A      2.687907  1694A      2.702480  1695A      2.710052  
    1696A      2.710727  1697A      2.714496  1698A      2.715367  
    1699A      2.716922  1700A      2.718675  1701A      2.720753  
    1702A      2.722780  1703A      2.723850  1704A      2.724935  
    1705A      2.734113  1706A      2.736856  1707A      2.737026  
    1708A      2.739427  1709A      2.740262  1710A      2.744500  
    1711A      2.746629  1712A      2.747442  1713A      2.756303  
    1714A      2.759040  1715A      2.759589  1716A      2.760539  
    1717A      2.760645  1718A      2.763606  1719A      2.764588  
    1720A      2.765755  1721A      2.771346  1722A      2.784861  
    1723A      2.794040  1724A      2.796610  1725A      2.796842  
    1726A      2.797572  1727A      2.799914  1728A      2.800873  
    1729A      2.824154  1730A      2.837106  1731A      2.845376  
    1732A      2.851287  1733A      2.851731  1734A      2.854404  
    1735A      2.863004  1736A      2.871198  1737A      2.871677  
    1738A      2.873116  1739A      2.873633  1740A      2.878407  
    1741A      2.886063  1742A      2.886970  1743A      2.888402  
    1744A      2.889212  1745A      2.892747  1746A      2.895174  
    1747A      2.903089  1748A      2.909140  1749A      2.911747  
    1750A      2.913084  1751A      2.914181  1752A      2.917049  
    1753A      2.927299  1754A      2.936304  1755A      2.937006  
    1756A      2.939729  1757A      2.940337  1758A      2.944557  
    1759A      2.955030  1760A      2.971719  1761A      2.972517  
    1762A      2.983140  1763A      2.983659  1764A      2.990350  
    1765A      2.993967  1766A      2.996424  1767A      3.002504  
    1768A      3.004541  1769A      3.028788  1770A      3.032147  
    1771A      3.032783  1772A      3.042539  1773A      3.059500  
    1774A      3.063295  1775A      3.064543  1776A      3.098798  
    1777A      3.100042  1778A      3.105949  1779A      3.107740  
    1780A      3.117981  1781A      3.119233  1782A      3.123134  
    1783A      3.127758  1784A      3.128080  1785A      3.129584  
    1786A      3.142185  1787A      3.175076  1788A      3.178912  
    1789A      3.179720  1790A      3.191462  1791A      3.197289  
    1792A      3.197671  1793A      3.202435  1794A      3.206972  
    1795A      3.208590  1796A      3.209270  1797A      3.217228  
    1798A      3.218241  1799A      3.219496  1800A      3.220432  
    1801A      3.221847  1802A      3.226719  1803A      3.237954  
    1804A      3.238178  1805A      3.241358  1806A      3.243542  
    1807A      3.255515  1808A      3.259475  1809A      3.280562  
    1810A      3.286525  1811A      3.295344  1812A      3.327329  
    1813A      3.328500  1814A      3.331272  1815A      3.332381  
    1816A      3.334273  1817A      3.335431  1818A      3.340864  
    1819A      3.343102  1820A      3.344128  1821A      3.350212  
    1822A      3.368250  1823A      3.373465  1824A      3.378937  
    1825A      3.387822  1826A      3.433453  1827A      3.434459  
    1828A      3.435803  1829A      3.475474  1830A      3.491661  
    1831A      3.518613  1832A      3.523615  1833A      3.533157  
    1834A      3.536872  1835A      3.539479  1836A      3.542489  
    1837A      3.550885  1838A      3.551956  1839A      3.555095  
    1840A      3.561614  1841A      3.579542  1842A      3.586479  
    1843A      3.588449  1844A      3.622405  1845A      3.645195  
    1846A      3.650286  1847A      3.654878  1848A      3.658868  
    1849A      3.668355  1850A      3.717699  1851A      3.736987  
    1852A      3.740120  1853A      3.751044  1854A      3.780815  
    1855A      3.823521  1856A      3.828778  1857A      3.838529  
    1858A      3.843113  1859A      3.845971  1860A      3.853570  
    1861A      3.912770  1862A      3.919078  1863A      3.941252  
    1864A      3.947837  1865A      3.987667  1866A      3.992478  
    1867A      4.017889  1868A      4.018201  1869A      4.022675  
    1870A      4.034897  1871A      4.040859  1872A      4.048894  
    1873A      4.072093  1874A      4.098201  1875A      4.101487  
    1876A      4.151148  1877A      4.159177  1878A      4.162999  
    1879A      4.181563  1880A      4.182252  1881A      4.187507  
    1882A      4.202964  1883A      4.216972  1884A      4.225123  
    1885A      4.239489  1886A      4.259863  1887A      4.283368  
    1888A      4.396189  1889A      4.420579  1890A      4.440560  
    1891A      4.443154  1892A      4.453516  1893A      4.545404  
    1894A      4.639192  1895A      4.645364  1896A      4.658205  
    1897A      4.729790  1898A      4.764529  1899A      4.765594  

    Final Occupation by Irrep:
              A 
    DOCC [   321 ]
    NA   [   321 ]
    NB   [   321 ]

  @DF-RHF Final Energy: -4073.10493635964121

   => Energetics <=

    Nuclear Repulsion Energy =          17773.7722186896462517
    One-Electron Energy =              -41037.3206743935515988
    Two-Electron Energy =               19190.4435193442623131
    Total Energy =                      -4073.1049363596430339

Computation Completed


Properties will be evaluated at   0.000000,   0.000000,   0.000000 [a0]

Properties computed using the SCF density matrix


 Multipole Moments:

 ------------------------------------------------------------------------------------
     Multipole            Electronic (a.u.)      Nuclear  (a.u.)        Total (a.u.)
 ------------------------------------------------------------------------------------

 L = 1.  Multiply by 2.5417464519 to convert [e a0] to [Debye]
 Dipole X            :          0.0016191           -0.0001188            0.0015003
 Dipole Y            :          0.0014728           -0.0002727            0.0012001
 Dipole Z            :         15.8927389          -20.2342693           -4.3415305
 Magnitude           :                                                    4.3415309

 ------------------------------------------------------------------------------------

*** tstop() called on n2cn0485 at Wed Jan 24 22:38:05 2024
Module time:
	user time   =   25847.65 seconds =     430.79 minutes
	system time =    1684.00 seconds =      28.07 minutes
	total time  =      10644 seconds =     177.40 minutes
Total time:
	user time   =   25847.65 seconds =     430.79 minutes
	system time =    1684.00 seconds =      28.07 minutes
	total time  =      10644 seconds =     177.40 minutes

  //>>>>>>>>>>>>>>>>>>>>>>>>>>>>>>>>>>>//
  //            Monomer A HF           //
  //<<<<<<<<<<<<<<<<<<<<<<<<<<<<<<<<<<<//

   => Libint2 <=

    Primary   basis highest AM E, G, H:  5, 4, 3
    Auxiliary basis highest AM E, G, H:  6, 5, 4
    Onebody   basis highest AM E, G, H:  6, 5, 4
    Solid Harmonics ordering:            gaussian

*** tstart() called on n2cn0485
*** at Wed Jan 24 22:38:05 2024

   => Loading Basis Set <=

    Name: JUN-CC-PVDZ
    Role: ORBITAL
    Keyword: BASIS
    atoms 1                                                   entry B          line   130 file /opt/software/pc2/EB-SW/software/PSI4/1.9-foss-2022a/share/psi4/basis/jun-cc-pvdz.gbs 
    atoms 2-5                                                 entry F          line   266 file /opt/software/pc2/EB-SW/software/PSI4/1.9-foss-2022a/share/psi4/basis/jun-cc-pvdz.gbs 
    atoms 6-23, 30-42, 45-59, 62-78, 81-93, 98-108, 111-119   entry C          line   164 file /opt/software/pc2/EB-SW/software/PSI4/1.9-foss-2022a/share/psi4/basis/jun-cc-pvdz.gbs 
    atoms 24-29, 43-44, 60-61, 79-80, 94-97, 109-110, 120-125 entry H          line    36 file /opt/software/pc2/EB-SW/software/PSI4/1.9-foss-2022a/share/psi4/basis/jun-cc-pvdz.gbs 


         ---------------------------------------------------------
                                   SCF
               by Justin Turney, Rob Parrish, Andy Simmonett
                          and Daniel G. A. Smith
                              RHF Reference
                       16 Threads,  44822 MiB Core
         ---------------------------------------------------------

  ==> Geometry <==

    Molecular point group: c1
    Full point group: C1

    Geometry (in Angstrom), charge = -1, multiplicity = 1:

       Center              X                  Y                   Z               Mass       
    ------------   -----------------  -----------------  -----------------  -----------------
         B           -0.000050191042     0.000351518223     3.165814129302    11.009305360000
         F           -1.153601191042     0.000062518223     3.981461129302    18.998403162730
         F            1.153656808958    -0.000566481777     3.981461129302    18.998403162730
         F           -0.000023191042    -1.153622481777     2.350180129302    18.998403162730
         F           -0.000023191042     1.153992518223     2.350180129302    18.998403162730
      Gh(C)          -3.668445455062     7.803766688305    -0.232279829363    12.000000000000
      Gh(C)          -4.847602910388     7.131256349563    -0.234646404295    12.000000000000
      Gh(C)          -4.894963490217     5.696344921754    -0.235219315393    12.000000000000
      Gh(C)          -3.653744869815     4.980744859182    -0.227558873664    12.000000000000
      Gh(C)          -2.409429312536     7.113995554897    -0.232085487102    12.000000000000
      Gh(C)          -2.425481535146     5.681136469126    -0.239090375973    12.000000000000
      Gh(C)          -1.194748207477     7.786158712532    -0.230613306560    12.000000000000
      Gh(C)           0.037954837895     7.099436163980    -0.232784010865    12.000000000000
      Gh(C)           0.030328396378     5.669504077927    -0.238267395781    12.000000000000
      Gh(C)          -1.200988698947     4.969284866138    -0.229297661848    12.000000000000
      Gh(C)           1.277953634773     7.772873961417    -0.231408162305    12.000000000000
      Gh(C)           2.485353893683     7.087711403460    -0.233682650210    12.000000000000
      Gh(C)           2.486124493876     5.654785328463    -0.240620399197    12.000000000000
      Gh(C)           1.254078728602     4.956092631887    -0.228992457609    12.000000000000
      Gh(C)           3.751710400364     7.763926669203    -0.233555798829    12.000000000000
      Gh(C)           4.923561865144     7.078795295213    -0.235612279537    12.000000000000
      Gh(C)           4.955603080284     5.643461981592    -0.235772692344    12.000000000000
      Gh(C)           3.706797343163     4.941224726556    -0.230681132174    12.000000000000
      Gh(H)          -3.658525328800     8.890841937358    -0.230594841112     1.007825032230
      Gh(H)          -1.189217520798     8.874135605583    -0.226641430119     1.007825032230
      Gh(H)           1.284290047845     8.860847953711    -0.227249338164     1.007825032230
      Gh(H)           3.753537895758     8.851049797195    -0.232033274513     1.007825032230
      Gh(H)           5.869954512165     7.613809352878    -0.236537646579     1.007825032230
      Gh(H)          -5.788235898544     7.676316731157    -0.236206251651     1.007825032230
      Gh(C)          -6.091978149738     4.993274531866    -0.237091555884    12.000000000000
[...]
    1510A      2.133697  1511A      2.136071  1512A      2.139463  
    1513A      2.141160  1514A      2.142516  1515A      2.143462  
    1516A      2.144699  1517A      2.145133  1518A      2.146743  
    1519A      2.150606  1520A      2.151347  1521A      2.159400  
    1522A      2.160879  1523A      2.161002  1524A      2.161223  
    1525A      2.162039  1526A      2.163387  1527A      2.164622  
    1528A      2.166577  1529A      2.168473  1530A      2.172238  
    1531A      2.172946  1532A      2.177181  1533A      2.180994  
    1534A      2.183569  1535A      2.183769  1536A      2.189963  
    1537A      2.192146  1538A      2.192770  1539A      2.194464  
    1540A      2.196110  1541A      2.197160  1542A      2.200329  
    1543A      2.201890  1544A      2.202403  1545A      2.203643  
    1546A      2.204600  1547A      2.205186  1548A      2.207650  
    1549A      2.211125  1550A      2.212047  1551A      2.215303  
    1552A      2.217531  1553A      2.220086  1554A      2.220440  
    1555A      2.222923  1556A      2.224955  1557A      2.225460  
    1558A      2.228090  1559A      2.230072  1560A      2.232079  
    1561A      2.232453  1562A      2.233041  1563A      2.233874  
    1564A      2.237606  1565A      2.240909  1566A      2.243458  
    1567A      2.244733  1568A      2.247441  1569A      2.248306  
    1570A      2.248846  1571A      2.257626  1572A      2.263638  
    1573A      2.265975  1574A      2.269648  1575A      2.269995  
    1576A      2.274413  1577A      2.275415  1578A      2.278737  
    1579A      2.279510  1580A      2.283778  1581A      2.285307  
    1582A      2.292528  1583A      2.295773  1584A      2.297150  
    1585A      2.297526  1586A      2.304622  1587A      2.306115  
    1588A      2.310566  1589A      2.320826  1590A      2.325453  
    1591A      2.327512  1592A      2.328874  1593A      2.330351  
    1594A      2.330705  1595A      2.331380  1596A      2.334191  
    1597A      2.335442  1598A      2.336282  1599A      2.337517  
    1600A      2.341731  1601A      2.342374  1602A      2.342534  
    1603A      2.344342  1604A      2.346089  1605A      2.346511  
    1606A      2.346830  1607A      2.349814  1608A      2.350940  
    1609A      2.367804  1610A      2.374182  1611A      2.378257  
    1612A      2.384060  1613A      2.388888  1614A      2.392488  
    1615A      2.396966  1616A      2.402076  1617A      2.404644  
    1618A      2.418269  1619A      2.420829  1620A      2.422276  
    1621A      2.426498  1622A      2.428397  1623A      2.434494  
    1624A      2.444114  1625A      2.444566  1626A      2.453251  
    1627A      2.455593  1628A      2.465074  1629A      2.466057  
    1630A      2.468479  1631A      2.468792  1632A      2.472003  
    1633A      2.472380  1634A      2.491622  1635A      2.491930  
    1636A      2.502352  1637A      2.502469  1638A      2.506950  
    1639A      2.508522  1640A      2.512221  1641A      2.517039  
    1642A      2.540356  1643A      2.540418  1644A      2.541033  
    1645A      2.543170  1646A      2.545913  1647A      2.547934  
    1648A      2.548261  1649A      2.550597  1650A      2.551275  
    1651A      2.556228  1652A      2.556805  1653A      2.556956  
    1654A      2.564331  1655A      2.571702  1656A      2.571796  
    1657A      2.581917  1658A      2.585572  1659A      2.585696  
    1660A      2.586446  1661A      2.588746  1662A      2.589506  
    1663A      2.590014  1664A      2.593290  1665A      2.594151  
    1666A      2.602780  1667A      2.603471  1668A      2.614461  
    1669A      2.614687  1670A      2.615017  1671A      2.615559  
    1672A      2.619176  1673A      2.620098  1674A      2.633804  
    1675A      2.640835  1676A      2.642427  1677A      2.645936  
    1678A      2.646921  1679A      2.649507  1680A      2.650726  
    1681A      2.650930  1682A      2.653952  1683A      2.656544  
    1684A      2.657612  1685A      2.666245  1686A      2.668543  
    1687A      2.669154  1688A      2.671401  1689A      2.671662  
    1690A      2.674055  1691A      2.679737  1692A      2.681419  
    1693A      2.686908  1694A      2.687857  1695A      2.690786  
    1696A      2.691684  1697A      2.692067  1698A      2.693413  
    1699A      2.695376  1700A      2.696916  1701A      2.702433  
    1702A      2.709614  1703A      2.727047  1704A      2.730970  
    1705A      2.731137  1706A      2.731839  1707A      2.732081  
    1708A      2.733270  1709A      2.755820  1710A      2.762583  
    1711A      2.772215  1712A      2.778499  1713A      2.781356  
    1714A      2.782727  1715A      2.783936  1716A      2.799832  
    1717A      2.800402  1718A      2.802364  1719A      2.802411  
    1720A      2.804448  1721A      2.813101  1722A      2.815093  
    1723A      2.816938  1724A      2.817223  1725A      2.818591  
    1726A      2.822841  1727A      2.830887  1728A      2.832301  
    1729A      2.841289  1730A      2.842302  1731A      2.842965  
    1732A      2.845159  1733A      2.846002  1734A      2.848605  
    1735A      2.865021  1736A      2.865558  1737A      2.871258  
    1738A      2.871624  1739A      2.872642  1740A      2.876038  
    1741A      2.896101  1742A      2.897016  1743A      2.916628  
    1744A      2.917616  1745A      2.918208  1746A      2.923830  
    1747A      2.928405  1748A      2.932526  1749A      2.935443  
    1750A      2.937074  1751A      2.957984  1752A      2.964295  
    1753A      2.966294  1754A      2.972988  1755A      2.976413  
    1756A      2.992709  1757A      3.000304  1758A      3.030426  
    1759A      3.031536  1760A      3.040430  1761A      3.041779  
    1762A      3.047462  1763A      3.049874  1764A      3.052646  
    1765A      3.057974  1766A      3.058637  1767A      3.068530  
    1768A      3.073491  1769A      3.111427  1770A      3.113653  
    1771A      3.114555  1772A      3.123845  1773A      3.129495  
    1774A      3.129855  1775A      3.138700  1776A      3.139880  
    1777A      3.143438  1778A      3.143618  1779A      3.150775  
    1780A      3.151381  1781A      3.153259  1782A      3.153528  
    1783A      3.155941  1784A      3.162240  1785A      3.169416  
    1786A      3.173302  1787A      3.178542  1788A      3.179325  
    1789A      3.194280  1790A      3.195020  1791A      3.221994  
    1792A      3.261172  1793A      3.262485  1794A      3.262712  
    1795A      3.263303  1796A      3.263549  1797A      3.266176  
    1798A      3.273051  1799A      3.274501  1800A      3.276491  
    1801A      3.276667  1802A      3.298462  1803A      3.301938  
    1804A      3.307346  1805A      3.312232  1806A      3.362699  
    1807A      3.363193  1808A      3.395935  1809A      3.418707  
    1810A      3.441907  1811A      3.450128  1812A      3.458612  
    1813A      3.460699  1814A      3.465149  1815A      3.468393  
    1816A      3.472702  1817A      3.477630  1818A      3.479664  
    1819A      3.486224  1820A      3.498413  1821A      3.504334  
    1822A      3.511091  1823A      3.544492  1824A      3.566744  
    1825A      3.578482  1826A      3.582763  1827A      3.590883  
    1828A      3.600389  1829A      3.645612  1830A      3.664156  
    1831A      3.667926  1832A      3.676633  1833A      3.708660  
    1834A      3.755922  1835A      3.761016  1836A      3.764393  
    1837A      3.771072  1838A      3.778838  1839A      3.795158  
    1840A      3.844767  1841A      3.849645  1842A      3.872656  
    1843A      3.878480  1844A      3.919525  1845A      3.924907  
    1846A      3.948572  1847A      3.949494  1848A      3.953779  
    1849A      3.964612  1850A      3.972179  1851A      3.977371  
    1852A      3.994872  1853A      4.024813  1854A      4.027690  
    1855A      4.088998  1856A      4.245205  1857A      4.303406  
    1858A      4.362727  1859A      4.431027  1860A      4.469118  
    1861A      4.593735  1862A      4.617224  1863A      5.758332  
    1864A      5.759682  1865A      5.769554  1866A      5.774220  
    1867A      5.775646  1868A      5.779585  1869A      5.792328  
    1870A      5.807785  1871A      5.824519  1872A      5.837283  
    1873A      5.847473  1874A      6.034501  1875A      6.036473  
    1876A      6.043405  1877A      6.216342  1878A      6.336437  
    1879A      6.337201  1880A      6.393754  1881A      6.394998  
    1882A      6.399369  1883A      7.254115  1884A      7.316595  
    1885A      7.331526  1886A      7.353784  1887A      7.490268  
    1888A      7.496756  1889A      7.515592  1890A      7.584258  
    1891A      7.592478  1892A      7.620534  1893A      7.803466  
    1894A      7.871484  1895A     12.790903  1896A     42.930473  
    1897A     42.957348  1898A     42.983958  1899A     42.986963  

    Final Occupation by Irrep:
              A 
    DOCC [   300 ]
    NA   [   300 ]
    NB   [   300 ]

  @DF-RHF Final Energy: -3650.33991662386325

   => Energetics <=

    Nuclear Repulsion Energy =          15611.4211649754324753
    One-Electron Energy =              -36072.1437212503951741
    Two-Electron Energy =               16810.3826396510994527
    Total Energy =                      -3650.3399166238632461

Computation Completed


Properties will be evaluated at   0.000000,   0.000000,   0.000000 [a0]

Properties computed using the SCF density matrix


 Multipole Moments:

 ------------------------------------------------------------------------------------
     Multipole            Electronic (a.u.)      Nuclear  (a.u.)        Total (a.u.)
 ------------------------------------------------------------------------------------

 L = 1.  Multiply by 2.5417464519 to convert [e a0] to [Debye]
 Dipole X            :          0.0002009            0.0001983            0.0003992
 Dipole Y            :          0.0013780           -0.0013163            0.0000617
 Dipole Z            :        265.5174129         -265.5180999           -0.0006871
 Magnitude           :                                                    0.0007970

 ------------------------------------------------------------------------------------

*** tstop() called on n2cn0485 at Thu Jan 25 02:14:22 2024
Module time:
	user time   =   16479.66 seconds =     274.66 minutes
	system time =    1393.13 seconds =      23.22 minutes
	total time  =      11014 seconds =     183.57 minutes
Total time:
	user time   =   46676.56 seconds =     777.94 minutes
	system time =    3502.40 seconds =      58.37 minutes
	total time  =      23621 seconds =     393.68 minutes
  Constructing Basis Sets for SAPT...

   => Loading Basis Set <=

    Name: (JUN-CC-PVDZ AUX)
    Role: RIFIT
    Keyword: DF_BASIS_SAPT
    atoms 1                                                   entry B          line    56 file /opt/software/pc2/EB-SW/software/PSI4/1.9-foss-2022a/share/psi4/basis/jun-cc-pvdz-ri.gbs 
    atoms 2-5                                                 entry F          line   232 file /opt/software/pc2/EB-SW/software/PSI4/1.9-foss-2022a/share/psi4/basis/jun-cc-pvdz-ri.gbs 
    atoms 6-23, 30-42, 45-59, 62-78, 81-93, 98-108, 111-119   entry C          line   100 file /opt/software/pc2/EB-SW/software/PSI4/1.9-foss-2022a/share/psi4/basis/jun-cc-pvdz-ri.gbs 
    atoms 24-29, 43-44, 60-61, 79-80, 94-97, 109-110, 120-125 entry H          line    30 file /opt/software/pc2/EB-SW/software/PSI4/1.9-foss-2022a/share/psi4/basis/jun-cc-pvdz-ri.gbs 

   => Loading Basis Set <=

    Name: (JUN-CC-PVDZ AUX)
    Role: JKFIT
    Keyword: DF_BASIS_ELST
    atoms 1                                                   entry B          line    90 file /opt/software/pc2/EB-SW/software/PSI4/1.9-foss-2022a/share/psi4/basis/jun-cc-pvdz-jkfit.gbs 
    atoms 2-5                                                 entry F          line   314 file /opt/software/pc2/EB-SW/software/PSI4/1.9-foss-2022a/share/psi4/basis/jun-cc-pvdz-jkfit.gbs 
    atoms 6-23, 30-42, 45-59, 62-78, 81-93, 98-108, 111-119   entry C          line   146 file /opt/software/pc2/EB-SW/software/PSI4/1.9-foss-2022a/share/psi4/basis/jun-cc-pvdz-jkfit.gbs 
    atoms 24-29, 43-44, 60-61, 79-80, 94-97, 109-110, 120-125 entry H          line    70 file /opt/software/pc2/EB-SW/software/PSI4/1.9-foss-2022a/share/psi4/basis/jun-cc-pvdz-jkfit.gbs 


  //>>>>>>>>>>>>>>>>>>>>>>>>>>>>>>>>>>>//
  //               SSAPT0              //
  //<<<<<<<<<<<<<<<<<<<<<<<<<<<<<<<<<<<//


*** tstart() called on n2cn0485
*** at Thu Jan 25 02:14:24 2024

        SAPT0  
    Ed Hohenstein
     6 June 2009

      Orbital Information
  --------------------------
    NSO        =      1938
    NMO        =      1899
    NRI        =      6901
    NRI (Elst) =      8531
    NOCC A     =        21
    NOCC B     =       300
    FOCC A     =         5
    FOCC B     =        96
    NVIR A     =      1878
    NVIR B     =      1599

    Elst10,r            =    -0.002657656323 [Eh]
    Exch10              =     0.036193648472 [Eh]
    Exch10 (S^2)        =     0.035982015395 [Eh]

    Iter     Energy [mEh]          dE [mEh]         Residual      Time [s]
       1      -4.07081767       4.070817670      11.522689688           639
       2      -5.10350856       1.032690891       4.832198535          1229
       3      -5.22399932       0.120490763       0.791015093          1617
       4      -5.20685818      -0.017141147       0.230918776          1971
       5      -5.20605016      -0.000808016       0.059431784          2270
       6      -5.20660117       0.000551013       0.017025605          2588
       7      -5.20673832       0.000137145       0.003489559          2943
       8      -5.20669556      -0.000042759       0.000566199          3298
       9      -5.20669987       0.000004311       0.000091070          3626
      10      -5.20669956      -0.000000314       0.000017493          3905
      11      -5.20669953      -0.000000025       0.000003516          4210
      12      -5.20669954       0.000000012       0.000001255          4521
      13      -5.20669955       0.000000003       0.000000287          4805

    CHF Iterations converged


    Iter     Energy [mEh]          dE [mEh]         Residual      Time [s]
       1     -41.23439838      41.234398379     102.956573153           304
       2     -28.91696507     -12.317433306      12.932160871           633
       3     -29.12537332       0.208408249       4.722639889           947
       4     -29.70386361       0.578490287       1.451183493          1269
       5     -29.75529755       0.051433941       0.565566066          1571
       6     -29.72162830      -0.033669252       0.293234913          1898
       7     -29.71201233      -0.009615969       0.127214197          2213
       8     -29.71679764       0.004785313       0.057736327          2544
       9     -29.71893470       0.002137053       0.022640767          2873
      10     -29.71818180      -0.000752897       0.017731338          3161
      11     -29.71768711      -0.000494685       0.013112072          3487
      12     -29.71795913       0.000272017       0.008159776          3813
      13     -29.71814368       0.000184550       0.003175310          4157
      14     -29.71811116      -0.000032518       0.001305830          4538
      15     -29.71808660      -0.000024563       0.000729703          4824
      16     -29.71808098      -0.000005620       0.000462803          5133
      17     -29.71809140       0.000010417       0.000203121          5535
      18     -29.71809208       0.000000683       0.000071416          5868
      19     -29.71809062      -0.000001465       0.000034798          6209
      20     -29.71809008      -0.000000540       0.000014155          6578
      21     -29.71809031       0.000000234       0.000006789          6923
      22     -29.71809043       0.000000121       0.000003205          7247
      23     -29.71809040      -0.000000034       0.000001451          7522
      24     -29.71809037      -0.000000025       0.000000748          7894

    CHF Iterations converged

    Ind20,r (A<-B)      =    -0.005206699546 [Eh]
    Ind20,r (B<-A)      =    -0.029718090371 [Eh]
    Ind20,r             =    -0.034924789917 [Eh]
    Exch-Ind20,r (A<-B) =     0.004758010693 [Eh]
    Exch-Ind20,r (B<-A) =     0.009019034166 [Eh]
    Exch-Ind20,r        =     0.013777044859 [Eh]
    Disp20              =    -0.020096789569 [Eh]
    Disp20 (SS)         =    -0.010048394784 [Eh]
    Disp20 (OS)         =    -0.010048394784 [Eh]
    Exch-Disp20         =     0.003894386351 [Eh]
    Exch-Disp20 (SS)    =     0.002167414855 [Eh]
    Exch-Disp20 (OS)    =     0.001726971496 [Eh]

    SAPT Results 
  --------------------------------------------------------------------------------------------------------
    Electrostatics                 -2.65765632 [mEh]      -1.66770452 [kcal/mol]      -6.97767571 [kJ/mol]
      Elst10,r                     -2.65765632 [mEh]      -1.66770452 [kcal/mol]      -6.97767571 [kJ/mol]

    Exchange                       36.19364847 [mEh]      22.71185731 [kcal/mol]      95.02641097 [kJ/mol]
      Exch10                       36.19364847 [mEh]      22.71185731 [kcal/mol]      95.02641097 [kJ/mol]
      Exch10(S^2)                  35.98201540 [mEh]      22.57905555 [kcal/mol]      94.47076841 [kJ/mol]

    Induction                     -24.27732564 [mEh]     -15.23425184 [kcal/mol]     -63.74010968 [kJ/mol]
      Ind20,r                     -34.92478992 [mEh]     -21.91563654 [kcal/mol]     -91.69502330 [kJ/mol]
      Exch-Ind20,r                 13.77704486 [mEh]       8.64522617 [kcal/mol]      36.17162629 [kJ/mol]
      delta HF,r (2)               -3.12958058 [mEh]      -1.96384146 [kcal/mol]      -8.21671268 [kJ/mol]

    Dispersion                    -16.20240322 [mEh]     -10.16716152 [kcal/mol]     -42.53940379 [kJ/mol]
      Disp20                      -20.09678957 [mEh]     -12.61092585 [kcal/mol]     -52.76411374 [kJ/mol]
      Exch-Disp20                   3.89438635 [mEh]       2.44376433 [kcal/mol]      10.22470996 [kJ/mol]
      Disp20 (SS)                 -10.04839478 [mEh]      -6.30546292 [kcal/mol]     -26.38205687 [kJ/mol]
      Disp20 (OS)                 -10.04839478 [mEh]      -6.30546292 [kcal/mol]     -26.38205687 [kJ/mol]
      Exch-Disp20 (SS)              2.16741486 [mEh]       1.36007336 [kcal/mol]       5.69054692 [kJ/mol]
      Exch-Disp20 (OS)              1.72697150 [mEh]       1.08369097 [kcal/mol]       4.53416304 [kJ/mol]

  Total HF                          9.25866651 [mEh]       5.80990095 [kcal/mol]      24.30862558 [kJ/mol]
  Total SAPT0                      -6.94373671 [mEh]      -4.35726057 [kcal/mol]     -18.23077821 [kJ/mol]

  Special recipe for scaled SAPT0 (see Manual):
    Electrostatics sSAPT0          -2.65765632 [mEh]      -1.66770452 [kcal/mol]      -6.97767571 [kJ/mol]
    Exchange sSAPT0                36.19364847 [mEh]      22.71185731 [kcal/mol]      95.02641097 [kJ/mol]
    Induction sSAPT0              -24.03279840 [mEh]     -15.08080868 [kcal/mol]     -63.09810350 [kJ/mol]
    Dispersion sSAPT0             -16.13328219 [mEh]     -10.12378742 [kcal/mol]     -42.35792655 [kJ/mol]
  Total sSAPT0                     -6.63008844 [mEh]      -4.16044331 [kcal/mol]     -17.40729479 [kJ/mol]
  --------------------------------------------------------------------------------------------------------

*** tstop() called on n2cn0485 at Thu Jan 25 14:38:58 2024
Module time:
	user time   =   64565.41 seconds =    1076.09 minutes
	system time =    3871.32 seconds =      64.52 minutes
	total time  =      44674 seconds =     744.57 minutes
Total time:
	user time   =  111243.38 seconds =    1854.06 minutes
	system time =    7373.73 seconds =     122.90 minutes
	total time  =      68297 seconds =    1138.28 minutes

    Psi4 stopped on: Thursday, 25 January 2024 02:38PM
    Psi4 wall time for execution: 18:58:18.22

*** Psi4 exiting successfully. Buy a developer a beer!
