
    -----------------------------------------------------------------------
          Psi4: An Open-Source Ab Initio Electronic Structure Package
                               Psi4 1.9 release

                         Git: Rev {} zzzzzzz 


    D. G. A. Smith, L. A. Burns, A. C. Simmonett, R. M. Parrish,
    M. C. Schieber, R. Galvelis, P. Kraus, H. Kruse, R. Di Remigio,
    A. Alenaizan, A. M. James, S. Lehtola, J. P. Misiewicz, M. Scheurer,
    R. A. Shaw, J. B. Schriber, Y. Xie, Z. L. Glick, D. A. Sirianni,
    J. S. O'Brien, J. M. Waldrop, A. Kumar, E. G. Hohenstein,
    B. P. Pritchard, B. R. Brooks, H. F. Schaefer III, A. Yu. Sokolov,
    K. Patkowski, A. E. DePrince III, U. Bozkaya, R. A. King,
    F. A. Evangelista, J. M. Turney, T. D. Crawford, C. D. Sherrill,
    J. Chem. Phys. 152(18) 184108 (2020). https://doi.org/10.1063/5.0006002

                            Additional Code Authors
    E. T. Seidl, C. L. Janssen, E. F. Valeev, M. L. Leininger,
    J. F. Gonthier, R. M. Richard, H. R. McAlexander, M. Saitow, X. Wang,
    P. Verma, M. H. Lechner, A. Jiang, S. Behnle, A. G. Heide,
    M. F. Herbst, and D. L. Poole

             Previous Authors, Complete List of Code Contributors,
                       and Citations for Specific Modules
    https://github.com/psi4/psi4/blob/master/codemeta.json
    https://github.com/psi4/psi4/graphs/contributors
    http://psicode.org/psi4manual/master/introduction.html#citing-psifour

    -----------------------------------------------------------------------


    Psi4 started on: Saturday, 27 January 2024 11:25AM

    Process ID: 1848783
    Host:       n2cn0527.ab2021.local
    PSIDATADIR: /opt/software/pc2/EB-SW/software/PSI4/1.9-foss-2022a/share/psi4
    Memory:     500.0 MiB
    Threads:    16
    
  ==> Input File <==

--------------------------------------------------------------------------
memory 64 GB # how much memory is available ! Depends on the nodes/cores !

molecule dimer {
# monomer A
-1 1    # Charge and multiplicity
B -0.000046  0.000337 5.999994
F -1.153597  0.000048 6.815641
F  1.153661 -0.000581 6.815641
F -0.000019 -1.153637 5.184360
F -0.000019  1.153978 5.184360
--
# monomer B
0 1     # Charge and multiplicity
C   -3.66844126402057      7.80375217008252      0.00190004133558
C   -4.84759871934653      7.13124183134024     -0.00046653359696
C   -4.89495929917518      5.69633040353158     -0.00103944469517
C   -3.65374067877320      4.98073034095895      0.00662099703436
C   -2.40942512149445      7.11398103667468      0.00209438359570
C   -2.42547734410473      5.68112195090346     -0.00491050527438
C   -1.19474401643570      7.78614419430947      0.00356656413763
C   0.03795902893699      7.09942164575698      0.00139585983271
C   0.03033258741920      5.66948955970466     -0.00408752508301
C   -1.20098450790502      4.96927034791531      0.00488220885047
C   1.27795782581485      7.77285944319479      0.00277170839332
C   2.48535808472416      7.08769688523756      0.00049722048857
C   2.48612868491717      5.65477081024076     -0.00644052849921
C   1.25408291964399      4.95607811366431      0.00518741308898
C   3.75171459140595      7.76391215098033      0.00062407186893
C   4.92356605618520      7.07878077698995     -0.00143240883900
C   4.95560727132542      5.64344746336949     -0.00159282164606
C   3.70680153420475      4.94121020833308      0.00349873852374
H   -3.65852113775815      8.89082741913536      0.00358502958574
H   -1.18921332975660      8.87412108735996      0.00753844057883
H   1.28429423888630      8.86083343548850      0.00693053253426
H   3.75354208679975      8.85103527897216      0.00214659618464
H   5.86995870320703      7.61379483465560     -0.00235777588134
H   -5.78823170750226      7.67630221293400     -0.00202638095293
C   -6.09197395869619      4.99326001364347     -0.00291168518608
C   -6.12866148031747      3.58258016879823     -0.00171050815740
C   -3.66457974004527      3.56418217974434     -0.00463560277484
C   -4.89429820469869      2.86108077590057      0.00453338221034
C   -2.43733499489796      2.84761165708481      0.00719617576166
C   -1.20922785759670      3.54788693497833     -0.00648285103018
C   1.24714157216223      3.53468075142962     -0.00729145743546
C   0.01517603956900      2.83311183930540      0.00439272578912
C   2.46764517244071      2.82128997725533      0.00449278391269
C   3.70254947457969      3.52466015442405     -0.00899517692985
C   6.14498038638375      4.92757236613191     -0.00282626685777
C   6.16658835886151      3.51658447594213     -0.00065971342101
C   4.92460995845939      2.80840792535402      0.00587903281610
H   7.08990550964105      5.46688776622306     -0.00658814770723
H   -7.03104175110130      5.54268795285765     -0.00714490013730
C   -7.33969804112295      2.85841153457957     -0.00333767559888
C   -7.36488195805880      1.47032337158330     -0.00157213747140
C   -4.90350460894690      1.44442681216000     -0.00628840166334
C   -6.13225715261081      0.73993935705394      0.00600164231964
C   -3.67687480051673      0.72669714267312      0.00433931473643
C   -2.44565658606518      1.42964113326212     -0.00597039546461
C   -1.22360068130162      0.71532450163492      0.00545886906656
C   0.00763786931376      1.41738314923765      0.00392452278437
C   1.23121980774686      0.70211669058719     -0.01490206287210
C   2.46082110053113      1.40329203612573      0.00460244601878
C   3.68443025419614      0.68719842821222      0.00377365974158
C   4.91870890153864      1.39173456118907     -0.00862816189375
C   7.36980207796101      2.77948220318441     -0.00242013321349
C   7.38016266612146      1.39121750785509     -0.00087345036788
C   6.13979953912259      0.67411862320065      0.00545489144369
H   -8.27919079934664      3.40711804112415     -0.00763522772059
H   8.31511347147953      3.31811809662368     -0.00663070901292
C   -8.59175593758115      0.72483255304480     -0.00123170985383
C   -8.59902460370342     -0.63263980622873      0.00089141472904
C   -6.13981313911873     -0.67413663715361     -0.00609792660607
C   -7.38018411213749     -1.39126618958160      0.00131813493501
C   -4.91868448025621     -1.39175501803000      0.00624257154343
C   -3.68443829568458     -0.68723731573599     -0.00478966852105
C   -2.46081704024768     -1.40334517882457      0.00575341766833
C   -1.23116201232071     -0.70217386488055     -0.00636696112346
C   -0.00756962538737     -1.41741884941102      0.00108956317991
C   1.22364771588843     -0.71527537726392      0.01109518512883
C   2.44567064933149     -1.42964328900682     -0.00065482763106
C   3.67686670284649     -0.72670743155550     -0.00479541202602
C   6.13224884641929     -0.73997883984993     -0.00632338623858
C   4.90351914550401     -1.44445752054090      0.00751768830159
C   8.59901484869081      0.63260386666793     -0.00101133422380
C   8.59174548810050     -0.72485086719319      0.00072504603735
C   7.36486276438985     -1.47033266560598      0.00049486934466
H   -9.52830597181814      1.27684744919284     -0.00270163681798
H   9.54141097460619      1.17457248844457     -0.00206336648518
C   -7.36983790976868     -2.77954514593389      0.00312634335708
C   -4.92459910905015     -2.80843725734101     -0.00460528907921
C   -6.16662249566744     -3.51665219282533      0.00169655107992
C   -3.70251035970491     -3.52468154912026      0.00571878010666
C   -2.46764698511392     -2.82132596280400     -0.00632585824990
C   -0.01513347410770     -2.83314164539971     -0.00604426974092
C   -1.24712184122656     -3.53473217556300      0.00551968366725
C   1.20924506964357     -3.54791467864352      0.00805871345849
C   2.43733602215464     -2.84764173817541     -0.00608104485234
C   4.89430234377080     -2.86112296828604     -0.00526030478103
C   3.66461525504104     -3.56421984553201      0.00761911515957
C   6.12863901474565     -3.58258405771778      0.00096495711699
C   7.33967266469532     -2.85841330737039      0.00248018319869
H   -9.54144911125902     -1.17456346666430      0.00226083090216
H   9.52826186807155     -1.27691907390448      0.00197485379837
H   -8.31516504384864     -3.31814985321231      0.00729857188773
H   8.27915514249207     -3.40714078989363      0.00681973918158
C   -6.14499418870218     -4.92764727278338      0.00302254913999
C   -3.70678334799751     -4.94126171411716     -0.00679841894792
C   -4.95559005800169     -5.64349397349412      0.00116871569699
C   -2.48612132622665     -5.65478557440947      0.00614125209662
C   -1.25405833548005     -4.95612205000132     -0.00503435388927
C   1.20101257386816     -4.96928038819302     -0.00385322963129
C   -0.03033667441341     -5.66952030313900      0.00398997003238
C   3.65375010132847     -4.98074377541453     -0.00309522988330
C   2.42549269587528     -5.68117463552727      0.00628170066869
C   6.09196561781097     -4.99325796338655      0.00325918379042
C   4.89497644461045     -5.69634842095790      0.00202298796027
H   -7.08989238804069     -5.46699984223871      0.00742531082125
H   7.03105520920009     -5.54265853633254      0.00683896355417
C   -4.92354532219813     -7.07882109967734      0.00061394679214
C   -2.48534208823777     -7.08772807792913     -0.00189594564379
C   -3.75168589177895     -7.76394715763627     -0.00170126671874
C   -0.03794895698805     -7.09946487446944     -0.00168022049625
C   -1.27795610040136     -7.77290438466689     -0.00366491325785
C   2.40944432072629     -7.11402201200282     -0.00081701968533
C   1.19474993715296     -7.78618536556242     -0.00296931056689
C   4.84762105249800     -7.13126211057943      0.00168979497423
C   3.66847160587561     -7.80378799294376     -0.00065863938960
H   -5.86994035041618     -7.61383059804164      0.00215798365757
H   5.78824962538815     -7.67633218931421      0.00281691445618
H   -3.75352693944918     -8.85107156923607     -0.00353718114765
H   -1.28430440589466     -8.86087539249706     -0.00809229711623
H   1.18922157469537     -8.87416062058945     -0.00706194725726
H   3.65854661482387     -8.89086063405326     -0.00231318081200

    units angstrom      # Angstroms are the default
    no_reorient         # Geometry fixed, default
    symmetry c1         # C1 symmetry, default
}

set {
    scf_type DF         # Density fitting, faster than exact integrals
    freeze_core True    # Freeze core electrons
    basis jun-cc-pVDZ   # Jun-cc-pVDZ basis set, recommended for sSAPT0 in https://doi.org/10.1063/1.4867135
}

energy('ssapt0')        # Compute sSAPT0 energy, includes also SAPT0
--------------------------------------------------------------------------

  Memory set to  59.605 GiB by Python driver.

Scratch directory: /tmp/
   => Loading Basis Set <=

    Name: JUN-CC-PVDZ
    Role: ORBITAL
    Keyword: BASIS
    atoms 1                                                   entry B          line   130 file /opt/software/pc2/EB-SW/software/PSI4/1.9-foss-2022a/share/psi4/basis/jun-cc-pvdz.gbs 
    atoms 2-5                                                 entry F          line   266 file /opt/software/pc2/EB-SW/software/PSI4/1.9-foss-2022a/share/psi4/basis/jun-cc-pvdz.gbs 
    atoms 6-23, 30-42, 45-59, 62-78, 81-93, 98-108, 111-119   entry C          line   164 file /opt/software/pc2/EB-SW/software/PSI4/1.9-foss-2022a/share/psi4/basis/jun-cc-pvdz.gbs 
    atoms 24-29, 43-44, 60-61, 79-80, 94-97, 109-110, 120-125 entry H          line    36 file /opt/software/pc2/EB-SW/software/PSI4/1.9-foss-2022a/share/psi4/basis/jun-cc-pvdz.gbs 

   => Loading Basis Set <=

    Name: JUN-CC-PVDZ
    Role: ORBITAL
    Keyword: BASIS
    atoms 1                                                   entry B          line   130 file /opt/software/pc2/EB-SW/software/PSI4/1.9-foss-2022a/share/psi4/basis/jun-cc-pvdz.gbs 
    atoms 2-5                                                 entry F          line   266 file /opt/software/pc2/EB-SW/software/PSI4/1.9-foss-2022a/share/psi4/basis/jun-cc-pvdz.gbs 
    atoms 6-23, 30-42, 45-59, 62-78, 81-93, 98-108, 111-119   entry C          line   164 file /opt/software/pc2/EB-SW/software/PSI4/1.9-foss-2022a/share/psi4/basis/jun-cc-pvdz.gbs 
    atoms 24-29, 43-44, 60-61, 79-80, 94-97, 109-110, 120-125 entry H          line    36 file /opt/software/pc2/EB-SW/software/PSI4/1.9-foss-2022a/share/psi4/basis/jun-cc-pvdz.gbs 


  //>>>>>>>>>>>>>>>>>>>>>>>>>>>>>>>>>>>//
  //              Dimer HF             //
  //<<<<<<<<<<<<<<<<<<<<<<<<<<<<<<<<<<<//

   => Libint2 <=

    Primary   basis highest AM E, G, H:  5, 4, 3
    Auxiliary basis highest AM E, G, H:  6, 5, 4
    Onebody   basis highest AM E, G, H:  6, 5, 4
    Solid Harmonics ordering:            gaussian

*** tstart() called on n2cn0527.ab2021.local
*** at Sat Jan 27 11:25:35 2024

   => Loading Basis Set <=

    Name: JUN-CC-PVDZ
    Role: ORBITAL
    Keyword: BASIS
    atoms 1                                                   entry B          line   130 file /opt/software/pc2/EB-SW/software/PSI4/1.9-foss-2022a/share/psi4/basis/jun-cc-pvdz.gbs 
    atoms 2-5                                                 entry F          line   266 file /opt/software/pc2/EB-SW/software/PSI4/1.9-foss-2022a/share/psi4/basis/jun-cc-pvdz.gbs 
    atoms 6-23, 30-42, 45-59, 62-78, 81-93, 98-108, 111-119   entry C          line   164 file /opt/software/pc2/EB-SW/software/PSI4/1.9-foss-2022a/share/psi4/basis/jun-cc-pvdz.gbs 
    atoms 24-29, 43-44, 60-61, 79-80, 94-97, 109-110, 120-125 entry H          line    36 file /opt/software/pc2/EB-SW/software/PSI4/1.9-foss-2022a/share/psi4/basis/jun-cc-pvdz.gbs 


         ---------------------------------------------------------
                                   SCF
               by Justin Turney, Rob Parrish, Andy Simmonett
                          and Daniel G. A. Smith
                              RHF Reference
                       16 Threads,  61035 MiB Core
         ---------------------------------------------------------

  ==> Geometry <==

    Molecular point group: c1
    Full point group: C1

    Geometry (in Angstrom), charge = -1, multiplicity = 1:

       Center              X                  Y                   Z               Mass       
    ------------   -----------------  -----------------  -----------------  -----------------
         B           -0.000050191042     0.000351518223     5.586737776488    11.009305360000
         F           -1.153601191042     0.000062518223     6.402384776488    18.998403162730
         F            1.153656808958    -0.000566481777     6.402384776488    18.998403162730
         F           -0.000023191042    -1.153622481777     4.771103776488    18.998403162730
         F           -0.000023191042     1.153992518223     4.771103776488    18.998403162730
         C           -3.668445455062     7.803766688305    -0.411356182177    12.000000000000
         C           -4.847602910388     7.131256349563    -0.413722757109    12.000000000000
         C           -4.894963490217     5.696344921754    -0.414295668207    12.000000000000
         C           -3.653744869815     4.980744859182    -0.406635226478    12.000000000000
         C           -2.409429312536     7.113995554897    -0.411161839916    12.000000000000
         C           -2.425481535146     5.681136469126    -0.418166728786    12.000000000000
         C           -1.194748207477     7.786158712532    -0.409689659374    12.000000000000
         C            0.037954837895     7.099436163980    -0.411860363679    12.000000000000
         C            0.030328396378     5.669504077927    -0.417343748595    12.000000000000
         C           -1.200988698947     4.969284866138    -0.408374014662    12.000000000000
         C            1.277953634773     7.772873961417    -0.410484515119    12.000000000000
         C            2.485353893683     7.087711403460    -0.412759003024    12.000000000000
         C            2.486124493876     5.654785328463    -0.419696752011    12.000000000000
         C            1.254078728602     4.956092631887    -0.408068810423    12.000000000000
         C            3.751710400364     7.763926669203    -0.412632151643    12.000000000000
         C            4.923561865144     7.078795295213    -0.414688632351    12.000000000000
         C            4.955603080284     5.643461981592    -0.414849045158    12.000000000000
         C            3.706797343163     4.941224726556    -0.409757484988    12.000000000000
         H           -3.658525328800     8.890841937358    -0.409671193926     1.007825032230
         H           -1.189217520798     8.874135605583    -0.405717782933     1.007825032230
         H            1.284290047845     8.860847953711    -0.406325690978     1.007825032230
         H            3.753537895758     8.851049797195    -0.411109627327     1.007825032230
         H            5.869954512165     7.613809352878    -0.415613999393     1.007825032230
         H           -5.788235898544     7.676316731157    -0.415282604465     1.007825032230
         C           -6.091978149738     4.993274531866    -0.416167908698    12.000000000000
         C           -6.128665671359     3.582594687021    -0.414966731670    12.000000000000
         C           -3.664583931087     3.564196697967    -0.417891826287    12.000000000000
         C           -4.894302395740     2.861095294123    -0.408722841302    12.000000000000
         C           -2.437339185940     2.847626175307    -0.406060047750    12.000000000000
         C           -1.209232048638     3.547901453201    -0.419739074542    12.000000000000
         C            1.247137381121     3.534695269652    -0.420547680948    12.000000000000
         C            0.015171848527     2.833126357528    -0.408863497723    12.000000000000
         C            2.467640981399     2.821304495478    -0.408763439599    12.000000000000
         C            3.702545283538     3.524674672647    -0.422251400442    12.000000000000
         C            6.144976195342     4.927586884354    -0.416082490370    12.000000000000
         C            6.166584167820     3.516598994165    -0.413915936933    12.000000000000
         C            4.924605767418     2.808422443577    -0.407377190696    12.000000000000
         H            7.089901318599     5.466902284446    -0.419844371219     1.007825032230
         H           -7.031045942143     5.542702471080    -0.420401123649     1.007825032230
         C           -7.339702232165     2.858426052802    -0.416593899111    12.000000000000
         C           -7.364886149100     1.470337889806    -0.414828360984    12.000000000000
         C           -4.903508799989     1.444441330383    -0.419544625175    12.000000000000
         C           -6.132261343652     0.739953875277    -0.407254581192    12.000000000000
         C           -3.676878991558     0.726711660896    -0.408916908776    12.000000000000
         C           -2.445660777107     1.429655651485    -0.419226618977    12.000000000000
         C           -1.223604872343     0.715339019858    -0.407797354446    12.000000000000
         C            0.007633678272     1.417397667460    -0.409331700728    12.000000000000
         C            1.231215616705     0.702131208810    -0.428158286384    12.000000000000
         C            2.460816909489     1.403306554348    -0.408653777493    12.000000000000
         C            3.684426063155     0.687212946435    -0.409482563771    12.000000000000
         C            4.918704710497     1.391749079412    -0.421884385406    12.000000000000
         C            7.369797886919     2.779496721407    -0.415676356726    12.000000000000
         C            7.380158475080     1.391232026078    -0.414129673880    12.000000000000
         C            6.139795348081     0.674133141423    -0.407801332068    12.000000000000
         H           -8.279194990388     3.407132559347    -0.420891451233     1.007825032230
         H            8.315109280438     3.318132614846    -0.419886932525     1.007825032230
         C           -8.591760128623     0.724847071267    -0.414487933366    12.000000000000
         C           -8.599028794745    -0.632625288006    -0.412364808783    12.000000000000
         C           -6.139817330160    -0.674122118931    -0.419354150118    12.000000000000
         C           -7.380188303179    -1.391251671359    -0.411938088577    12.000000000000
         C           -4.918688671298    -1.391740499807    -0.407013651969    12.000000000000
         C           -3.684442486726    -0.687222797513    -0.418045892033    12.000000000000
         C           -2.460821231289    -1.403330660602    -0.407502805844    12.000000000000
         C           -1.231166203362    -0.702159346658    -0.419623184636    12.000000000000
         C           -0.007573816429    -1.417404331188    -0.412166660332    12.000000000000
         C            1.223643524847    -0.715260859041    -0.402161038383    12.000000000000
         C            2.445666458290    -1.429628770784    -0.413911051143    12.000000000000
         C            3.676862511805    -0.726692913333    -0.418051635538    12.000000000000
         C            6.132244655378    -0.739964321627    -0.419579609751    12.000000000000
         C            4.903514954462    -1.444443002318    -0.405738535211    12.000000000000
         C            8.599010657649     0.632618384891    -0.414267557736    12.000000000000
         C            8.591741297059    -0.724836348971    -0.412531177475    12.000000000000
         C            7.364858573348    -1.470318147383    -0.412761354167    12.000000000000
         H           -9.528310162860     1.276861967415    -0.415957860330     1.007825032230
         H            9.541406783565     1.174587006667    -0.415319589997     1.007825032230
         C           -7.369842100810    -2.779530627711    -0.410129880155    12.000000000000
         C           -4.924603300092    -2.808422739118    -0.417861512591    12.000000000000
         C           -6.166626686709    -3.516637674603    -0.411559672432    12.000000000000
         C           -3.702514550747    -3.524667030898    -0.407537443405    12.000000000000
         C           -2.467651176156    -2.821311444581    -0.419582081762    12.000000000000
         C           -0.015137665149    -2.833127127177    -0.419300493253    12.000000000000
         C           -1.247126032268    -3.534717657340    -0.407736539845    12.000000000000
         C            1.209240878602    -3.547900160421    -0.405197510054    12.000000000000
         C            2.437331831113    -2.847627219953    -0.419337268364    12.000000000000
         C            4.894298152729    -2.861108450063    -0.418516528293    12.000000000000
         C            3.664611063999    -3.564205327309    -0.405637108353    12.000000000000
         C            6.128634823704    -3.582569539495    -0.412291266395    12.000000000000
         C            7.339668473654    -2.858398789148    -0.410776040313    12.000000000000
         H           -9.541453302301    -1.174548948442    -0.410995392610     1.007825032230
         H            9.528257677030    -1.276904555682    -0.411281369714     1.007825032230
         H           -8.315169234890    -3.318135334990    -0.405957651624     1.007825032230
         H            8.279150951450    -3.407126271671    -0.406436484331     1.007825032230
         C           -6.144998379744    -4.927632754561    -0.410233674372    12.000000000000
         C           -3.706787539039    -4.941247195895    -0.420054642460    12.000000000000
         C           -4.955594249043    -5.643479455272    -0.412087507815    12.000000000000
         C           -2.486125517268    -5.654771056187    -0.407114971415    12.000000000000
         C           -1.254062526522    -4.956107531779    -0.418290577401    12.000000000000
         C            1.201008382827    -4.969265869970    -0.417109453143    12.000000000000
         C           -0.030340865455    -5.669505784916    -0.409266253480    12.000000000000
         C            3.653745910287    -4.980729257192    -0.416351453395    12.000000000000
         C            2.425488504834    -5.681160117305    -0.406974522843    12.000000000000
         C            6.091961426769    -4.993243445164    -0.409997039722    12.000000000000
         C            4.894972253569    -5.696333902735    -0.411233235552    12.000000000000
         H           -7.089896579082    -5.466985324016    -0.405830912691     1.007825032230
         H            7.031051018158    -5.542644018110    -0.406417259958     1.007825032230
         C           -4.923549513240    -7.078806581455    -0.412642276720    12.000000000000
         C           -2.485346279279    -7.087713559707    -0.415152169156    12.000000000000
         C           -3.751690082821    -7.763932639414    -0.414957490231    12.000000000000
         C           -0.037953148030    -7.099450356247    -0.414936444008    12.000000000000
         C           -1.277960291443    -7.772889866444    -0.416921136770    12.000000000000
         C            2.409440129685    -7.114007493780    -0.414073243197    12.000000000000
         C            1.194745746111    -7.786170847340    -0.416225534079    12.000000000000
         C            4.847616861456    -7.131247592357    -0.411566428538    12.000000000000
         C            3.668467414834    -7.803773474721    -0.413914862902    12.000000000000
         H           -5.869944541458    -7.613816079819    -0.411098239855     1.007825032230
         H            5.788245434347    -7.676317671092    -0.410439309056     1.007825032230
         H           -3.753531130491    -8.851057051013    -0.416793404660     1.007825032230
         H           -1.284308596936    -8.860860874274    -0.421348520628     1.007825032230
         H            1.189217383654    -8.874146102367    -0.420318170769     1.007825032230
         H            3.658542423782    -8.890846115831    -0.415569404324     1.007825032230

  Running in c1 symmetry.

  Rotational constants: A =      0.00063  B =      0.00063  C =      0.00035 [cm^-1]
  Rotational constants: A =     18.77772  B =     18.77471  C =     10.55117 [MHz]
  Nuclear repulsion = 17329.839563632685895

  Charge       = -1
  Multiplicity = 1
  Electrons    = 642
  Nalpha       = 321
  Nbeta        = 321

  ==> Algorithm <==

  SCF Algorithm Type is DF.
  DIIS enabled.
  MOM disabled.
  Fractional occupation disabled.
  Guess Type is SAD.
  Energy threshold   = 1.00e-08
  Density threshold  = 1.00e-08
  Integral threshold = 1.00e-12

  ==> Primary Basis <==

  Basis Set: JUN-CC-PVDZ
    Blend: JUN-CC-PVDZ
    Number of shells: 880
    Number of basis functions: 1938
    Number of Cartesian functions: 2039
    Spherical Harmonics?: true
    Max angular momentum: 2

   => Loading Basis Set <=

    Name: (JUN-CC-PVDZ AUX)
    Role: JKFIT
    Keyword: DF_BASIS_SCF
    atoms 1                                                   entry B          line    90 file /opt/software/pc2/EB-SW/software/PSI4/1.9-foss-2022a/share/psi4/basis/jun-cc-pvdz-jkfit.gbs 
    atoms 2-5                                                 entry F          line   314 file /opt/software/pc2/EB-SW/software/PSI4/1.9-foss-2022a/share/psi4/basis/jun-cc-pvdz-jkfit.gbs 
    atoms 6-23, 30-42, 45-59, 62-78, 81-93, 98-108, 111-119   entry C          line   146 file /opt/software/pc2/EB-SW/software/PSI4/1.9-foss-2022a/share/psi4/basis/jun-cc-pvdz-jkfit.gbs 
    atoms 24-29, 43-44, 60-61, 79-80, 94-97, 109-110, 120-125 entry H          line    70 file /opt/software/pc2/EB-SW/software/PSI4/1.9-foss-2022a/share/psi4/basis/jun-cc-pvdz-jkfit.gbs 

  ==> Integral Setup <==

  ==> DiskDFJK: Density-Fitted J/K Matrices <==

    J tasked:                  Yes
    K tasked:                  Yes
    wK tasked:                  No
    OpenMP threads:             16
    Integrals threads:          16
    Memory [MiB]:            45776
    Algorithm:                Disk
    Integral Cache:           SAVE
    Schwarz Cutoff:          1E-12
    Fitting Condition:       1E-10

   => Auxiliary Basis Set <=

  Basis Set: (JUN-CC-PVDZ AUX)
    Blend: JUN-CC-PVDZ-JKFIT
    Number of shells: 2943
    Number of basis functions: 8531
    Number of Cartesian functions: 9791
    Spherical Harmonics?: true
    Max angular momentum: 3

  Minimum eigenvalue in the overlap matrix is 9.0159119655E-11.
  Reciprocal condition number of the overlap matrix is 3.9402321288E-12.
    Using canonical orthogonalization.
  Overall, 38 of 1938 possible MOs eliminated.


  ==> Pre-Iterations <==

  SCF Guess: Superposition of Atomic Densities via on-the-fly atomic UHF (no occupation information).

   -------------------------
    Irrep   Nso     Nmo    
   -------------------------
     A       1938    1900 
   -------------------------
    Total    1938    1900
   -------------------------

  ==> Iterations <==

                           Total Energy        Delta E     RMS |[F,P]|

   @DF-RHF iter SAD: -4085.00164686045991   -4.08500e+03   0.00000e+00 
   @DF-RHF iter   1: -4071.51926979948485    1.34824e+01   7.89343e-04 ADIIS/DIIS
   @DF-RHF iter   2: -4072.91568182734409   -1.39641e+00   3.08491e-04 ADIIS/DIIS
   @DF-RHF iter   3: -4073.07925245833121   -1.63571e-01   1.01942e-04 ADIIS/DIIS
   @DF-RHF iter   4: -4073.10099136079361   -2.17389e-02   3.69064e-05 DIIS
   @DF-RHF iter   5: -4073.10422341584217   -3.23206e-03   1.05680e-05 DIIS
   @DF-RHF iter   6: -4073.10464400762612   -4.20592e-04   4.15655e-06 DIIS
   @DF-RHF iter   7: -4073.10482081699865   -1.76809e-04   2.05029e-06 DIIS
   @DF-RHF iter   8: -4073.10487254314376   -5.17261e-05   1.10681e-06 DIIS
   @DF-RHF iter   9: -4073.10488658787153   -1.40447e-05   2.95531e-07 DIIS
   @DF-RHF iter  10: -4073.10488741605423   -8.28183e-07   1.40448e-07 DIIS
   @DF-RHF iter  11: -4073.10488753141044   -1.15356e-07   5.56620e-08 DIIS
   @DF-RHF iter  12: -4073.10488756084169   -2.94312e-08   2.69595e-08 DIIS
   @DF-RHF iter  13: -4073.10488756539826   -4.55657e-09   1.04206e-08 DIIS
   @DF-RHF iter  14: -4073.10488756601808   -6.19821e-10   5.06797e-09 DIIS
  Energy and wave function converged.


  ==> Post-Iterations <==

    Orbital Energies [Eh]
    ---------------------

    Doubly Occupied:                                                      

       1A    -26.067999     2A    -26.067820     3A    -26.066943  
       4A    -26.066909     5A    -11.206841     6A    -11.206833  
       7A    -11.206820     8A    -11.206817     9A    -11.206783  
      10A    -11.206782    11A    -11.206775    12A    -11.206771  
      13A    -11.206752    14A    -11.206746    15A    -11.206740  
      16A    -11.206732    17A    -11.206457    18A    -11.206450  
      19A    -11.206444    20A    -11.206438    21A    -11.206387  
      22A    -11.206375    23A    -11.204734    24A    -11.204723  
      25A    -11.204665    26A    -11.204647    27A    -11.204594  
      28A    -11.204559    29A    -11.204501    30A    -11.204441  
      31A    -11.204439    32A    -11.204387    33A    -11.204315  
      34A    -11.204292    35A    -11.203498    36A    -11.203491  
      37A    -11.203406    38A    -11.203394    39A    -11.203362  
      40A    -11.203350    41A    -11.203162    42A    -11.203124  
      43A    -11.203047    44A    -11.202907    45A    -11.202893  
      46A    -11.202698    47A    -11.202644    48A    -11.202568  
      49A    -11.202519    50A    -11.202511    51A    -11.202447  
      52A    -11.202436    53A    -11.202392    54A    -11.202386  
      55A    -11.202381    56A    -11.202346    57A    -11.202341  
      58A    -11.202327    59A    -11.202324    60A    -11.202322  
      61A    -11.202321    62A    -11.202297    63A    -11.202279  
      64A    -11.202264    65A    -11.202124    66A    -11.202104  
      67A    -11.202053    68A    -11.201955    69A    -11.201933  
      70A    -11.201920    71A    -11.201740    72A    -11.201500  
      73A    -11.201481    74A    -11.201102    75A    -11.201035  
      76A    -11.200965    77A    -11.200929    78A    -11.200923  
      79A    -11.200869    80A    -11.200867    81A    -11.200865  
      82A    -11.200864    83A    -11.200814    84A    -11.200636  
      85A    -11.200594    86A    -11.199905    87A    -11.199866  
      88A    -11.199418    89A    -11.199098    90A    -11.199083  
      91A    -11.199038    92A    -11.199027    93A    -11.199017  
      94A    -11.198990    95A    -11.198979    96A    -11.198970  
      97A    -11.198945    98A    -11.198917    99A    -11.198911  
     100A    -11.198878   101A     -7.539643   102A     -1.411353  
     103A     -1.352065   104A     -1.351550   105A     -1.351089  
     106A     -1.194310   107A     -1.181131   108A     -1.181035  
     109A     -1.163582   110A     -1.163577   111A     -1.156967  
     112A     -1.145073   113A     -1.139125   114A     -1.130193  
     115A     -1.130108   116A     -1.118039   117A     -1.118028  
     118A     -1.098088   119A     -1.098076   120A     -1.094956  
     121A     -1.089268   122A     -1.089266   123A     -1.071922  
     124A     -1.057746   125A     -1.057312   126A     -1.056427  
     127A     -1.055008   128A     -1.054959   129A     -1.031952  
     130A     -1.031941   131A     -1.021699   132A     -1.021690  
     133A     -1.010607   134A     -1.010596   135A     -1.007512  
     136A     -0.990677   137A     -0.990667   138A     -0.984315  
     139A     -0.983466   140A     -0.983453   141A     -0.967873  
     142A     -0.962893   143A     -0.962889   144A     -0.951497  
     145A     -0.949990   146A     -0.947520   147A     -0.943595  
     148A     -0.943558   149A     -0.936182   150A     -0.914317  
     151A     -0.914295   152A     -0.900216   153A     -0.900173  
     154A     -0.850860   155A     -0.850819   156A     -0.847822  
     157A     -0.847772   158A     -0.845975   159A     -0.834390  
     160A     -0.834323   161A     -0.832894   162A     -0.832809  
     163A     -0.832561   164A     -0.816976   165A     -0.815105  
     166A     -0.796193   167A     -0.790872   168A     -0.790819  
     169A     -0.788196   170A     -0.786295   171A     -0.778655  
     172A     -0.778637   173A     -0.773341   174A     -0.773329  
     175A     -0.729816   176A     -0.729809   177A     -0.726365  
     178A     -0.726298   179A     -0.726063   180A     -0.726040  
     181A     -0.725015   182A     -0.710883   183A     -0.703367  
     184A     -0.693782   185A     -0.678688   186A     -0.671035  
     187A     -0.670997   188A     -0.668870   189A     -0.668461  
     190A     -0.668445   191A     -0.661190   192A     -0.656968  
     193A     -0.656949   194A     -0.644199   195A     -0.644188  
     196A     -0.630642   197A     -0.630634   198A     -0.629179  
     199A     -0.626433   200A     -0.626416   201A     -0.622902  
     202A     -0.602627   203A     -0.598433   204A     -0.595350  
     205A     -0.595328   206A     -0.594345   207A     -0.593036  
     208A     -0.592999   209A     -0.584562   210A     -0.584411  
     211A     -0.584393   212A     -0.583814   213A     -0.579778  
     214A     -0.579760   215A     -0.573204   216A     -0.560319  
     217A     -0.560312   218A     -0.557076   219A     -0.553390  
     220A     -0.553386   221A     -0.542910   222A     -0.542040  
     223A     -0.541991   224A     -0.541818   225A     -0.540833  
     226A     -0.540688   227A     -0.539912   228A     -0.539896  
     229A     -0.539268   230A     -0.536272   231A     -0.535682  
     232A     -0.535663   233A     -0.530022   234A     -0.528994  
     235A     -0.528767   236A     -0.528620   237A     -0.523648  
     238A     -0.523639   239A     -0.518678   240A     -0.518668  
     241A     -0.517984   242A     -0.512153   243A     -0.512126  
     244A     -0.510463   245A     -0.510372   246A     -0.510170  
     247A     -0.506752   248A     -0.503886   249A     -0.502389  
     250A     -0.502358   251A     -0.498166   252A     -0.494687  
     253A     -0.493757   254A     -0.487804   255A     -0.478213  
     256A     -0.478196   257A     -0.476429   258A     -0.476339  
     259A     -0.472680   260A     -0.472671   261A     -0.470649  
     262A     -0.461156   263A     -0.461101   264A     -0.459811  
     265A     -0.459800   266A     -0.454661   267A     -0.454638  
     268A     -0.447700   269A     -0.447652   270A     -0.442117  
     271A     -0.440257   272A     -0.440249   273A     -0.435919  
     274A     -0.435888   275A     -0.431012   276A     -0.426456  
     277A     -0.422240   278A     -0.422239   279A     -0.418461  
     280A     -0.412459   281A     -0.410257   282A     -0.410245  
     283A     -0.408915   284A     -0.408822   285A     -0.408731  
     286A     -0.402061   287A     -0.388773   288A     -0.388692  
     289A     -0.385606   290A     -0.385330   291A     -0.385068  
     292A     -0.383367   293A     -0.382782   294A     -0.382666  
     295A     -0.379889   296A     -0.378808   297A     -0.350746  
     298A     -0.350715   299A     -0.330930   300A     -0.330919  
     301A     -0.328842   302A     -0.328821   303A     -0.325729  
     304A     -0.298014   305A     -0.298000   306A     -0.294196  
     307A     -0.278685   308A     -0.277935   309A     -0.277899  
     310A     -0.275502   311A     -0.275461   312A     -0.249319  
     313A     -0.244927   314A     -0.244094   315A     -0.244030  
     316A     -0.230215   317A     -0.202520   318A     -0.195795  
     319A     -0.195765   320A     -0.148063   321A     -0.147999  

    Virtual:                                                              

     322A      0.044456   323A      0.044566   324A      0.089394  
     325A      0.089595   326A      0.089622   327A      0.092042  
     328A      0.092059   329A      0.092539   330A      0.092635  
     331A      0.093143   332A      0.097412   333A      0.100000  
     334A      0.105463   335A      0.105476   336A      0.116759  
     337A      0.116764   338A      0.121919   339A      0.122970  
     340A      0.125848   341A      0.127358   342A      0.127418  
     343A      0.129603   344A      0.129825   345A      0.130878  
     346A      0.131597   347A      0.132014   348A      0.132192  
     349A      0.132303   350A      0.136901   351A      0.137032  
     352A      0.138876   353A      0.142387   354A      0.142401  
     355A      0.142700   356A      0.144292   357A      0.144320  
     358A      0.150290   359A      0.154041   360A      0.154058  
     361A      0.154985   362A      0.157987   363A      0.158170  
     364A      0.158610   365A      0.158683   366A      0.160698  
     367A      0.160799   368A      0.163462   369A      0.164740  
     370A      0.165863   371A      0.165991   372A      0.166177  
     373A      0.166350   374A      0.171717   375A      0.173010  
     376A      0.173267   377A      0.175234   378A      0.176137  
     379A      0.178784   380A      0.180051   381A      0.180218  
     382A      0.184540   383A      0.187522   384A      0.187797  
     385A      0.189953   386A      0.192433   387A      0.192464  
     388A      0.193007   389A      0.193441   390A      0.193766  
     391A      0.198111   392A      0.198242   393A      0.203336  
     394A      0.207559   395A      0.207727   396A      0.208100  
     397A      0.209211   398A      0.209608   399A      0.209761  
     400A      0.210595   401A      0.210908   402A      0.211613  
     403A      0.214716   404A      0.215413   405A      0.216948  
     406A      0.217107   407A      0.217733   408A      0.218432  
     409A      0.218473   410A      0.220142   411A      0.220829  
     412A      0.223676   413A      0.226858   414A      0.227929  
     415A      0.230214   416A      0.230232   417A      0.235473  
     418A      0.235561   419A      0.237418   420A      0.237538  
     421A      0.237675   422A      0.240234   423A      0.243763  
     424A      0.244132   425A      0.246061   426A      0.246304  
     427A      0.247201   428A      0.248219   429A      0.251235  
     430A      0.251735   431A      0.251811   432A      0.252449  
     433A      0.252738   434A      0.252891   435A      0.253584  
     436A      0.254054   437A      0.256679   438A      0.262515  
     439A      0.262592   440A      0.263593   441A      0.263666  
     442A      0.264449   443A      0.265046   444A      0.265434  
     445A      0.266499   446A      0.266917   447A      0.267104  
     448A      0.268110   449A      0.268327   450A      0.269773  
     451A      0.269839   452A      0.271407   453A      0.271487  
     454A      0.272727   455A      0.276645   456A      0.277203  
     457A      0.277857   458A      0.278013   459A      0.278757  
     460A      0.282730   461A      0.284629   462A      0.285298  
     463A      0.285350   464A      0.286309   465A      0.288170  
     466A      0.288276   467A      0.288675   468A      0.288747  
     469A      0.290186   470A      0.291287   471A      0.296702  
     472A      0.297095   473A      0.298971   474A      0.302233  
     475A      0.304905   476A      0.306084   477A      0.307333  
     478A      0.307844   479A      0.309348   480A      0.309508  
     481A      0.309936   482A      0.310171   483A      0.311653  
     484A      0.312742   485A      0.313235   486A      0.313484  
     487A      0.313556   488A      0.314436   489A      0.317808  
     490A      0.317851   491A      0.319790   492A      0.320193  
     493A      0.320309   494A      0.322992   495A      0.323024  
     496A      0.330381   497A      0.330426   498A      0.330435  
     499A      0.332419   500A      0.332676   501A      0.334875  
     502A      0.335641   503A      0.336441   504A      0.338135  
     505A      0.338436   506A      0.339658   507A      0.339752  
     508A      0.341497   509A      0.342751   510A      0.346733  
     511A      0.346838   512A      0.349484   513A      0.350592  
     514A      0.351277   515A      0.351416   516A      0.354380  
     517A      0.355408   518A      0.356485   519A      0.357413  
     520A      0.357741   521A      0.358205   522A      0.358317  
     523A      0.360126   524A      0.360443   525A      0.360787  
     526A      0.362741   527A      0.363349   528A      0.363490  
     529A      0.365876   530A      0.366302   531A      0.367592  
     532A      0.367645   533A      0.367787   534A      0.370066  
     535A      0.372401   536A      0.372543   537A      0.372699  
     538A      0.375882   539A      0.377661   540A      0.379157  
     541A      0.379485   542A      0.380494   543A      0.381209  
     544A      0.381396   545A      0.381854   546A      0.382541  
     547A      0.382697   548A      0.383287   549A      0.384366  
     550A      0.385142   551A      0.388867   552A      0.390822  
     553A      0.390869   554A      0.391381   555A      0.393127  
     556A      0.394177   557A      0.394191   558A      0.395952  
     559A      0.397818   560A      0.398004   561A      0.399523  
     562A      0.400227   563A      0.406288   564A      0.406370  
     565A      0.407778   566A      0.408280   567A      0.409242  
     568A      0.411785   569A      0.412399   570A      0.413288  
     571A      0.414142   572A      0.414532   573A      0.414811  
     574A      0.415269   575A      0.416352   576A      0.416654  
     577A      0.418407   578A      0.418679   579A      0.420191  
     580A      0.421012   581A      0.421701   582A      0.424110  
     583A      0.424671   584A      0.426301   585A      0.430318  
     586A      0.430455   587A      0.432702   588A      0.434179  
     589A      0.434574   590A      0.435372   591A      0.435461  
     592A      0.440484   593A      0.440606   594A      0.441011  
     595A      0.441236   596A      0.441509   597A      0.445094  
     598A      0.445541   599A      0.445820   600A      0.448112  
     601A      0.448779   602A      0.449010   603A      0.449770  
     604A      0.450181   605A      0.451161   606A      0.452394  
     607A      0.452506   608A      0.453541   609A      0.453786  
     610A      0.454067   611A      0.455603   612A      0.456938  
     613A      0.456999   614A      0.457320   615A      0.459767  
     616A      0.460769   617A      0.461148   618A      0.461435  
     619A      0.462203   620A      0.462431   621A      0.464137  
     622A      0.464465   623A      0.465086   624A      0.465100  
     625A      0.466659   626A      0.468438   627A      0.468499  
     628A      0.469441   629A      0.469649   630A      0.470863  
     631A      0.470970   632A      0.472619   633A      0.472998  
     634A      0.474368   635A      0.474754   636A      0.475570  
     637A      0.476367   638A      0.476834   639A      0.478849  
     640A      0.479404   641A      0.480841   642A      0.481026  
     643A      0.481272   644A      0.484561   645A      0.485483  
     646A      0.485565   647A      0.487797   648A      0.488298  
     649A      0.488708   650A      0.488784   651A      0.489254  
     652A      0.490165   653A      0.490323   654A      0.491450  
     655A      0.492934   656A      0.494040   657A      0.495009  
     658A      0.495792   659A      0.495986   660A      0.496924  
     661A      0.497891   662A      0.500161   663A      0.501675  
     664A      0.502013   665A      0.502559   666A      0.503230  
     667A      0.507597   668A      0.507722   669A      0.508694  
     670A      0.509274   671A      0.509967   672A      0.510448  
     673A      0.510593   674A      0.513344   675A      0.515470  
     676A      0.515703   677A      0.517300   678A      0.517398  
     679A      0.520092   680A      0.520967   681A      0.521579  
     682A      0.522099   683A      0.522814   684A      0.523546  
     685A      0.525206   686A      0.528633   687A      0.529732  
     688A      0.530516   689A      0.531008   690A      0.531171  
     691A      0.532156   692A      0.532546   693A      0.536185  
     694A      0.536683   695A      0.537292   696A      0.537805  
     697A      0.538350   698A      0.538572   699A      0.540008  
     700A      0.541043   701A      0.541182   702A      0.543384  
     703A      0.544315   704A      0.544830   705A      0.546380  
     706A      0.546447   707A      0.546834   708A      0.547069  
     709A      0.548958   710A      0.549147   711A      0.551456  
     712A      0.551676   713A      0.552956   714A      0.554788  
     715A      0.555229   716A      0.555861   717A      0.557115  
     718A      0.557357   719A      0.560062   720A      0.562486  
     721A      0.562910   722A      0.564536   723A      0.565247  
     724A      0.566144   725A      0.567782   726A      0.568976  
     727A      0.571695   728A      0.572653   729A      0.572815  
     730A      0.573168   731A      0.573568   732A      0.574604  
     733A      0.575937   734A      0.580982   735A      0.581518  
     736A      0.581676   737A      0.582130   738A      0.582297  
     739A      0.583630   740A      0.589085   741A      0.589375  
     742A      0.589982   743A      0.590072   744A      0.592456  
     745A      0.592624   746A      0.593042   747A      0.593804  
     748A      0.596436   749A      0.603248   750A      0.605403  
     751A      0.606484   752A      0.609200   753A      0.614999  
     754A      0.615166   755A      0.618344   756A      0.619315  
     757A      0.620638   758A      0.620871   759A      0.621207  
     760A      0.622640   761A      0.623484   762A      0.623926  
     763A      0.629101   764A      0.629522   765A      0.630728  
     766A      0.635616   767A      0.637523   768A      0.638020  
     769A      0.640337   770A      0.642316   771A      0.642693  
     772A      0.643544   773A      0.644130   774A      0.644570  
     775A      0.644867   776A      0.645587   777A      0.648104  
     778A      0.649729   779A      0.652118   780A      0.652831  
     781A      0.655852   782A      0.658078   783A      0.661606  
     784A      0.661975   785A      0.663265   786A      0.664352  
     787A      0.664410   788A      0.665251   789A      0.666942  
     790A      0.674331   791A      0.675349   792A      0.676854  
     793A      0.677337   794A      0.677837   795A      0.679333  
     796A      0.684183   797A      0.685565   798A      0.688867  
     799A      0.689968   800A      0.693366   801A      0.697868  
     802A      0.698850   803A      0.699903   804A      0.700870  
     805A      0.702291   806A      0.706581   807A      0.712108  
     808A      0.713547   809A      0.715478   810A      0.715822  
     811A      0.717157   812A      0.718019   813A      0.718534  
     814A      0.722237   815A      0.723783   816A      0.724983  
     817A      0.731438   818A      0.731721   819A      0.734135  
     820A      0.735339   821A      0.743265   822A      0.743960  
     823A      0.746340   824A      0.746479   825A      0.748110  
     826A      0.749749   827A      0.750755   828A      0.750985  
     829A      0.751449   830A      0.754441   831A      0.760893  
     832A      0.762548   833A      0.762923   834A      0.763153  
     835A      0.769415   836A      0.769645   837A      0.771331  
     838A      0.772169   839A      0.779590   840A      0.780765  
     841A      0.783940   842A      0.788890   843A      0.789631  
     844A      0.790233   845A      0.795755   846A      0.797975  
     847A      0.799909   848A      0.802351   849A      0.805980  
     850A      0.806315   851A      0.809119   852A      0.809137  
     853A      0.811299   854A      0.829032   855A      0.829219  
     856A      0.839557   857A      0.841712   858A      0.844577  
     859A      0.844705   860A      0.848643   861A      0.850158  
     862A      0.852576   863A      0.856024   864A      0.857077  
     865A      0.858778   866A      0.860817   867A      0.861756  
     868A      0.864714   869A      0.865270   870A      0.869976  
     871A      0.870823   872A      0.871408   873A      0.871754  
     874A      0.873227   875A      0.873357   876A      0.882487  
     877A      0.883332   878A      0.883946   879A      0.891104  
     880A      0.891606   881A      0.892180   882A      0.893907  
     883A      0.895943   884A      0.898430   885A      0.899965  
     886A      0.900579   887A      0.900938   888A      0.902571  
     889A      0.904714   890A      0.906613   891A      0.912059  
     892A      0.913608   893A      0.914342   894A      0.916407  
     895A      0.916825   896A      0.918446   897A      0.921316  
     898A      0.922465   899A      0.923414   900A      0.924675  
     901A      0.925478   902A      0.927674   903A      0.929312  
     904A      0.929990   905A      0.930699   906A      0.931377  
     907A      0.932836   908A      0.933990   909A      0.934823  
     910A      0.937736   911A      0.939226   912A      0.939958  
     913A      0.942770   914A      0.945660   915A      0.947802  
     916A      0.949492   917A      0.951417   918A      0.951659  
     919A      0.952995   920A      0.953842   921A      0.957291  
     922A      0.958252   923A      0.960449   924A      0.961124  
     925A      0.964498   926A      0.966668   927A      0.968435  
     928A      0.969292   929A      0.973276   930A      0.974537  
     931A      0.976250   932A      0.976457   933A      0.976673  
     934A      0.976804   935A      0.978897   936A      0.980291  
     937A      0.982941   938A      0.984370   939A      0.987595  
     940A      0.988225   941A      0.988824   942A      0.989756  
     943A      0.990582   944A      0.992807   945A      0.994214  
     946A      0.997238   947A      0.999651   948A      1.002169  
     949A      1.004094   950A      1.004894   951A      1.005476  
     952A      1.005535   953A      1.006265   954A      1.008094  
     955A      1.009463   956A      1.010949   957A      1.011087  
     958A      1.011481   959A      1.011775   960A      1.017455  
     961A      1.019365   962A      1.019822   963A      1.024123  
     964A      1.025389   965A      1.027770   966A      1.029177  
     967A      1.031387   968A      1.033029   969A      1.037010  
     970A      1.039849   971A      1.040933   972A      1.042610  
     973A      1.047765   974A      1.049114   975A      1.049414  
     976A      1.051289   977A      1.054420   978A      1.058772  
     979A      1.059038   980A      1.060773   981A      1.060894  
     982A      1.060956   983A      1.061803   984A      1.063223  
     985A      1.069822   986A      1.070296   987A      1.072372  
     988A      1.074403   989A      1.074865   990A      1.076408  
     991A      1.077596   992A      1.078569   993A      1.084497  
     994A      1.086764   995A      1.088122   996A      1.088504  
     997A      1.092022   998A      1.092209   999A      1.100413  
    1000A      1.101033  1001A      1.101640  1002A      1.102931  
    1003A      1.103298  1004A      1.104052  1005A      1.105154  
    1006A      1.105784  1007A      1.106169  1008A      1.106654  
    1009A      1.109418  1010A      1.109716  1011A      1.113832  
    1012A      1.113919  1013A      1.116869  1014A      1.117548  
    1015A      1.117832  1016A      1.119225  1017A      1.121656  
    1018A      1.124698  1019A      1.125221  1020A      1.125470  
    1021A      1.125799  1022A      1.126813  1023A      1.127399  
    1024A      1.127837  1025A      1.129849  1026A      1.130443  
    1027A      1.130895  1028A      1.131506  1029A      1.131649  
    1030A      1.132517  1031A      1.133136  1032A      1.133836  
    1033A      1.134116  1034A      1.135675  1035A      1.136425  
    1036A      1.136627  1037A      1.137635  1038A      1.138256  
    1039A      1.138445  1040A      1.138827  1041A      1.140107  
    1042A      1.140495  1043A      1.141106  1044A      1.141616  
    1045A      1.142059  1046A      1.144298  1047A      1.144906  
    1048A      1.146413  1049A      1.148049  1050A      1.149607  
    1051A      1.151799  1052A      1.153806  1053A      1.155191  
    1054A      1.156079  1055A      1.157154  1056A      1.157972  
    1057A      1.158906  1058A      1.159122  1059A      1.160262  
    1060A      1.161237  1061A      1.162311  1062A      1.168176  
    1063A      1.168629  1064A      1.169117  1065A      1.169626  
    1066A      1.172255  1067A      1.180041  1068A      1.180749  
    1069A      1.181290  1070A      1.182337  1071A      1.187334  
    1072A      1.188541  1073A      1.189301  1074A      1.189409  
    1075A      1.191383  1076A      1.193114  1077A      1.194693  
    1078A      1.195746  1079A      1.196407  1080A      1.198799  
    1081A      1.201970  1082A      1.202592  1083A      1.203621  
    1084A      1.206329  1085A      1.207646  1086A      1.208315  
    1087A      1.208397  1088A      1.210367  1089A      1.212943  
    1090A      1.213800  1091A      1.213916  1092A      1.219466  
    1093A      1.223215  1094A      1.225306  1095A      1.226202  
    1096A      1.228000  1097A      1.228731  1098A      1.234027  
    1099A      1.235471  1100A      1.238344  1101A      1.241538  
    1102A      1.244110  1103A      1.244448  1104A      1.246619  
    1105A      1.247447  1106A      1.250308  1107A      1.251647  
    1108A      1.259686  1109A      1.259767  1110A      1.260502  
    1111A      1.261126  1112A      1.262498  1113A      1.267107  
    1114A      1.268017  1115A      1.269079  1116A      1.270064  
    1117A      1.271687  1118A      1.273494  1119A      1.274275  
    1120A      1.275038  1121A      1.276702  1122A      1.279085  
    1123A      1.281389  1124A      1.289940  1125A      1.290939  
    1126A      1.302244  1127A      1.307487  1128A      1.307557  
    1129A      1.308008  1130A      1.308525  1131A      1.308718  
    1132A      1.315057  1133A      1.317427  1134A      1.317626  
    1135A      1.320906  1136A      1.322750  1137A      1.323943  
    1138A      1.326202  1139A      1.326781  1140A      1.337305  
    1141A      1.337770  1142A      1.337967  1143A      1.343530  
    1144A      1.346200  1145A      1.346937  1146A      1.347245  
    1147A      1.348774  1148A      1.349369  1149A      1.349623  
    1150A      1.352729  1151A      1.354829  1152A      1.357352  
    1153A      1.359413  1154A      1.359518  1155A      1.359847  
    1156A      1.367049  1157A      1.368119  1158A      1.368802  
    1159A      1.369875  1160A      1.372636  1161A      1.373069  
    1162A      1.374781  1163A      1.376362  1164A      1.378318  
    1165A      1.380042  1166A      1.381689  1167A      1.382063  
    1168A      1.385263  1169A      1.385345  1170A      1.388702  
    1171A      1.390024  1172A      1.390622  1173A      1.393259  
    1174A      1.396896  1175A      1.397091  1176A      1.401517  
    1177A      1.409083  1178A      1.411235  1179A      1.412566  
    1180A      1.412744  1181A      1.415371  1182A      1.415501  
    1183A      1.417524  1184A      1.418066  1185A      1.418751  
    1186A      1.423472  1187A      1.427804  1188A      1.427935  
    1189A      1.431208  1190A      1.431949  1191A      1.433365  
    1192A      1.443357  1193A      1.443637  1194A      1.444245  
    1195A      1.446540  1196A      1.448099  1197A      1.448456  
    1198A      1.451088  1199A      1.451258  1200A      1.461876  
    1201A      1.462467  1202A      1.463846  1203A      1.464982  
    1204A      1.465355  1205A      1.466669  1206A      1.466806  
    1207A      1.467598  1208A      1.471652  1209A      1.471886  
    1210A      1.479036  1211A      1.479598  1212A      1.480692  
    1213A      1.481160  1214A      1.484363  1215A      1.484577  
    1216A      1.486719  1217A      1.487569  1218A      1.489240  
    1219A      1.491078  1220A      1.491907  1221A      1.492916  
    1222A      1.493765  1223A      1.497162  1224A      1.498792  
    1225A      1.500410  1226A      1.507894  1227A      1.508119  
    1228A      1.508574  1229A      1.509239  1230A      1.509951  
    1231A      1.512078  1232A      1.512770  1233A      1.524496  
    1234A      1.524850  1235A      1.527104  1236A      1.527648  
    1237A      1.528434  1238A      1.529446  1239A      1.530143  
    1240A      1.537398  1241A      1.540492  1242A      1.540765  
    1243A      1.541650  1244A      1.548789  1245A      1.554807  
    1246A      1.555186  1247A      1.558890  1248A      1.561977  
    1249A      1.562709  1250A      1.563819  1251A      1.574190  
    1252A      1.575375  1253A      1.594084  1254A      1.594414  
    1255A      1.596499  1256A      1.601558  1257A      1.611189  
    1258A      1.611224  1259A      1.641916  1260A      1.642339  
    1261A      1.645016  1262A      1.647994  1263A      1.651720  
    1264A      1.658333  1265A      1.659581  1266A      1.663954  
    1267A      1.664364  1268A      1.664900  1269A      1.665528  
    1270A      1.666645  1271A      1.666908  1272A      1.668236  
    1273A      1.669107  1274A      1.673374  1275A      1.673453  
    1276A      1.674169  1277A      1.674303  1278A      1.676954  
    1279A      1.677421  1280A      1.678567  1281A      1.680075  
    1282A      1.680871  1283A      1.682764  1284A      1.683884  
    1285A      1.684483  1286A      1.688303  1287A      1.689165  
    1288A      1.690648  1289A      1.692838  1290A      1.693232  
    1291A      1.693910  1292A      1.694905  1293A      1.695706  
    1294A      1.696508  1295A      1.696806  1296A      1.697946  
    1297A      1.698536  1298A      1.699137  1299A      1.700760  
    1300A      1.703933  1301A      1.707446  1302A      1.707594  
    1303A      1.712008  1304A      1.712086  1305A      1.712240  
    1306A      1.712844  1307A      1.722405  1308A      1.722724  
    1309A      1.726218  1310A      1.726377  1311A      1.726628  
    1312A      1.727143  1313A      1.727624  1314A      1.729978  
    1315A      1.731819  1316A      1.732758  1317A      1.735633  
    1318A      1.736286  1319A      1.743766  1320A      1.745482  
    1321A      1.749872  1322A      1.750799  1323A      1.753808  
    1324A      1.753968  1325A      1.754819  1326A      1.756361  
    1327A      1.764327  1328A      1.764397  1329A      1.766930  
    1330A      1.771136  1331A      1.771253  1332A      1.771805  
    1333A      1.774965  1334A      1.776875  1335A      1.780131  
    1336A      1.780685  1337A      1.781691  1338A      1.781703  
    1339A      1.787419  1340A      1.793708  1341A      1.803451  
    1342A      1.804068  1343A      1.804857  1344A      1.805058  
    1345A      1.805749  1346A      1.820603  1347A      1.822266  
    1348A      1.823620  1349A      1.836361  1350A      1.838540  
    1351A      1.840534  1352A      1.841188  1353A      1.861698  
    1354A      1.861892  1355A      1.865881  1356A      1.872996  
    1357A      1.879084  1358A      1.881091  1359A      1.882156  
    1360A      1.882225  1361A      1.882844  1362A      1.883857  
    1363A      1.888326  1364A      1.888698  1365A      1.889210  
    1366A      1.894121  1367A      1.894360  1368A      1.894652  
    1369A      1.895786  1370A      1.903400  1371A      1.904645  
    1372A      1.909709  1373A      1.909994  1374A      1.916270  
    1375A      1.916857  1376A      1.920420  1377A      1.920464  
    1378A      1.922032  1379A      1.922578  1380A      1.925612  
    1381A      1.926874  1382A      1.927415  1383A      1.927597  
    1384A      1.928985  1385A      1.935209  1386A      1.935635  
    1387A      1.936477  1388A      1.938671  1389A      1.939974  
    1390A      1.940542  1391A      1.941190  1392A      1.943062  
    1393A      1.945105  1394A      1.946499  1395A      1.948529  
    1396A      1.958642  1397A      1.958891  1398A      1.960524  
    1399A      1.960885  1400A      1.966475  1401A      1.966970  
    1402A      1.973214  1403A      1.973939  1404A      1.978587  
    1405A      1.980039  1406A      1.980213  1407A      1.982535  
    1408A      1.983460  1409A      1.983693  1410A      1.987096  
    1411A      1.990908  1412A      1.991077  1413A      1.991853  
    1414A      1.994082  1415A      1.995371  1416A      1.997013  
    1417A      1.999463  1418A      1.999969  1419A      2.000515  
    1420A      2.001196  1421A      2.004447  1422A      2.007396  
    1423A      2.008374  1424A      2.011304  1425A      2.012208  
    1426A      2.015044  1427A      2.015485  1428A      2.016295  
    1429A      2.016732  1430A      2.018040  1431A      2.022189  
    1432A      2.023631  1433A      2.025954  1434A      2.026305  
    1435A      2.027478  1436A      2.028950  1437A      2.031936  
    1438A      2.034355  1439A      2.039620  1440A      2.041138  
    1441A      2.043056  1442A      2.043665  1443A      2.044940  
    1444A      2.045376  1445A      2.046002  1446A      2.048483  
    1447A      2.050841  1448A      2.054949  1449A      2.055026  
    1450A      2.056922  1451A      2.060021  1452A      2.064309  
    1453A      2.067635  1454A      2.069904  1455A      2.070782  
    1456A      2.072590  1457A      2.072755  1458A      2.074854  
    1459A      2.075562  1460A      2.077081  1461A      2.078174  
    1462A      2.079051  1463A      2.079541  1464A      2.081293  
    1465A      2.085610  1466A      2.087349  1467A      2.089518  
    1468A      2.090333  1469A      2.091807  1470A      2.093294  
    1471A      2.094672  1472A      2.096457  1473A      2.104564  
    1474A      2.106034  1475A      2.108926  1476A      2.111683  
    1477A      2.112732  1478A      2.113614  1479A      2.116416  
    1480A      2.117144  1481A      2.117419  1482A      2.118687  
    1483A      2.124009  1484A      2.124214  1485A      2.126325  
    1486A      2.127306  1487A      2.132562  1488A      2.133827  
    1489A      2.135270  1490A      2.135794  1491A      2.137277  
    1492A      2.138193  1493A      2.138692  1494A      2.138905  
    1495A      2.140170  1496A      2.140825  1497A      2.143524  
    1498A      2.144441  1499A      2.144891  1500A      2.145214  
    1501A      2.145385  1502A      2.146002  1503A      2.146787  
    1504A      2.148645  1505A      2.149891  1506A      2.150966  
    1507A      2.153787  1508A      2.155057  1509A      2.155847  
    1510A      2.156896  1511A      2.158324  1512A      2.159441  
    1513A      2.162058  1514A      2.163840  1515A      2.165382  
    1516A      2.168454  1517A      2.169249  1518A      2.170238  
    1519A      2.171458  1520A      2.171962  1521A      2.172806  
    1522A      2.174359  1523A      2.176635  1524A      2.181866  
    1525A      2.182075  1526A      2.182691  1527A      2.183416  
    1528A      2.184557  1529A      2.185278  1530A      2.186812  
    1531A      2.188058  1532A      2.190612  1533A      2.191786  
    1534A      2.195063  1535A      2.195461  1536A      2.198034  
    1537A      2.199077  1538A      2.199244  1539A      2.200671  
    1540A      2.201291  1541A      2.202369  1542A      2.208983  
    1543A      2.212237  1544A      2.213517  1545A      2.215145  
    1546A      2.215657  1547A      2.216276  1548A      2.216626  
    1549A      2.216817  1550A      2.217526  1551A      2.217852  
    1552A      2.219162  1553A      2.227561  1554A      2.228287  
    1555A      2.236161  1556A      2.236613  1557A      2.237574  
    1558A      2.238268  1559A      2.245175  1560A      2.247528  
    1561A      2.248480  1562A      2.250239  1563A      2.250947  
    1564A      2.253241  1565A      2.255409  1566A      2.255672  
    1567A      2.256632  1568A      2.257801  1569A      2.259545  
    1570A      2.260690  1571A      2.260798  1572A      2.261852  
    1573A      2.261989  1574A      2.266063  1575A      2.270147  
    1576A      2.271061  1577A      2.276623  1578A      2.277317  
    1579A      2.277649  1580A      2.279029  1581A      2.282379  
    1582A      2.282638  1583A      2.284902  1584A      2.285251  
    1585A      2.287243  1586A      2.288041  1587A      2.295917  
    1588A      2.297077  1589A      2.297739  1590A      2.299673  
    1591A      2.301923  1592A      2.302429  1593A      2.308033  
    1594A      2.308317  1595A      2.314181  1596A      2.315509  
    1597A      2.318746  1598A      2.319622  1599A      2.321675  
    1600A      2.322958  1601A      2.333089  1602A      2.338494  
    1603A      2.340225  1604A      2.345302  1605A      2.345858  
    1606A      2.351001  1607A      2.354274  1608A      2.359196  
    1609A      2.359509  1610A      2.364862  1611A      2.375542  
    1612A      2.380753  1613A      2.381152  1614A      2.381987  
    1615A      2.383484  1616A      2.385524  1617A      2.385954  
    1618A      2.388114  1619A      2.390402  1620A      2.391617  
    1621A      2.392279  1622A      2.396553  1623A      2.398226  
    1624A      2.398616  1625A      2.399230  1626A      2.401476  
    1627A      2.401856  1628A      2.402045  1629A      2.407977  
    1630A      2.408217  1631A      2.427692  1632A      2.431792  
    1633A      2.432370  1634A      2.439171  1635A      2.444078  
    1636A      2.448800  1637A      2.449173  1638A      2.450878  
    1639A      2.454869  1640A      2.474237  1641A      2.475722  
    1642A      2.480361  1643A      2.483417  1644A      2.489753  
    1645A      2.498177  1646A      2.499580  1647A      2.509247  
    1648A      2.510073  1649A      2.520081  1650A      2.520172  
    1651A      2.523572  1652A      2.523820  1653A      2.527389  
    1654A      2.527680  1655A      2.545832  1656A      2.546162  
    1657A      2.551897  1658A      2.556862  1659A      2.561082  
    1660A      2.562093  1661A      2.565844  1662A      2.571643  
    1663A      2.595534  1664A      2.595624  1665A      2.595966  
    1666A      2.597694  1667A      2.598449  1668A      2.601892  
    1669A      2.602041  1670A      2.603694  1671A      2.605737  
    1672A      2.607088  1673A      2.614531  1674A      2.614773  
    1675A      2.620528  1676A      2.625624  1677A      2.626847  
    1678A      2.633829  1679A      2.637163  1680A      2.637644  
    1681A      2.640655  1682A      2.641647  1683A      2.642064  
    1684A      2.642341  1685A      2.646566  1686A      2.648917  
    1687A      2.656686  1688A      2.656872  1689A      2.668368  
    1690A      2.668641  1691A      2.668882  1692A      2.669478  
    1693A      2.672440  1694A      2.673483  1695A      2.688851  
    1696A      2.696684  1697A      2.697374  1698A      2.699537  
    1699A      2.701755  1700A      2.702486  1701A      2.705234  
    1702A      2.706185  1703A      2.707214  1704A      2.710675  
    1705A      2.711076  1706A      2.721938  1707A      2.722998  
    1708A      2.724190  1709A      2.724721  1710A      2.724916  
    1711A      2.731386  1712A      2.731750  1713A      2.731944  
    1714A      2.740360  1715A      2.742250  1716A      2.743746  
    1717A      2.747180  1718A      2.747658  1719A      2.748042  
    1720A      2.748618  1721A      2.752390  1722A      2.753538  
    1723A      2.761132  1724A      2.775695  1725A      2.785310  
    1726A      2.785750  1727A      2.786373  1728A      2.786989  
    1729A      2.787091  1730A      2.808544  1731A      2.818928  
    1732A      2.819406  1733A      2.831960  1734A      2.834397  
    1735A      2.837234  1736A      2.837481  1737A      2.857028  
    1738A      2.857343  1739A      2.859538  1740A      2.859655  
    1741A      2.860543  1742A      2.868504  1743A      2.870922  
    1744A      2.871929  1745A      2.872502  1746A      2.873134  
    1747A      2.875606  1748A      2.886301  1749A      2.886618  
    1750A      2.896952  1751A      2.897686  1752A      2.898629  
    1753A      2.898751  1754A      2.902152  1755A      2.919957  
    1756A      2.922165  1757A      2.922728  1758A      2.925866  
    1759A      2.927122  1760A      2.930336  1761A      2.955208  
    1762A      2.956071  1763A      2.957467  1764A      2.971706  
    1765A      2.972043  1766A      2.980739  1767A      2.981796  
    1768A      2.983711  1769A      2.985709  1770A      2.986393  
    1771A      2.990271  1772A      2.990498  1773A      3.019347  
    1774A      3.019917  1775A      3.020364  1776A      3.031247  
    1777A      3.047274  1778A      3.048166  1779A      3.085569  
    1780A      3.086445  1781A      3.090158  1782A      3.093328  
    1783A      3.102385  1784A      3.103608  1785A      3.104250  
    1786A      3.114352  1787A      3.114434  1788A      3.116261  
    1789A      3.129050  1790A      3.162626  1791A      3.167412  
    1792A      3.167690  1793A      3.178224  1794A      3.183867  
    1795A      3.184012  1796A      3.188892  1797A      3.190416  
    1798A      3.196885  1799A      3.197669  1800A      3.203963  
    1801A      3.204530  1802A      3.205354  1803A      3.206010  
    1804A      3.207809  1805A      3.216083  1806A      3.225830  
    1807A      3.227432  1808A      3.229515  1809A      3.229777  
    1810A      3.247571  1811A      3.248230  1812A      3.274055  
    1813A      3.280802  1814A      3.308327  1815A      3.313483  
    1816A      3.317132  1817A      3.318281  1818A      3.318932  
    1819A      3.320729  1820A      3.323866  1821A      3.326733  
    1822A      3.330443  1823A      3.330920  1824A      3.350062  
    1825A      3.351541  1826A      3.354167  1827A      3.359020  
    1828A      3.418884  1829A      3.419828  1830A      3.428053  
    1831A      3.473687  1832A      3.487377  1833A      3.490969  
    1834A      3.499075  1835A      3.506588  1836A      3.509004  
    1837A      3.520504  1838A      3.522386  1839A      3.524422  
    1840A      3.529097  1841A      3.531976  1842A      3.540159  
    1843A      3.544001  1844A      3.552799  1845A      3.566907  
    1846A      3.598228  1847A      3.631793  1848A      3.633596  
    1849A      3.641005  1850A      3.646185  1851A      3.694534  
    1852A      3.698797  1853A      3.721901  1854A      3.723835  
    1855A      3.762618  1856A      3.805216  1857A      3.806013  
    1858A      3.807949  1859A      3.821893  1860A      3.834213  
    1861A      3.839215  1862A      3.897839  1863A      3.899844  
    1864A      3.927656  1865A      3.930869  1866A      3.961465  
    1867A      3.969919  1868A      3.996992  1869A      3.999761  
    1870A      4.004845  1871A      4.005745  1872A      4.016072  
    1873A      4.024613  1874A      4.029795  1875A      4.082918  
    1876A      4.085939  1877A      4.131085  1878A      4.172828  
    1879A      4.172932  1880A      4.173049  1881A      4.200720  
    1882A      4.201074  1883A      4.201126  1884A      4.201432  
    1885A      4.202221  1886A      4.233980  1887A      4.236947  
    1888A      4.240438  1889A      4.290833  1890A      4.363770  
    1891A      4.447589  1892A      4.447995  1893A      4.448526  
    1894A      4.455588  1895A      4.649339  1896A      4.651143  
    1897A      4.653638  1898A      4.749831  1899A      4.784899  
    1900A      4.787152  

    Final Occupation by Irrep:
              A 
    DOCC [   321 ]
    NA   [   321 ]
    NB   [   321 ]

  @DF-RHF Final Energy: -4073.10488756601808

   => Energetics <=

    Nuclear Repulsion Energy =          17329.8395636326858948
    One-Electron Energy =              -40142.9148028294584947
    Two-Electron Energy =               18739.9703516307563405
    Total Energy =                      -4073.1048875660162594

Computation Completed


Properties will be evaluated at   0.000000,   0.000000,   0.000000 [a0]

Properties computed using the SCF density matrix


 Multipole Moments:

 ------------------------------------------------------------------------------------
     Multipole            Electronic (a.u.)      Nuclear  (a.u.)        Total (a.u.)
 ------------------------------------------------------------------------------------

 L = 1.  Multiply by 2.5417464519 to convert [e a0] to [Debye]
 Dipole X            :         -0.0000544           -0.0001188           -0.0001732
 Dipole Y            :          0.0012168           -0.0002727            0.0009441
 Dipole Z            :         26.2511818          -35.7072375           -9.4560557
 Magnitude           :                                                    9.4560558

 ------------------------------------------------------------------------------------

*** tstop() called on n2cn0527.ab2021.local at Sat Jan 27 14:35:40 2024
Module time:
	user time   =   24803.59 seconds =     413.39 minutes
	system time =    1754.76 seconds =      29.25 minutes
	total time  =      11405 seconds =     190.08 minutes
Total time:
	user time   =   24803.59 seconds =     413.39 minutes
	system time =    1754.76 seconds =      29.25 minutes
	total time  =      11405 seconds =     190.08 minutes

  //>>>>>>>>>>>>>>>>>>>>>>>>>>>>>>>>>>>//
  //            Monomer A HF           //
  //<<<<<<<<<<<<<<<<<<<<<<<<<<<<<<<<<<<//

   => Libint2 <=

    Primary   basis highest AM E, G, H:  5, 4, 3
    Auxiliary basis highest AM E, G, H:  6, 5, 4
    Onebody   basis highest AM E, G, H:  6, 5, 4
    Solid Harmonics ordering:            gaussian

*** tstart() called on n2cn0527.ab2021.local
*** at Sat Jan 27 14:35:40 2024

   => Loading Basis Set <=

    Name: JUN-CC-PVDZ
    Role: ORBITAL
    Keyword: BASIS
    atoms 1                                                   entry B          line   130 file /opt/software/pc2/EB-SW/software/PSI4/1.9-foss-2022a/share/psi4/basis/jun-cc-pvdz.gbs 
    atoms 2-5                                                 entry F          line   266 file /opt/software/pc2/EB-SW/software/PSI4/1.9-foss-2022a/share/psi4/basis/jun-cc-pvdz.gbs 
    atoms 6-23, 30-42, 45-59, 62-78, 81-93, 98-108, 111-119   entry C          line   164 file /opt/software/pc2/EB-SW/software/PSI4/1.9-foss-2022a/share/psi4/basis/jun-cc-pvdz.gbs 
    atoms 24-29, 43-44, 60-61, 79-80, 94-97, 109-110, 120-125 entry H          line    36 file /opt/software/pc2/EB-SW/software/PSI4/1.9-foss-2022a/share/psi4/basis/jun-cc-pvdz.gbs 


         ---------------------------------------------------------
                                   SCF
               by Justin Turney, Rob Parrish, Andy Simmonett
                          and Daniel G. A. Smith
                              RHF Reference
                       16 Threads,  61035 MiB Core
         ---------------------------------------------------------

  ==> Geometry <==

    Molecular point group: c1
    Full point group: C1

    Geometry (in Angstrom), charge = -1, multiplicity = 1:

       Center              X                  Y                   Z               Mass       
    ------------   -----------------  -----------------  -----------------  -----------------
         B           -0.000050191042     0.000351518223     5.586737776488    11.009305360000
         F           -1.153601191042     0.000062518223     6.402384776488    18.998403162730
         F            1.153656808958    -0.000566481777     6.402384776488    18.998403162730
         F           -0.000023191042    -1.153622481777     4.771103776488    18.998403162730
         F           -0.000023191042     1.153992518223     4.771103776488    18.998403162730
      Gh(C)          -3.668445455062     7.803766688305    -0.411356182177    12.000000000000
      Gh(C)          -4.847602910388     7.131256349563    -0.413722757109    12.000000000000
      Gh(C)          -4.894963490217     5.696344921754    -0.414295668207    12.000000000000
      Gh(C)          -3.653744869815     4.980744859182    -0.406635226478    12.000000000000
      Gh(C)          -2.409429312536     7.113995554897    -0.411161839916    12.000000000000
      Gh(C)          -2.425481535146     5.681136469126    -0.418166728786    12.000000000000
      Gh(C)          -1.194748207477     7.786158712532    -0.409689659374    12.000000000000
      Gh(C)           0.037954837895     7.099436163980    -0.411860363679    12.000000000000
      Gh(C)           0.030328396378     5.669504077927    -0.417343748595    12.000000000000
      Gh(C)          -1.200988698947     4.969284866138    -0.408374014662    12.000000000000
      Gh(C)           1.277953634773     7.772873961417    -0.410484515119    12.000000000000
      Gh(C)           2.485353893683     7.087711403460    -0.412759003024    12.000000000000
      Gh(C)           2.486124493876     5.654785328463    -0.419696752011    12.000000000000
      Gh(C)           1.254078728602     4.956092631887    -0.408068810423    12.000000000000
      Gh(C)           3.751710400364     7.763926669203    -0.412632151643    12.000000000000
      Gh(C)           4.923561865144     7.078795295213    -0.414688632351    12.000000000000
      Gh(C)           4.955603080284     5.643461981592    -0.414849045158    12.000000000000
      Gh(C)           3.706797343163     4.941224726556    -0.409757484988    12.000000000000
      Gh(H)          -3.658525328800     8.890841937358    -0.409671193926     1.007825032230
      Gh(H)          -1.189217520798     8.874135605583    -0.405717782933     1.007825032230
      Gh(H)           1.284290047845     8.860847953711    -0.406325690978     1.007825032230
      Gh(H)           3.753537895758     8.851049797195    -0.411109627327     1.007825032230
      Gh(H)           5.869954512165     7.613809352878    -0.415613999393     1.007825032230
      Gh(H)          -5.788235898544     7.676316731157    -0.415282604465     1.007825032230
[...]
    1501A      2.113816  1502A      2.115391  1503A      2.117113  
    1504A      2.118252  1505A      2.119854  1506A      2.126648  
    1507A      2.126931  1508A      2.127159  1509A      2.127726  
    1510A      2.128029  1511A      2.128611  1512A      2.130168  
    1513A      2.131277  1514A      2.136260  1515A      2.136591  
    1516A      2.138047  1517A      2.139543  1518A      2.142978  
    1519A      2.143310  1520A      2.143744  1521A      2.144152  
    1522A      2.144534  1523A      2.154613  1524A      2.155231  
    1525A      2.157662  1526A      2.158178  1527A      2.159154  
    1528A      2.159629  1529A      2.159876  1530A      2.160218  
    1531A      2.162610  1532A      2.162901  1533A      2.171437  
    1534A      2.171748  1535A      2.179999  1536A      2.180890  
    1537A      2.181315  1538A      2.182320  1539A      2.188508  
    1540A      2.189786  1541A      2.191102  1542A      2.191670  
    1543A      2.192928  1544A      2.195150  1545A      2.197399  
    1546A      2.198285  1547A      2.200430  1548A      2.200698  
    1549A      2.201449  1550A      2.201646  1551A      2.204296  
    1552A      2.204896  1553A      2.205624  1554A      2.209615  
    1555A      2.213775  1556A      2.214165  1557A      2.220156  
    1558A      2.222194  1559A      2.222735  1560A      2.224540  
    1561A      2.224824  1562A      2.224854  1563A      2.228818  
    1564A      2.232008  1565A      2.232337  1566A      2.233188  
    1567A      2.238727  1568A      2.238971  1569A      2.239528  
    1570A      2.241472  1571A      2.247615  1572A      2.248088  
    1573A      2.249170  1574A      2.249667  1575A      2.260687  
    1576A      2.261768  1577A      2.263860  1578A      2.265017  
    1579A      2.266652  1580A      2.269562  1581A      2.275651  
    1582A      2.282833  1583A      2.284283  1584A      2.290455  
    1585A      2.291117  1586A      2.296345  1587A      2.296790  
    1588A      2.303847  1589A      2.304173  1590A      2.309079  
    1591A      2.316018  1592A      2.324582  1593A      2.324916  
    1594A      2.325213  1595A      2.327136  1596A      2.329487  
    1597A      2.330560  1598A      2.331189  1599A      2.333005  
    1600A      2.334488  1601A      2.335101  1602A      2.339818  
    1603A      2.341466  1604A      2.342194  1605A      2.342331  
    1606A      2.344871  1607A      2.345804  1608A      2.346303  
    1609A      2.349075  1610A      2.349426  1611A      2.368265  
    1612A      2.372495  1613A      2.372936  1614A      2.383737  
    1615A      2.387967  1616A      2.391013  1617A      2.391707  
    1618A      2.393130  1619A      2.397094  1620A      2.418338  
    1621A      2.419573  1622A      2.423601  1623A      2.427581  
    1624A      2.431974  1625A      2.442022  1626A      2.443410  
    1627A      2.452081  1628A      2.453082  1629A      2.464348  
    1630A      2.464423  1631A      2.467839  1632A      2.468035  
    1633A      2.471910  1634A      2.472173  1635A      2.491069  
    1636A      2.491379  1637A      2.494750  1638A      2.501823  
    1639A      2.506289  1640A      2.507482  1641A      2.511470  
    1642A      2.516206  1643A      2.539200  1644A      2.539259  
    1645A      2.540062  1646A      2.541976  1647A      2.542778  
    1648A      2.544879  1649A      2.547547  1650A      2.548654  
    1651A      2.549268  1652A      2.551323  1653A      2.556536  
    1654A      2.556698  1655A      2.564208  1656A      2.571158  
    1657A      2.571530  1658A      2.579985  1659A      2.583719  
    1660A      2.584228  1661A      2.585120  1662A      2.586252  
    1663A      2.588560  1664A      2.588795  1665A      2.593202  
    1666A      2.593509  1667A      2.601353  1668A      2.601499  
    1669A      2.612916  1670A      2.613066  1671A      2.613505  
    1672A      2.613827  1673A      2.616740  1674A      2.617759  
    1675A      2.632561  1676A      2.640609  1677A      2.641531  
    1678A      2.643636  1679A      2.645437  1680A      2.647424  
    1681A      2.648733  1682A      2.649288  1683A      2.652944  
    1684A      2.655809  1685A      2.656118  1686A      2.666009  
    1687A      2.666104  1688A      2.667589  1689A      2.670390  
    1690A      2.670542  1691A      2.673612  1692A      2.677201  
    1693A      2.677642  1694A      2.684313  1695A      2.685607  
    1696A      2.687236  1697A      2.691193  1698A      2.691291  
    1699A      2.691603  1700A      2.692511  1701A      2.696042  
    1702A      2.697310  1703A      2.704003  1704A      2.720694  
    1705A      2.730729  1706A      2.730896  1707A      2.731012  
    1708A      2.731329  1709A      2.731989  1710A      2.752728  
    1711A      2.760334  1712A      2.760756  1713A      2.773024  
    1714A      2.775962  1715A      2.780116  1716A      2.780337  
    1717A      2.799232  1718A      2.799887  1719A      2.801847  
    1720A      2.802208  1721A      2.802234  1722A      2.809346  
    1723A      2.811892  1724A      2.814505  1725A      2.815277  
    1726A      2.815686  1727A      2.816145  1728A      2.821030  
    1729A      2.824653  1730A      2.827402  1731A      2.828192  
    1732A      2.829227  1733A      2.840140  1734A      2.841337  
    1735A      2.841865  1736A      2.842139  1737A      2.845877  
    1738A      2.861809  1739A      2.864994  1740A      2.865507  
    1741A      2.870259  1742A      2.871111  1743A      2.874631  
    1744A      2.895919  1745A      2.896806  1746A      2.914357  
    1747A      2.917680  1748A      2.917861  1749A      2.927423  
    1750A      2.929668  1751A      2.935171  1752A      2.935229  
    1753A      2.963307  1754A      2.964935  1755A      2.965481  
    1756A      2.976139  1757A      2.991772  1758A      2.992671  
    1759A      3.029496  1760A      3.030227  1761A      3.035421  
    1762A      3.038542  1763A      3.046907  1764A      3.047637  
    1765A      3.047996  1766A      3.057557  1767A      3.057583  
    1768A      3.063495  1769A      3.072869  1770A      3.108399  
    1771A      3.112898  1772A      3.113134  1773A      3.122418  
    1774A      3.127460  1775A      3.127647  1776A      3.132721  
    1777A      3.134264  1778A      3.142140  1779A      3.142996  
    1780A      3.148322  1781A      3.148980  1782A      3.149470  
    1783A      3.150176  1784A      3.153559  1785A      3.162090  
    1786A      3.167807  1787A      3.173158  1788A      3.175069  
    1789A      3.175353  1790A      3.193059  1791A      3.193775  
    1792A      3.220068  1793A      3.252901  1794A      3.259490  
    1795A      3.261319  1796A      3.261545  1797A      3.262438  
    1798A      3.264532  1799A      3.268330  1800A      3.271193  
    1801A      3.274830  1802A      3.275425  1803A      3.293719  
    1804A      3.295013  1805A      3.297267  1806A      3.302957  
    1807A      3.361301  1808A      3.362286  1809A      3.370132  
    1810A      3.415843  1811A      3.429876  1812A      3.432281  
    1813A      3.436945  1814A      3.447004  1815A      3.449503  
    1816A      3.461415  1817A      3.464694  1818A      3.465572  
    1819A      3.471164  1820A      3.473964  1821A      3.481922  
    1822A      3.484898  1823A      3.494008  1824A      3.509107  
    1825A      3.539388  1826A      3.574275  1827A      3.575958  
    1828A      3.583300  1829A      3.590049  1830A      3.636522  
    1831A      3.640490  1832A      3.664911  1833A      3.666948  
    1834A      3.705100  1835A      3.747908  1836A      3.749372  
    1837A      3.750475  1838A      3.763052  1839A      3.778582  
    1840A      3.779766  1841A      3.841979  1842A      3.843373  
    1843A      3.871448  1844A      3.874605  1845A      3.904807  
    1846A      3.912981  1847A      3.937905  1848A      3.940092  
    1849A      3.948389  1850A      3.949235  1851A      3.958457  
    1852A      3.964875  1853A      3.970932  1854A      4.024642  
    1855A      4.027441  1856A      4.071296  1857A      4.198775  
    1858A      4.216290  1859A      4.219198  1860A      4.233993  
    1861A      4.302209  1862A      4.340810  1863A      4.393881  
    1864A      5.749555  1865A      5.749601  1866A      5.751630  
    1867A      5.754671  1868A      5.755240  1869A      5.759885  
    1870A      5.760979  1871A      5.762550  1872A      5.781281  
    1873A      5.783868  1874A      5.786058  1875A      6.020831  
    1876A      6.021256  1877A      6.022052  1878A      6.194725  
    1879A      6.327662  1880A      6.327942  1881A      6.376094  
    1882A      6.377214  1883A      6.378534  1884A      7.154410  
    1885A      7.216077  1886A      7.228786  1887A      7.244432  
    1888A      7.247913  1889A      7.262084  1890A      7.268074  
    1891A      7.277670  1892A      7.464708  1893A      7.481919  
    1894A      7.486448  1895A      7.622867  1896A     12.605425  
    1897A     42.911006  1898A     42.915642  1899A     42.918145  
    1900A     42.941401  

    Final Occupation by Irrep:
              A 
    DOCC [   300 ]
    NA   [   300 ]
    NB   [   300 ]

  @DF-RHF Final Energy: -3650.33789149086942

   => Energetics <=

    Nuclear Repulsion Energy =          15611.4211649754324753
    One-Electron Energy =              -36072.0866489274267224
    Two-Electron Energy =               16810.3275924611261871
    Total Energy =                      -3650.3378914908680599

Computation Completed


Properties will be evaluated at   0.000000,   0.000000,   0.000000 [a0]

Properties computed using the SCF density matrix


 Multipole Moments:

 ------------------------------------------------------------------------------------
     Multipole            Electronic (a.u.)      Nuclear  (a.u.)        Total (a.u.)
 ------------------------------------------------------------------------------------

 L = 1.  Multiply by 2.5417464519 to convert [e a0] to [Debye]
 Dipole X            :         -0.0008468            0.0001983           -0.0006485
 Dipole Y            :          0.0011099           -0.0013163           -0.0002064
 Dipole Z            :        468.5562826         -468.5612573           -0.0049747
 Magnitude           :                                                    0.0050211

 ------------------------------------------------------------------------------------

*** tstop() called on n2cn0527.ab2021.local at Sat Jan 27 17:17:50 2024
Module time:
	user time   =   17858.99 seconds =     297.65 minutes
	system time =    1325.28 seconds =      22.09 minutes
	total time  =       6322 seconds =     105.37 minutes
Total time:
	user time   =   46669.87 seconds =     777.83 minutes
	system time =    3427.81 seconds =      57.13 minutes
	total time  =      21135 seconds =     352.25 minutes
  Constructing Basis Sets for SAPT...

   => Loading Basis Set <=

    Name: (JUN-CC-PVDZ AUX)
    Role: RIFIT
    Keyword: DF_BASIS_SAPT
    atoms 1                                                   entry B          line    56 file /opt/software/pc2/EB-SW/software/PSI4/1.9-foss-2022a/share/psi4/basis/jun-cc-pvdz-ri.gbs 
    atoms 2-5                                                 entry F          line   232 file /opt/software/pc2/EB-SW/software/PSI4/1.9-foss-2022a/share/psi4/basis/jun-cc-pvdz-ri.gbs 
    atoms 6-23, 30-42, 45-59, 62-78, 81-93, 98-108, 111-119   entry C          line   100 file /opt/software/pc2/EB-SW/software/PSI4/1.9-foss-2022a/share/psi4/basis/jun-cc-pvdz-ri.gbs 
    atoms 24-29, 43-44, 60-61, 79-80, 94-97, 109-110, 120-125 entry H          line    30 file /opt/software/pc2/EB-SW/software/PSI4/1.9-foss-2022a/share/psi4/basis/jun-cc-pvdz-ri.gbs 

   => Loading Basis Set <=

    Name: (JUN-CC-PVDZ AUX)
    Role: JKFIT
    Keyword: DF_BASIS_ELST
    atoms 1                                                   entry B          line    90 file /opt/software/pc2/EB-SW/software/PSI4/1.9-foss-2022a/share/psi4/basis/jun-cc-pvdz-jkfit.gbs 
    atoms 2-5                                                 entry F          line   314 file /opt/software/pc2/EB-SW/software/PSI4/1.9-foss-2022a/share/psi4/basis/jun-cc-pvdz-jkfit.gbs 
    atoms 6-23, 30-42, 45-59, 62-78, 81-93, 98-108, 111-119   entry C          line   146 file /opt/software/pc2/EB-SW/software/PSI4/1.9-foss-2022a/share/psi4/basis/jun-cc-pvdz-jkfit.gbs 
    atoms 24-29, 43-44, 60-61, 79-80, 94-97, 109-110, 120-125 entry H          line    70 file /opt/software/pc2/EB-SW/software/PSI4/1.9-foss-2022a/share/psi4/basis/jun-cc-pvdz-jkfit.gbs 


  //>>>>>>>>>>>>>>>>>>>>>>>>>>>>>>>>>>>//
  //               SSAPT0              //
  //<<<<<<<<<<<<<<<<<<<<<<<<<<<<<<<<<<<//


*** tstart() called on n2cn0527.ab2021.local
*** at Sat Jan 27 17:17:52 2024

        SAPT0  
    Ed Hohenstein
     6 June 2009

      Orbital Information
  --------------------------
    NSO        =      1938
    NMO        =      1900
    NRI        =      6901
    NRI (Elst) =      8531
    NOCC A     =        21
    NOCC B     =       300
    FOCC A     =         5
    FOCC B     =        96
    NVIR A     =      1879
    NVIR B     =      1600

    Elst10,r            =     0.009733296407 [Eh]
    Exch10              =     0.000001717542 [Eh]
    Exch10 (S^2)        =     0.000001717562 [Eh]

    Iter     Energy [mEh]          dE [mEh]         Residual      Time [s]
       1      -0.00485268       0.004852678       0.472400619           753
       2      -0.00562861       0.000775931       0.243233620          1307
       3      -0.00593212       0.000303511       0.046086767          1864
       4      -0.00593130      -0.000000822       0.009781962          2708
       5      -0.00592272      -0.000008577       0.001349000          3386
       6      -0.00592396       0.000001236       0.000248610          4014
       7      -0.00592389      -0.000000067       0.000059387          4642
       8      -0.00592388      -0.000000014       0.000012487          5216
       9      -0.00592388       0.000000000       0.000003120          5885
      10      -0.00592388       0.000000001       0.000000422          6582

    CHF Iterations converged


    Iter     Energy [mEh]          dE [mEh]         Residual      Time [s]
       1      -7.89767854       7.897678536      48.836516141           711
       2      -5.04929874      -2.848379795       5.805526943          1346
       3      -5.02097227      -0.028326471       1.920566705          2073
       4      -5.11002434       0.089052069       0.617300230          2739
       5      -5.12265187       0.012627533       0.213084704          3584
       6      -5.12144842      -0.001203450       0.141741577          4327
       7      -5.11881663      -0.002631793       0.058672343          4982
       8      -5.11897865       0.000162025       0.029306127          5708
       9      -5.11953138       0.000552723       0.017288960          6349
      10      -5.11943232      -0.000099052       0.015799746          7036
      11      -5.11930941      -0.000122913       0.006768793          7669
      12      -5.11931438       0.000004974       0.003090959          8289
      13      -5.11933646       0.000022075       0.001185612          8816
      14      -5.11934264       0.000006183       0.000476622          9430
      15      -5.11934060      -0.000002046       0.000300898         10074
      16      -5.11933707      -0.000003527       0.000173634         10670
      17      -5.11933866       0.000001592       0.000080469         11322
      18      -5.11933918       0.000000516       0.000025858         12131
      19      -5.11933903      -0.000000148       0.000013787         12740
      20      -5.11933892      -0.000000107       0.000005601         13427
      21      -5.11933894       0.000000019       0.000002575         14291
      22      -5.11933896       0.000000017       0.000001251         15011
      23      -5.11933896      -0.000000002       0.000000529         15723

    CHF Iterations converged

    Ind20,r (A<-B)      =    -0.000005923877 [Eh]
    Ind20,r (B<-A)      =    -0.005119338957 [Eh]
    Ind20,r             =    -0.005125262834 [Eh]
    Exch-Ind20,r (A<-B) =     0.000000608265 [Eh]
    Exch-Ind20,r (B<-A) =     0.000001056656 [Eh]
    Exch-Ind20,r        =     0.000001664921 [Eh]
    Disp20              =    -0.000997229634 [Eh]
    Disp20 (SS)         =    -0.000498614817 [Eh]
    Disp20 (OS)         =    -0.000498614817 [Eh]
    Exch-Disp20         =     0.000001877639 [Eh]
    Exch-Disp20 (SS)    =     0.000001427816 [Eh]
    Exch-Disp20 (OS)    =     0.000000449823 [Eh]

    SAPT Results 
  --------------------------------------------------------------------------------------------------------
    Electrostatics                  9.73329641 [mEh]       6.10773571 [kcal/mol]      25.55476620 [kJ/mol]
      Elst10,r                      9.73329641 [mEh]       6.10773571 [kcal/mol]      25.55476620 [kJ/mol]

    Exchange                        0.00171754 [mEh]       0.00107777 [kcal/mol]       0.00450940 [kJ/mol]
      Exch10                        0.00171754 [mEh]       0.00107777 [kcal/mol]       0.00450940 [kJ/mol]
      Exch10(S^2)                   0.00171756 [mEh]       0.00107779 [kcal/mol]       0.00450946 [kJ/mol]

    Induction                      -5.09066409 [mEh]      -3.19443995 [kcal/mol]     -13.36553674 [kJ/mol]
      Ind20,r                      -5.12526283 [mEh]      -3.21615098 [kcal/mol]     -13.45637572 [kJ/mol]
      Exch-Ind20,r                  0.00166492 [mEh]       0.00104475 [kcal/mol]       0.00437125 [kJ/mol]
      delta HF,r (2)                0.03293382 [mEh]       0.02066628 [kcal/mol]       0.08646773 [kJ/mol]

    Dispersion                     -0.99535199 [mEh]      -0.62459281 [kcal/mol]      -2.61329630 [kJ/mol]
      Disp20                       -0.99722963 [mEh]      -0.62577104 [kcal/mol]      -2.61822604 [kJ/mol]
      Exch-Disp20                   0.00187764 [mEh]       0.00117824 [kcal/mol]       0.00492974 [kJ/mol]
      Disp20 (SS)                  -0.49861482 [mEh]      -0.31288552 [kcal/mol]      -1.30911302 [kJ/mol]
      Disp20 (OS)                  -0.49861482 [mEh]      -0.31288552 [kcal/mol]      -1.30911302 [kJ/mol]
      Exch-Disp20 (SS)              0.00142782 [mEh]       0.00089597 [kcal/mol]       0.00374873 [kJ/mol]
      Exch-Disp20 (OS)              0.00044982 [mEh]       0.00028227 [kcal/mol]       0.00118101 [kJ/mol]

  Total HF                          4.64434986 [mEh]       2.91437353 [kcal/mol]      12.19373887 [kJ/mol]
  Total SAPT0                       3.64899786 [mEh]       2.28978073 [kcal/mol]       9.58044256 [kJ/mol]

  Special recipe for scaled SAPT0 (see Manual):
    Electrostatics sSAPT0           9.73329641 [mEh]       6.10773571 [kcal/mol]      25.55476620 [kJ/mol]
    Exchange sSAPT0                 0.00171754 [mEh]       0.00107777 [kcal/mol]       0.00450940 [kJ/mol]
    Induction sSAPT0               -5.09066409 [mEh]      -3.19443995 [kcal/mol]     -13.36553674 [kJ/mol]
    Dispersion sSAPT0              -0.99535199 [mEh]      -0.62459281 [kcal/mol]      -2.61329630 [kJ/mol]
  Total sSAPT0                      3.64899786 [mEh]       2.28978073 [kcal/mol]       9.58044256 [kJ/mol]
  --------------------------------------------------------------------------------------------------------

*** tstop() called on n2cn0527.ab2021.local at Mon Jan 29 04:37:00 2024
Module time:
	user time   =   69491.62 seconds =    1158.19 minutes
	system time =    3965.46 seconds =      66.09 minutes
	total time  =     127148 seconds =    2119.13 minutes
Total time:
	user time   =  116163.15 seconds =    1936.05 minutes
	system time =    7393.28 seconds =     123.22 minutes
	total time  =     148285 seconds =    2471.42 minutes

    Psi4 stopped on: Monday, 29 January 2024 04:37AM
    Psi4 wall time for execution: 1 day, 17:11:26.36

*** Psi4 exiting successfully. Buy a developer a beer!
