
    -----------------------------------------------------------------------
          Psi4: An Open-Source Ab Initio Electronic Structure Package
                               Psi4 1.9 release

                         Git: Rev {} zzzzzzz 


    D. G. A. Smith, L. A. Burns, A. C. Simmonett, R. M. Parrish,
    M. C. Schieber, R. Galvelis, P. Kraus, H. Kruse, R. Di Remigio,
    A. Alenaizan, A. M. James, S. Lehtola, J. P. Misiewicz, M. Scheurer,
    R. A. Shaw, J. B. Schriber, Y. Xie, Z. L. Glick, D. A. Sirianni,
    J. S. O'Brien, J. M. Waldrop, A. Kumar, E. G. Hohenstein,
    B. P. Pritchard, B. R. Brooks, H. F. Schaefer III, A. Yu. Sokolov,
    K. Patkowski, A. E. DePrince III, U. Bozkaya, R. A. King,
    F. A. Evangelista, J. M. Turney, T. D. Crawford, C. D. Sherrill,
    J. Chem. Phys. 152(18) 184108 (2020). https://doi.org/10.1063/5.0006002

                            Additional Code Authors
    E. T. Seidl, C. L. Janssen, E. F. Valeev, M. L. Leininger,
    J. F. Gonthier, R. M. Richard, H. R. McAlexander, M. Saitow, X. Wang,
    P. Verma, M. H. Lechner, A. Jiang, S. Behnle, A. G. Heide,
    M. F. Herbst, and D. L. Poole

             Previous Authors, Complete List of Code Contributors,
                       and Citations for Specific Modules
    https://github.com/psi4/psi4/blob/master/codemeta.json
    https://github.com/psi4/psi4/graphs/contributors
    http://psicode.org/psi4manual/master/introduction.html#citing-psifour

    -----------------------------------------------------------------------


    Psi4 started on: Tuesday, 30 January 2024 06:13PM

    Process ID: 916148
    Host:       n2cn0859
    PSIDATADIR: /opt/software/pc2/EB-SW/software/PSI4/1.9-foss-2022a/share/psi4
    Memory:     500.0 MiB
    Threads:    16
    
  ==> Input File <==

--------------------------------------------------------------------------
memory 80 GB # how much memory is available ! Depends on the nodes/cores !

molecule dimer {
# monomer A
+1 1    # Charge and multiplicity
C  0.680067 -1.215929 2.808042
C -0.680504 -1.215545 2.806014
N -1.085635  0.102779 2.805016
C  0.000108  0.884180 2.801740
C -2.477365  0.570758 2.755610
N  1.085222  0.102779 2.805016
H  1.385146 -2.033368 2.815870
H -1.385302 -2.033214 2.806204
H -0.000009  1.965269 2.799993
C  2.478117  0.567877 2.821908
H  2.490592  1.658130 2.794563
H  2.967028  0.220701 3.735354
H  3.001428  0.176405 1.946425
H -2.857359  0.490799 1.733539
H -3.082679 -0.042306 3.425694
H -2.518128  1.610706 3.082594
--
# monomer B
0 1     # Charge and multiplicity
C   -3.66844126402057      7.80375217008252      0.00190004133558
C   -4.84759871934653      7.13124183134024     -0.00046653359696
C   -4.89495929917518      5.69633040353158     -0.00103944469517
C   -3.65374067877320      4.98073034095895      0.00662099703436
C   -2.40942512149445      7.11398103667468      0.00209438359570
C   -2.42547734410473      5.68112195090346     -0.00491050527438
C   -1.19474401643570      7.78614419430947      0.00356656413763
C   0.03795902893699      7.09942164575698      0.00139585983271
C   0.03033258741920      5.66948955970466     -0.00408752508301
C   -1.20098450790502      4.96927034791531      0.00488220885047
C   1.27795782581485      7.77285944319479      0.00277170839332
C   2.48535808472416      7.08769688523756      0.00049722048857
C   2.48612868491717      5.65477081024076     -0.00644052849921
C   1.25408291964399      4.95607811366431      0.00518741308898
C   3.75171459140595      7.76391215098033      0.00062407186893
C   4.92356605618520      7.07878077698995     -0.00143240883900
C   4.95560727132542      5.64344746336949     -0.00159282164606
C   3.70680153420475      4.94121020833308      0.00349873852374
H   -3.65852113775815      8.89082741913536      0.00358502958574
H   -1.18921332975660      8.87412108735996      0.00753844057883
H   1.28429423888630      8.86083343548850      0.00693053253426
H   3.75354208679975      8.85103527897216      0.00214659618464
H   5.86995870320703      7.61379483465560     -0.00235777588134
H   -5.78823170750226      7.67630221293400     -0.00202638095293
C   -6.09197395869619      4.99326001364347     -0.00291168518608
C   -6.12866148031747      3.58258016879823     -0.00171050815740
C   -3.66457974004527      3.56418217974434     -0.00463560277484
C   -4.89429820469869      2.86108077590057      0.00453338221034
C   -2.43733499489796      2.84761165708481      0.00719617576166
C   -1.20922785759670      3.54788693497833     -0.00648285103018
C   1.24714157216223      3.53468075142962     -0.00729145743546
C   0.01517603956900      2.83311183930540      0.00439272578912
C   2.46764517244071      2.82128997725533      0.00449278391269
C   3.70254947457969      3.52466015442405     -0.00899517692985
C   6.14498038638375      4.92757236613191     -0.00282626685777
C   6.16658835886151      3.51658447594213     -0.00065971342101
C   4.92460995845939      2.80840792535402      0.00587903281610
H   7.08990550964105      5.46688776622306     -0.00658814770723
H   -7.03104175110130      5.54268795285765     -0.00714490013730
C   -7.33969804112295      2.85841153457957     -0.00333767559888
C   -7.36488195805880      1.47032337158330     -0.00157213747140
C   -4.90350460894690      1.44442681216000     -0.00628840166334
C   -6.13225715261081      0.73993935705394      0.00600164231964
C   -3.67687480051673      0.72669714267312      0.00433931473643
C   -2.44565658606518      1.42964113326212     -0.00597039546461
C   -1.22360068130162      0.71532450163492      0.00545886906656
C   0.00763786931376      1.41738314923765      0.00392452278437
C   1.23121980774686      0.70211669058719     -0.01490206287210
C   2.46082110053113      1.40329203612573      0.00460244601878
C   3.68443025419614      0.68719842821222      0.00377365974158
C   4.91870890153864      1.39173456118907     -0.00862816189375
C   7.36980207796101      2.77948220318441     -0.00242013321349
C   7.38016266612146      1.39121750785509     -0.00087345036788
C   6.13979953912259      0.67411862320065      0.00545489144369
H   -8.27919079934664      3.40711804112415     -0.00763522772059
H   8.31511347147953      3.31811809662368     -0.00663070901292
C   -8.59175593758115      0.72483255304480     -0.00123170985383
C   -8.59902460370342     -0.63263980622873      0.00089141472904
C   -6.13981313911873     -0.67413663715361     -0.00609792660607
C   -7.38018411213749     -1.39126618958160      0.00131813493501
C   -4.91868448025621     -1.39175501803000      0.00624257154343
C   -3.68443829568458     -0.68723731573599     -0.00478966852105
C   -2.46081704024768     -1.40334517882457      0.00575341766833
C   -1.23116201232071     -0.70217386488055     -0.00636696112346
C   -0.00756962538737     -1.41741884941102      0.00108956317991
C   1.22364771588843     -0.71527537726392      0.01109518512883
C   2.44567064933149     -1.42964328900682     -0.00065482763106
C   3.67686670284649     -0.72670743155550     -0.00479541202602
C   6.13224884641929     -0.73997883984993     -0.00632338623858
C   4.90351914550401     -1.44445752054090      0.00751768830159
C   8.59901484869081      0.63260386666793     -0.00101133422380
C   8.59174548810050     -0.72485086719319      0.00072504603735
C   7.36486276438985     -1.47033266560598      0.00049486934466
H   -9.52830597181814      1.27684744919284     -0.00270163681798
H   9.54141097460619      1.17457248844457     -0.00206336648518
C   -7.36983790976868     -2.77954514593389      0.00312634335708
C   -4.92459910905015     -2.80843725734101     -0.00460528907921
C   -6.16662249566744     -3.51665219282533      0.00169655107992
C   -3.70251035970491     -3.52468154912026      0.00571878010666
C   -2.46764698511392     -2.82132596280400     -0.00632585824990
C   -0.01513347410770     -2.83314164539971     -0.00604426974092
C   -1.24712184122656     -3.53473217556300      0.00551968366725
C   1.20924506964357     -3.54791467864352      0.00805871345849
C   2.43733602215464     -2.84764173817541     -0.00608104485234
C   4.89430234377080     -2.86112296828604     -0.00526030478103
C   3.66461525504104     -3.56421984553201      0.00761911515957
C   6.12863901474565     -3.58258405771778      0.00096495711699
C   7.33967266469532     -2.85841330737039      0.00248018319869
H   -9.54144911125902     -1.17456346666430      0.00226083090216
H   9.52826186807155     -1.27691907390448      0.00197485379837
H   -8.31516504384864     -3.31814985321231      0.00729857188773
H   8.27915514249207     -3.40714078989363      0.00681973918158
C   -6.14499418870218     -4.92764727278338      0.00302254913999
C   -3.70678334799751     -4.94126171411716     -0.00679841894792
C   -4.95559005800169     -5.64349397349412      0.00116871569699
C   -2.48612132622665     -5.65478557440947      0.00614125209662
C   -1.25405833548005     -4.95612205000132     -0.00503435388927
C   1.20101257386816     -4.96928038819302     -0.00385322963129
C   -0.03033667441341     -5.66952030313900      0.00398997003238
C   3.65375010132847     -4.98074377541453     -0.00309522988330
C   2.42549269587528     -5.68117463552727      0.00628170066869
C   6.09196561781097     -4.99325796338655      0.00325918379042
C   4.89497644461045     -5.69634842095790      0.00202298796027
H   -7.08989238804069     -5.46699984223871      0.00742531082125
H   7.03105520920009     -5.54265853633254      0.00683896355417
C   -4.92354532219813     -7.07882109967734      0.00061394679214
C   -2.48534208823777     -7.08772807792913     -0.00189594564379
C   -3.75168589177895     -7.76394715763627     -0.00170126671874
C   -0.03794895698805     -7.09946487446944     -0.00168022049625
C   -1.27795610040136     -7.77290438466689     -0.00366491325785
C   2.40944432072629     -7.11402201200282     -0.00081701968533
C   1.19474993715296     -7.78618536556242     -0.00296931056689
C   4.84762105249800     -7.13126211057943      0.00168979497423
C   3.66847160587561     -7.80378799294376     -0.00065863938960
H   -5.86994035041618     -7.61383059804164      0.00215798365757
H   5.78824962538815     -7.67633218931421      0.00281691445618
H   -3.75352693944918     -8.85107156923607     -0.00353718114765
H   -1.28430440589466     -8.86087539249706     -0.00809229711623
H   1.18922157469537     -8.87416062058945     -0.00706194725726
H   3.65854661482387     -8.89086063405326     -0.00231318081200

    units angstrom      # Angstroms are the default
    no_reorient         # Geometry fixed, default
    symmetry c1         # C1 symmetry, default
}

set {
    scf_type DF         # Density fitting, faster than exact integrals
    freeze_core True    # Freeze core electrons
    basis jun-cc-pVDZ   # Jun-cc-pVDZ basis set, recommended for sSAPT0 in https://doi.org/10.1063/1.4867135
}

energy('ssapt0')        # Compute sSAPT0 energy, includes also SAPT0
--------------------------------------------------------------------------

  Memory set to  74.506 GiB by Python driver.

Scratch directory: /tmp/
   => Loading Basis Set <=

    Name: JUN-CC-PVDZ
    Role: ORBITAL
    Keyword: BASIS
    atoms 1-2, 4-5, 10, 17-34, 41-53, 56-70, 73-89, 92-104, 109-119, 122-130 entry C          line   164 file /opt/software/pc2/EB-SW/software/PSI4/1.9-foss-2022a/share/psi4/basis/jun-cc-pvdz.gbs 
    atoms 3, 6                                                               entry N          line   198 file /opt/software/pc2/EB-SW/software/PSI4/1.9-foss-2022a/share/psi4/basis/jun-cc-pvdz.gbs 
    atoms 7-9, 11-16, 35-40, 54-55, 71-72, 90-91, 105-108, 120-121, 131-136  entry H          line    36 file /opt/software/pc2/EB-SW/software/PSI4/1.9-foss-2022a/share/psi4/basis/jun-cc-pvdz.gbs 

   => Loading Basis Set <=

    Name: JUN-CC-PVDZ
    Role: ORBITAL
    Keyword: BASIS
    atoms 1-2, 4-5, 10, 17-34, 41-53, 56-70, 73-89, 92-104, 109-119, 122-130 entry C          line   164 file /opt/software/pc2/EB-SW/software/PSI4/1.9-foss-2022a/share/psi4/basis/jun-cc-pvdz.gbs 
    atoms 3, 6                                                               entry N          line   198 file /opt/software/pc2/EB-SW/software/PSI4/1.9-foss-2022a/share/psi4/basis/jun-cc-pvdz.gbs 
    atoms 7-9, 11-16, 35-40, 54-55, 71-72, 90-91, 105-108, 120-121, 131-136  entry H          line    36 file /opt/software/pc2/EB-SW/software/PSI4/1.9-foss-2022a/share/psi4/basis/jun-cc-pvdz.gbs 


  //>>>>>>>>>>>>>>>>>>>>>>>>>>>>>>>>>>>//
  //              Dimer HF             //
  //<<<<<<<<<<<<<<<<<<<<<<<<<<<<<<<<<<<//

   => Libint2 <=

    Primary   basis highest AM E, G, H:  5, 4, 3
    Auxiliary basis highest AM E, G, H:  6, 5, 4
    Onebody   basis highest AM E, G, H:  6, 5, 4
    Solid Harmonics ordering:            gaussian

*** tstart() called on n2cn0859
*** at Tue Jan 30 18:13:18 2024

   => Loading Basis Set <=

    Name: JUN-CC-PVDZ
    Role: ORBITAL
    Keyword: BASIS
    atoms 1-2, 4-5, 10, 17-34, 41-53, 56-70, 73-89, 92-104, 109-119, 122-130 entry C          line   164 file /opt/software/pc2/EB-SW/software/PSI4/1.9-foss-2022a/share/psi4/basis/jun-cc-pvdz.gbs 
    atoms 3, 6                                                               entry N          line   198 file /opt/software/pc2/EB-SW/software/PSI4/1.9-foss-2022a/share/psi4/basis/jun-cc-pvdz.gbs 
    atoms 7-9, 11-16, 35-40, 54-55, 71-72, 90-91, 105-108, 120-121, 131-136  entry H          line    36 file /opt/software/pc2/EB-SW/software/PSI4/1.9-foss-2022a/share/psi4/basis/jun-cc-pvdz.gbs 


         ---------------------------------------------------------
                                   SCF
               by Justin Turney, Rob Parrish, Andy Simmonett
                          and Daniel G. A. Smith
                              RHF Reference
                       16 Threads,  76293 MiB Core
         ---------------------------------------------------------

  ==> Geometry <==

    Molecular point group: c1
    Full point group: C1

    Geometry (in Angstrom), charge = 1, multiplicity = 1:

       Center              X                  Y                   Z               Mass       
    ------------   -----------------  -----------------  -----------------  -----------------
         C            0.680062820275    -1.215917226251     2.594560517309    12.000000000000
         C           -0.680508179725    -1.215533226251     2.592532517309    12.000000000000
         N           -1.085639179725     0.102790773749     2.591534517309    14.003074004430
         C            0.000103820275     0.884191773749     2.588258517309    12.000000000000
         C           -2.477369179725     0.570769773749     2.542128517309    12.000000000000
         N            1.085217820275     0.102790773749     2.591534517309    14.003074004430
         H            1.385141820275    -2.033356226251     2.602388517309     1.007825032230
         H           -1.385306179725    -2.033202226251     2.592722517309     1.007825032230
         H           -0.000013179725     1.965280773749     2.586511517309     1.007825032230
         C            2.478112820275     0.567888773749     2.608426517309    12.000000000000
         H            2.490587820275     1.658141773750     2.581081517309     1.007825032230
         H            2.967023820275     0.220712773749     3.521872517309     1.007825032230
         H            3.001423820275     0.176416773749     1.732943517309     1.007825032230
         H           -2.857363179725     0.490810773749     1.520057517309     1.007825032230
         H           -3.082683179725    -0.042294226251     3.212212517309     1.007825032230
         H           -2.518132179725     1.610717773749     2.869112517309     1.007825032230
         C           -3.668445443746     7.803763943832    -0.211581441355    12.000000000000
         C           -4.847602899072     7.131253605090    -0.213948016288    12.000000000000
         C           -4.894963478901     5.696342177281    -0.214520927386    12.000000000000
         C           -3.653744858499     4.980742114708    -0.206860485656    12.000000000000
         C           -2.409429301220     7.113992810424    -0.211387099095    12.000000000000
         C           -2.425481523830     5.681133724653    -0.218391987965    12.000000000000
         C           -1.194748196161     7.786155968059    -0.209914918553    12.000000000000
         C            0.037954849212     7.099433419506    -0.212085622858    12.000000000000
         C            0.030328407694     5.669501333454    -0.217569007774    12.000000000000
         C           -1.200988687630     4.969282121665    -0.208599273840    12.000000000000
         C            1.277953646089     7.772871216944    -0.210709774297    12.000000000000
         C            2.485353904999     7.087708658987    -0.212984262202    12.000000000000
         C            2.486124505192     5.654782583990    -0.219922011190    12.000000000000
         C            1.254078739919     4.956089887414    -0.208294069602    12.000000000000
         C            3.751710411681     7.763923924730    -0.212857410822    12.000000000000
         C            4.923561876460     7.078792550739    -0.214913891530    12.000000000000
         C            4.955603091600     5.643459237119    -0.215074304337    12.000000000000
         C            3.706797354479     4.941221982083    -0.209982744167    12.000000000000
         H           -3.658525317484     8.890839192885    -0.209896453105     1.007825032230
         H           -1.189217509482     8.874132861109    -0.205943042112     1.007825032230
         H            1.284290059161     8.860845209238    -0.206550950156     1.007825032230
         H            3.753537907074     8.851047052722    -0.211334886506     1.007825032230
         H            5.869954523482     7.613806608405    -0.215839258572     1.007825032230
         H           -5.788235887228     7.676313986684    -0.215507863644     1.007825032230
         C           -6.091978138422     4.993271787393    -0.216393167877    12.000000000000
         C           -6.128665660043     3.582591942548    -0.215191990848    12.000000000000
         C           -3.664583919771     3.564193953494    -0.218117085465    12.000000000000
         C           -4.894302384424     2.861092549650    -0.208948100480    12.000000000000
         C           -2.437339174623     2.847623430834    -0.206285306929    12.000000000000
         C           -1.209232037322     3.547898708728    -0.219964333721    12.000000000000
         C            1.247137392437     3.534692525179    -0.220772940126    12.000000000000
         C            0.015171859844     2.833123613055    -0.209088756901    12.000000000000
         C            2.467640992715     2.821301751005    -0.208988698778    12.000000000000
         C            3.702545294854     3.524671928174    -0.222476659620    12.000000000000
         C            6.144976206658     4.927584139881    -0.216307749548    12.000000000000
         C            6.166584179136     3.516596249692    -0.214141196112    12.000000000000
         C            4.924605778734     2.808419699104    -0.207602449874    12.000000000000
         H            7.089901329916     5.466899539973    -0.220069630398     1.007825032230
         H           -7.031045930827     5.542699726607    -0.220626382828     1.007825032230
         C           -7.339702220848     2.858423308329    -0.216819158289    12.000000000000
         C           -7.364886137784     1.470335145333    -0.215053620162    12.000000000000
         C           -4.903508788672     1.444438585909    -0.219769884354    12.000000000000
         C           -6.132261332336     0.739951130803    -0.207479840371    12.000000000000
         C           -3.676878980242     0.726708916423    -0.209142167954    12.000000000000
         C           -2.445660765791     1.429652907012    -0.219451878155    12.000000000000
         C           -1.223604861027     0.715336275384    -0.208022613624    12.000000000000
         C            0.007633689588     1.417394922987    -0.209556959906    12.000000000000
         C            1.231215628021     0.702128464337    -0.228383545563    12.000000000000
         C            2.460816920806     1.403303809875    -0.208879036672    12.000000000000
         C            3.684426074471     0.687210201962    -0.209707822949    12.000000000000
         C            4.918704721813     1.391746334939    -0.222109644584    12.000000000000
         C            7.369797898236     2.779493976934    -0.215901615904    12.000000000000
         C            7.380158486396     1.391229281605    -0.214354933058    12.000000000000
         C            6.139795359397     0.674130396950    -0.208026591247    12.000000000000
         H           -8.279194979072     3.407129814874    -0.221116710411     1.007825032230
         H            8.315109291754     3.318129870373    -0.220112191704     1.007825032230
         C           -8.591760117307     0.724844326794    -0.214713192544    12.000000000000
         C           -8.599028783429    -0.632628032479    -0.212590067962    12.000000000000
         C           -6.139817318844    -0.674124863404    -0.219579409297    12.000000000000
         C           -7.380188291863    -1.391254415832    -0.212163347756    12.000000000000
         C           -4.918688659982    -1.391743244281    -0.207238911147    12.000000000000
         C           -3.684442475410    -0.687225541986    -0.218271151212    12.000000000000
         C           -2.460821219973    -1.403333405075    -0.207728065022    12.000000000000
         C           -1.231166192046    -0.702162091131    -0.219848443814    12.000000000000
         C           -0.007573805113    -1.417407075662    -0.212391919511    12.000000000000
         C            1.223643536163    -0.715263603514    -0.202386297562    12.000000000000
         C            2.445666469606    -1.429631515257    -0.214136310322    12.000000000000
         C            3.676862523121    -0.726695657806    -0.218276894717    12.000000000000
         C            6.132244666694    -0.739967066100    -0.219804868929    12.000000000000
         C            4.903514965779    -1.444445746791    -0.205963794389    12.000000000000
         C            8.599010668965     0.632615640417    -0.214492816914    12.000000000000
         C            8.591741308375    -0.724839093444    -0.212756436653    12.000000000000
         C            7.364858584664    -1.470320891856    -0.212986613346    12.000000000000
         H           -9.528310151544     1.276859222942    -0.216183119509     1.007825032230
         H            9.541406794881     1.174584262194    -0.215544849176     1.007825032230
         C           -7.369842089494    -2.779533372184    -0.210355139334    12.000000000000
         C           -4.924603288776    -2.808425483592    -0.218086771770    12.000000000000
         C           -6.166626675393    -3.516640419076    -0.211784931611    12.000000000000
         C           -3.702514539430    -3.524669775371    -0.207762702584    12.000000000000
         C           -2.467651164839    -2.821314189055    -0.219807340940    12.000000000000
         C           -0.015137653833    -2.833129871650    -0.219525752432    12.000000000000
         C           -1.247126020952    -3.534720401814    -0.207961799023    12.000000000000
         C            1.209240889918    -3.547902904894    -0.205422769232    12.000000000000
         C            2.437331842429    -2.847629964426    -0.219562527543    12.000000000000
         C            4.894298164045    -2.861111194537    -0.218741787472    12.000000000000
         C            3.664611075316    -3.564208071783    -0.205862367531    12.000000000000
         C            6.128634835020    -3.582572283968    -0.212516525574    12.000000000000
         C            7.339668484970    -2.858401533621    -0.211001299492    12.000000000000
         H           -9.541453290984    -1.174551692915    -0.211220651788     1.007825032230
         H            9.528257688346    -1.276907300155    -0.211506628892     1.007825032230
         H           -8.315169223574    -3.318138079463    -0.206182910803     1.007825032230
         H            8.279150962767    -3.407129016144    -0.206661743509     1.007825032230
         C           -6.144998368428    -4.927635499034    -0.210458933551    12.000000000000
         C           -3.706787527723    -4.941249940368    -0.220279901639    12.000000000000
         C           -4.955594237727    -5.643482199745    -0.212312766994    12.000000000000
         C           -2.486125505952    -5.654773800660    -0.207340230594    12.000000000000
         C           -1.254062515205    -4.956110276252    -0.218515836580    12.000000000000
         C            1.201008394143    -4.969268614444    -0.217334712322    12.000000000000
         C           -0.030340854139    -5.669508529390    -0.209491512658    12.000000000000
         C            3.653745921603    -4.980732001665    -0.216576712574    12.000000000000
         C            2.425488516150    -5.681162861778    -0.207199782022    12.000000000000
         C            6.091961438086    -4.993246189637    -0.210222298900    12.000000000000
         C            4.894972264885    -5.696336647208    -0.211458494730    12.000000000000
         H           -7.089896567766    -5.466988068489    -0.206056171869     1.007825032230
         H            7.031051029475    -5.542646762583    -0.206642519136     1.007825032230
         C           -4.923549501924    -7.078809325928    -0.212867535898    12.000000000000
         C           -2.485346267963    -7.087716304180    -0.215377428334    12.000000000000
         C           -3.751690071504    -7.763935383887    -0.215182749409    12.000000000000
         C           -0.037953136713    -7.099453100720    -0.215161703187    12.000000000000
         C           -1.277960280127    -7.772892610917    -0.217146395948    12.000000000000
         C            2.409440141001    -7.114010238253    -0.214298502376    12.000000000000
         C            1.194745757428    -7.786173591813    -0.216450793257    12.000000000000
         C            4.847616872773    -7.131250336830    -0.211791687716    12.000000000000
         C            3.668467426150    -7.803776219194    -0.214140122080    12.000000000000
         H           -5.869944530142    -7.613818824292    -0.211323499033     1.007825032230
         H            5.788245445663    -7.676320415565    -0.210664568234     1.007825032230
         H           -3.753531119175    -8.851059795487    -0.217018663838     1.007825032230
         H           -1.284308585620    -8.860863618748    -0.221573779807     1.007825032230
         H            1.189217394970    -8.874148846840    -0.220543429948     1.007825032230
         H            3.658542435098    -8.890848860304    -0.215794663503     1.007825032230

  Running in c1 symmetry.

  Rotational constants: A =      0.00068  B =      0.00068  C =      0.00035 [cm^-1]
  Rotational constants: A =     20.47918  B =     20.34019  C =     10.50436 [MHz]
  Nuclear repulsion = 18612.996034576834063

  Charge       = 1
  Multiplicity = 1
  Electrons    = 652
  Nalpha       = 326
  Nbeta        = 326

  ==> Algorithm <==

  SCF Algorithm Type is DF.
  DIIS enabled.
  MOM disabled.
  Fractional occupation disabled.
  Guess Type is SAD.
  Energy threshold   = 1.00e-08
  Density threshold  = 1.00e-08
  Integral threshold = 1.00e-12

  ==> Primary Basis <==

  Basis Set: JUN-CC-PVDZ
    Blend: JUN-CC-PVDZ
    Number of shells: 923
    Number of basis functions: 2019
    Number of Cartesian functions: 2122
    Spherical Harmonics?: true
    Max angular momentum: 2

   => Loading Basis Set <=

    Name: (JUN-CC-PVDZ AUX)
    Role: JKFIT
    Keyword: DF_BASIS_SCF
    atoms 1-2, 4-5, 10, 17-34, 41-53, 56-70, 73-89, 92-104, 109-119, 122-130 entry C          line   146 file /opt/software/pc2/EB-SW/software/PSI4/1.9-foss-2022a/share/psi4/basis/jun-cc-pvdz-jkfit.gbs 
    atoms 3, 6                                                               entry N          line   202 file /opt/software/pc2/EB-SW/software/PSI4/1.9-foss-2022a/share/psi4/basis/jun-cc-pvdz-jkfit.gbs 
    atoms 7-9, 11-16, 35-40, 54-55, 71-72, 90-91, 105-108, 120-121, 131-136  entry H          line    70 file /opt/software/pc2/EB-SW/software/PSI4/1.9-foss-2022a/share/psi4/basis/jun-cc-pvdz-jkfit.gbs 

  ==> Integral Setup <==

  ==> DiskDFJK: Density-Fitted J/K Matrices <==

    J tasked:                  Yes
    K tasked:                  Yes
    wK tasked:                  No
    OpenMP threads:             16
    Integrals threads:          16
    Memory [MiB]:            57220
    Algorithm:                Disk
    Integral Cache:           SAVE
    Schwarz Cutoff:          1E-12
    Fitting Condition:       1E-10

   => Auxiliary Basis Set <=

  Basis Set: (JUN-CC-PVDZ AUX)
    Blend: JUN-CC-PVDZ-JKFIT
    Number of shells: 3078
    Number of basis functions: 8896
    Number of Cartesian functions: 10198
    Spherical Harmonics?: true
    Max angular momentum: 3

  Minimum eigenvalue in the overlap matrix is 4.8473256488E-11.
  Reciprocal condition number of the overlap matrix is 1.7666124493E-12.
    Using canonical orthogonalization.
  Overall, 41 of 2019 possible MOs eliminated.


  ==> Pre-Iterations <==

  SCF Guess: Superposition of Atomic Densities via on-the-fly atomic UHF (no occupation information).

   -------------------------
    Irrep   Nso     Nmo    
   -------------------------
     A       2019    1978 
   -------------------------
    Total    2019    1978
   -------------------------

  ==> Iterations <==

                           Total Energy        Delta E     RMS |[F,P]|

   @DF-RHF iter SAD: -3968.74300447901260   -3.96874e+03   0.00000e+00 
   @DF-RHF iter   1: -3952.04047263621396    1.67025e+01   7.17408e-04 DIIS/ADIIS
   @DF-RHF iter   2: -3953.43190752894498   -1.39143e+00   2.34851e-04 DIIS/ADIIS
   @DF-RHF iter   3: -3953.55471863710909   -1.22811e-01   1.04041e-04 DIIS/ADIIS
   @DF-RHF iter   4: -3953.57793685319712   -2.32182e-02   4.49434e-05 DIIS
   @DF-RHF iter   5: -3953.58272325032294   -4.78640e-03   1.31766e-05 DIIS
   @DF-RHF iter   6: -3953.58329158541528   -5.68335e-04   5.05925e-06 DIIS
   @DF-RHF iter   7: -3953.58349287883811   -2.01293e-04   2.36498e-06 DIIS
   @DF-RHF iter   8: -3953.58356079062833   -6.79118e-05   1.16768e-06 DIIS
   @DF-RHF iter   9: -3953.58358103866340   -2.02480e-05   4.39985e-07 DIIS
   @DF-RHF iter  10: -3953.58358258719363   -1.54853e-06   1.98620e-07 DIIS
   @DF-RHF iter  11: -3953.58358281462688   -2.27433e-07   8.47978e-08 DIIS
   @DF-RHF iter  12: -3953.58358286041721   -4.57903e-08   3.92016e-08 DIIS
   @DF-RHF iter  13: -3953.58358287552483   -1.51076e-08   1.40166e-08 DIIS
   @DF-RHF iter  14: -3953.58358287693864   -1.41381e-09   6.07938e-09 DIIS
  Energy and wave function converged.


  ==> Post-Iterations <==

    Orbital Energies [Eh]
    ---------------------

    Doubly Occupied:                                                      

       1A    -15.771879     2A    -15.771322     3A    -11.470412  
       4A    -11.399321     5A    -11.397805     6A    -11.387611  
       7A    -11.381751     8A    -11.347223     9A    -11.346743  
      10A    -11.346439    11A    -11.346178    12A    -11.345922  
      13A    -11.345580    14A    -11.345343    15A    -11.344976  
      16A    -11.344886    17A    -11.344486    18A    -11.344190  
      19A    -11.343519    20A    -11.343315    21A    -11.343157  
      22A    -11.342892    23A    -11.342562    24A    -11.342246  
      25A    -11.342104    26A    -11.342097    27A    -11.341854  
      28A    -11.341101    29A    -11.340863    30A    -11.340754  
      31A    -11.340692    32A    -11.337759    33A    -11.337140  
      34A    -11.336974    35A    -11.336890    36A    -11.336733  
      37A    -11.336688    38A    -11.336255    39A    -11.336102  
      40A    -11.335929    41A    -11.335803    42A    -11.335226  
      43A    -11.335059    44A    -11.334110    45A    -11.333753  
      46A    -11.333586    47A    -11.333433    48A    -11.333421  
      49A    -11.333298    50A    -11.333070    51A    -11.332982  
      52A    -11.332826    53A    -11.332822    54A    -11.332692  
      55A    -11.332607    56A    -11.332463    57A    -11.332424  
      58A    -11.332321    59A    -11.332158    60A    -11.331986  
      61A    -11.331908    62A    -11.331609    63A    -11.331593  
      64A    -11.331536    65A    -11.331426    66A    -11.331381  
      67A    -11.330723    68A    -11.330331    69A    -11.330195  
      70A    -11.330156    71A    -11.330051    72A    -11.330028  
      73A    -11.329887    74A    -11.329843    75A    -11.329798  
      76A    -11.329426    77A    -11.329308    78A    -11.329026  
      79A    -11.328983    80A    -11.323523    81A    -11.323220  
      82A    -11.323174    83A    -11.323103    84A    -11.323072  
      85A    -11.323050    86A    -11.322979    87A    -11.322874  
      88A    -11.322627    89A    -11.322463    90A    -11.322163  
      91A    -11.322044    92A    -11.319345    93A    -11.319224  
      94A    -11.319181    95A    -11.319138    96A    -11.318433  
      97A    -11.318366    98A    -11.317861    99A    -11.317749  
     100A    -11.317703   101A    -11.317666   102A    -11.316958  
     103A    -11.316893   104A     -1.518764   105A     -1.374565  
     106A     -1.336113   107A     -1.317097   108A     -1.315484  
     109A     -1.295044   110A     -1.294613   111A     -1.292635  
     112A     -1.273203   113A     -1.268559   114A     -1.265961  
     115A     -1.264543   116A     -1.245246   117A     -1.245164  
     118A     -1.232693   119A     -1.231322   120A     -1.228947  
     121A     -1.215453   122A     -1.215424   123A     -1.202741  
     124A     -1.190604   125A     -1.189787   126A     -1.188601  
     127A     -1.183702   128A     -1.181780   129A     -1.178237  
     130A     -1.162120   131A     -1.161799   132A     -1.147167  
     133A     -1.147122   134A     -1.144292   135A     -1.142059  
     136A     -1.140357   137A     -1.129496   138A     -1.119034  
     139A     -1.118945   140A     -1.113905   141A     -1.108893  
     142A     -1.108734   143A     -1.101386   144A     -1.099718  
     145A     -1.098330   146A     -1.080423   147A     -1.078282  
     148A     -1.075835   149A     -1.075347   150A     -1.075061  
     151A     -1.061936   152A     -1.059483   153A     -1.044094  
     154A     -1.044068   155A     -1.026903   156A     -1.026764  
     157A     -0.983231   158A     -0.982940   159A     -0.981972  
     160A     -0.974735   161A     -0.974709   162A     -0.969247  
     163A     -0.968916   164A     -0.966123   165A     -0.965139  
     166A     -0.964076   167A     -0.962199   168A     -0.942599  
     169A     -0.939899   170A     -0.936910   171A     -0.924134  
     172A     -0.922920   173A     -0.922245   174A     -0.919056  
     175A     -0.916877   176A     -0.906761   177A     -0.906491  
     178A     -0.897500   179A     -0.897448   180A     -0.861250  
     181A     -0.859675   182A     -0.859243   183A     -0.856256  
     184A     -0.855086   185A     -0.854700   186A     -0.853013  
     187A     -0.852957   188A     -0.840189   189A     -0.836531  
     190A     -0.824387   191A     -0.808132   192A     -0.803944  
     193A     -0.799848   194A     -0.799348   195A     -0.798105  
     196A     -0.797060   197A     -0.796838   198A     -0.792719  
     199A     -0.788098   200A     -0.787767   201A     -0.771076  
     202A     -0.770604   203A     -0.760566   204A     -0.760376  
     205A     -0.756925   206A     -0.756859   207A     -0.755989  
     208A     -0.754407   209A     -0.753824   210A     -0.751947  
     211A     -0.748556   212A     -0.731591   213A     -0.727736  
     214A     -0.724192   215A     -0.723928   216A     -0.723728  
     217A     -0.722368   218A     -0.722240   219A     -0.720128  
     220A     -0.715073   221A     -0.714653   222A     -0.711354  
     223A     -0.709700   224A     -0.709105   225A     -0.708757  
     226A     -0.701363   227A     -0.693683   228A     -0.684957  
     229A     -0.684678   230A     -0.680622   231A     -0.680444  
     232A     -0.679808   233A     -0.676716   234A     -0.674548  
     235A     -0.673571   236A     -0.672197   237A     -0.672087  
     238A     -0.670295   239A     -0.668189   240A     -0.667267  
     241A     -0.666704   242A     -0.666523   243A     -0.666376  
     244A     -0.663331   245A     -0.662353   246A     -0.662163  
     247A     -0.662026   248A     -0.648714   249A     -0.646042  
     250A     -0.645878   251A     -0.644486   252A     -0.643452  
     253A     -0.642857   254A     -0.642554   255A     -0.641057  
     256A     -0.637202   257A     -0.637017   258A     -0.631441  
     259A     -0.631119   260A     -0.628706   261A     -0.627280  
     262A     -0.626042   263A     -0.622062   264A     -0.616623  
     265A     -0.614885   266A     -0.612927   267A     -0.605010  
     268A     -0.604837   269A     -0.602354   270A     -0.602265  
     271A     -0.598314   272A     -0.598248   273A     -0.589241  
     274A     -0.589053   275A     -0.586185   276A     -0.585871  
     277A     -0.579555   278A     -0.579382   279A     -0.570831  
     280A     -0.569651   281A     -0.568172   282A     -0.567905  
     283A     -0.565617   284A     -0.560549   285A     -0.551471  
     286A     -0.550316   287A     -0.547508   288A     -0.546908  
     289A     -0.544717   290A     -0.542947   291A     -0.538689  
     292A     -0.538576   293A     -0.527524   294A     -0.525111  
     295A     -0.522094   296A     -0.521766   297A     -0.516179  
     298A     -0.511992   299A     -0.503706   300A     -0.503015  
     301A     -0.481031   302A     -0.480301   303A     -0.466728  
     304A     -0.461301   305A     -0.459462   306A     -0.456475  
     307A     -0.454367   308A     -0.451339   309A     -0.426033  
     310A     -0.425792   311A     -0.422570   312A     -0.417939  
     313A     -0.412743   314A     -0.406762   315A     -0.401581  
     316A     -0.401185   317A     -0.382334   318A     -0.379358  
     319A     -0.378470   320A     -0.371390   321A     -0.357007  
     322A     -0.327327   323A     -0.327147   324A     -0.323444  
     325A     -0.277485   326A     -0.276536  

    Virtual:                                                              

     327A     -0.083835   328A     -0.083090   329A     -0.045711  
     330A     -0.043040   331A     -0.033919   332A     -0.027359  
     333A     -0.018585   334A     -0.014841   335A     -0.009072  
     336A     -0.008171   337A     -0.006764   338A     -0.005777  
     339A     -0.005525   340A     -0.004752   341A     -0.004225  
     342A     -0.003851   343A     -0.001674   344A     -0.001626  
     345A      0.000091   346A      0.001154   347A      0.004347  
     348A      0.005852   349A      0.008205   350A      0.009618  
     351A      0.010405   352A      0.011833   353A      0.011914  
     354A      0.012930   355A      0.015695   356A      0.019921  
     357A      0.021194   358A      0.022831   359A      0.022865  
     360A      0.027827   361A      0.028787   362A      0.030844  
     363A      0.032599   364A      0.033032   365A      0.033690  
     366A      0.036656   367A      0.037819   368A      0.038105  
     369A      0.038235   370A      0.038734   371A      0.040010  
     372A      0.043557   373A      0.043981   374A      0.045945  
     375A      0.046061   376A      0.046745   377A      0.047921  
     378A      0.049362   379A      0.049836   380A      0.050116  
     381A      0.050203   382A      0.051128   383A      0.055792  
     384A      0.057530   385A      0.058266   386A      0.058570  
     387A      0.062419   388A      0.064009   389A      0.065155  
     390A      0.065856   391A      0.066047   392A      0.069417  
     393A      0.070712   394A      0.072125   395A      0.072686  
     396A      0.072899   397A      0.074361   398A      0.075136  
     399A      0.076147   400A      0.078555   401A      0.079774  
     402A      0.082260   403A      0.082621   404A      0.083929  
     405A      0.084105   406A      0.085976   407A      0.088249  
     408A      0.088655   409A      0.091775   410A      0.094074  
     411A      0.096282   412A      0.099279   413A      0.100439  
     414A      0.100943   415A      0.101761   416A      0.102456  
     417A      0.103444   418A      0.104402   419A      0.104444  
     420A      0.105012   421A      0.105639   422A      0.108170  
     423A      0.109597   424A      0.109873   425A      0.111200  
     426A      0.111646   427A      0.116288   428A      0.118364  
     429A      0.121761   430A      0.124111   431A      0.124264  
     432A      0.124390   433A      0.124489   434A      0.126444  
     435A      0.130555   436A      0.130677   437A      0.131432  
     438A      0.132011   439A      0.132481   440A      0.133207  
     441A      0.134721   442A      0.135923   443A      0.138986  
     444A      0.139515   445A      0.141363   446A      0.141728  
     447A      0.143543   448A      0.143695   449A      0.144094  
     450A      0.144482   451A      0.144823   452A      0.144890  
     453A      0.147368   454A      0.148308   455A      0.149232  
     456A      0.149736   457A      0.150940   458A      0.151183  
     459A      0.151778   460A      0.153743   461A      0.154017  
     462A      0.154633   463A      0.155560   464A      0.155862  
     465A      0.156475   466A      0.160230   467A      0.160472  
     468A      0.163012   469A      0.163395   470A      0.164829  
     471A      0.166652   472A      0.168129   473A      0.168487  
     474A      0.170551   475A      0.170778   476A      0.170927  
     477A      0.171349   478A      0.172363   479A      0.173953  
     480A      0.175135   481A      0.175603   482A      0.175955  
     483A      0.177132   484A      0.179652   485A      0.179997  
     486A      0.180883   487A      0.182384   488A      0.183340  
     489A      0.185393   490A      0.187592   491A      0.189490  
     492A      0.189942   493A      0.190505   494A      0.190727  
     495A      0.191510   496A      0.191889   497A      0.193232  
     498A      0.197286   499A      0.197946   500A      0.198883  
     501A      0.199308   502A      0.200856   503A      0.202229  
     504A      0.202684   505A      0.203163   506A      0.204852  
     507A      0.207294   508A      0.207451   509A      0.209137  
     510A      0.209324   511A      0.209942   512A      0.210603  
     513A      0.210914   514A      0.211964   515A      0.212545  
     516A      0.213496   517A      0.214947   518A      0.215767  
     519A      0.215803   520A      0.218147   521A      0.219209  
     522A      0.220299   523A      0.220887   524A      0.224011  
     525A      0.224407   526A      0.224456   527A      0.224978  
     528A      0.226552   529A      0.227735   530A      0.228266  
     531A      0.229373   532A      0.230730   533A      0.233213  
     534A      0.233505   535A      0.233845   536A      0.235186  
     537A      0.236336   538A      0.238141   539A      0.239138  
     540A      0.239360   541A      0.240169   542A      0.242725  
     543A      0.242988   544A      0.244364   545A      0.245694  
     546A      0.246644   547A      0.247647   548A      0.248912  
     549A      0.251015   550A      0.252242   551A      0.252635  
     552A      0.253407   553A      0.254488   554A      0.255374  
     555A      0.255760   556A      0.256196   557A      0.257515  
     558A      0.257725   559A      0.258605   560A      0.259207  
     561A      0.259816   562A      0.261205   563A      0.261862  
     564A      0.262670   565A      0.264190   566A      0.265179  
     567A      0.265723   568A      0.266012   569A      0.267213  
     570A      0.268513   571A      0.269397   572A      0.269517  
     573A      0.269986   574A      0.271011   575A      0.271646  
     576A      0.271973   577A      0.274180   578A      0.274819  
     579A      0.277006   580A      0.277688   581A      0.279520  
     582A      0.280287   583A      0.281562   584A      0.282278  
     585A      0.283671   586A      0.284112   587A      0.285368  
     588A      0.285993   589A      0.286425   590A      0.286828  
     591A      0.288298   592A      0.289334   593A      0.290154  
     594A      0.291807   595A      0.291968   596A      0.293172  
     597A      0.294126   598A      0.295168   599A      0.295447  
     600A      0.295816   601A      0.296975   602A      0.297621  
     603A      0.298976   604A      0.301006   605A      0.301733  
     606A      0.303188   607A      0.303411   608A      0.304569  
     609A      0.307033   610A      0.307380   611A      0.308399  
     612A      0.309758   613A      0.310956   614A      0.311841  
     615A      0.313073   616A      0.313415   617A      0.314706  
     618A      0.316221   619A      0.317078   620A      0.317329  
     621A      0.317570   622A      0.317835   623A      0.318226  
     624A      0.319716   625A      0.320213   626A      0.322570  
     627A      0.323773   628A      0.325183   629A      0.325870  
     630A      0.326971   631A      0.327815   632A      0.328579  
     633A      0.328946   634A      0.330253   635A      0.331019  
     636A      0.331844   637A      0.333400   638A      0.333518  
     639A      0.334245   640A      0.334811   641A      0.336717  
     642A      0.337286   643A      0.337448   644A      0.338151  
     645A      0.338919   646A      0.339598   647A      0.340209  
     648A      0.340460   649A      0.340934   650A      0.342290  
     651A      0.343291   652A      0.343635   653A      0.344380  
     654A      0.344931   655A      0.345895   656A      0.346341  
     657A      0.348347   658A      0.348861   659A      0.349750  
     660A      0.352899   661A      0.353119   662A      0.353923  
     663A      0.354570   664A      0.355060   665A      0.356356  
     666A      0.357603   667A      0.358730   668A      0.359142  
     669A      0.361256   670A      0.361510   671A      0.362080  
     672A      0.363553   673A      0.364152   674A      0.364966  
     675A      0.365684   676A      0.366100   677A      0.366799  
     678A      0.367990   679A      0.370801   680A      0.371745  
     681A      0.372242   682A      0.374627   683A      0.375504  
     684A      0.376481   685A      0.376801   686A      0.378394  
     687A      0.378775   688A      0.381126   689A      0.382585  
     690A      0.384133   691A      0.385618   692A      0.386040  
     693A      0.386347   694A      0.386769   695A      0.387422  
     696A      0.388505   697A      0.388742   698A      0.389300  
     699A      0.389800   700A      0.390781   701A      0.392977  
     702A      0.394226   703A      0.395704   704A      0.396983  
     705A      0.398804   706A      0.399534   707A      0.400501  
     708A      0.401083   709A      0.401294   710A      0.401913  
     711A      0.402176   712A      0.402947   713A      0.403873  
     714A      0.405444   715A      0.407334   716A      0.407602  
     717A      0.408249   718A      0.408713   719A      0.408930  
     720A      0.410179   721A      0.410923   722A      0.411544  
     723A      0.414329   724A      0.414853   725A      0.416831  
     726A      0.417929   727A      0.419517   728A      0.420147  
     729A      0.420877   730A      0.423651   731A      0.423684  
     732A      0.424127   733A      0.425123   734A      0.427385  
     735A      0.427922   736A      0.428537   737A      0.429408  
     738A      0.430068   739A      0.430250   740A      0.430944  
     741A      0.433257   742A      0.435548   743A      0.435956  
     744A      0.436812   745A      0.437729   746A      0.438080  
     747A      0.438713   748A      0.439616   749A      0.440396  
     750A      0.442920   751A      0.443603   752A      0.444545  
     753A      0.446794   754A      0.448394   755A      0.449987  
     756A      0.450844   757A      0.451727   758A      0.453162  
     759A      0.453593   760A      0.455836   761A      0.456582  
     762A      0.456861   763A      0.458524   764A      0.458890  
     765A      0.460098   766A      0.460909   767A      0.462125  
     768A      0.463368   769A      0.465990   770A      0.467679  
     771A      0.468702   772A      0.469212   773A      0.470328  
     774A      0.472341   775A      0.473610   776A      0.474709  
     777A      0.475329   778A      0.477010   779A      0.479759  
     780A      0.482159   781A      0.482950   782A      0.486857  
     783A      0.488853   784A      0.491402   785A      0.492195  
     786A      0.494236   787A      0.495007   788A      0.495649  
     789A      0.497466   790A      0.500090   791A      0.501607  
     792A      0.504182   793A      0.506846   794A      0.506942  
     795A      0.507869   796A      0.508740   797A      0.509526  
     798A      0.510037   799A      0.510933   800A      0.512305  
     801A      0.514619   802A      0.515810   803A      0.516478  
     804A      0.517383   805A      0.519233   806A      0.521676  
     807A      0.522684   808A      0.523566   809A      0.525555  
     810A      0.527694   811A      0.528654   812A      0.530910  
     813A      0.532004   814A      0.533610   815A      0.534665  
     816A      0.535658   817A      0.536573   818A      0.537210  
     819A      0.542169   820A      0.542874   821A      0.545599  
     822A      0.547366   823A      0.550682   824A      0.551279  
     825A      0.552631   826A      0.553495   827A      0.554663  
     828A      0.560152   829A      0.563269   830A      0.566021  
     831A      0.568679   832A      0.569373   833A      0.577921  
     834A      0.579344   835A      0.581288   836A      0.584482  
     837A      0.585194   838A      0.587513   839A      0.589085  
     840A      0.589122   841A      0.592365   842A      0.595872  
     843A      0.598382   844A      0.601910   845A      0.602529  
     846A      0.605582   847A      0.608247   848A      0.609139  
     849A      0.614625   850A      0.615808   851A      0.617429  
     852A      0.619154   853A      0.620550   854A      0.621348  
     855A      0.624631   856A      0.626794   857A      0.627656  
     858A      0.629482   859A      0.634093   860A      0.635017  
     861A      0.637032   862A      0.640895   863A      0.641499  
     864A      0.650731   865A      0.656253   866A      0.656728  
     867A      0.663487   868A      0.668487   869A      0.669632  
     870A      0.671639   871A      0.672032   872A      0.674035  
     873A      0.678312   874A      0.679365   875A      0.681841  
     876A      0.683097   877A      0.691384   878A      0.704666  
     879A      0.712949   880A      0.714877   881A      0.717763  
     882A      0.718277   883A      0.719577   884A      0.721133  
     885A      0.723965   886A      0.724292   887A      0.728132  
     888A      0.733972   889A      0.735129   890A      0.740680  
     891A      0.741310   892A      0.744196   893A      0.746626  
     894A      0.749646   895A      0.751088   896A      0.753338  
     897A      0.754556   898A      0.756421   899A      0.758220  
     900A      0.760120   901A      0.763753   902A      0.765114  
     903A      0.766307   904A      0.768553   905A      0.771492  
     906A      0.774066   907A      0.774994   908A      0.777589  
     909A      0.779447   910A      0.781921   911A      0.783599  
     912A      0.785100   913A      0.788781   914A      0.790467  
     915A      0.791465   916A      0.793742   917A      0.794701  
     918A      0.795940   919A      0.799297   920A      0.801878  
     921A      0.803206   922A      0.804635   923A      0.805556  
     924A      0.806677   925A      0.808887   926A      0.810154  
     927A      0.811836   928A      0.812924   929A      0.814552  
     930A      0.817410   931A      0.818229   932A      0.820348  
     933A      0.821757   934A      0.821984   935A      0.823635  
     936A      0.824225   937A      0.824740   938A      0.827645  
     939A      0.829276   940A      0.833511   941A      0.834162  
     942A      0.836227   943A      0.838094   944A      0.839517  
     945A      0.840069   946A      0.841891   947A      0.845755  
     948A      0.846620   949A      0.848862   950A      0.850756  
     951A      0.850771   952A      0.852252   953A      0.852459  
     954A      0.853243   955A      0.853941   956A      0.854769  
     957A      0.856595   958A      0.858828   959A      0.861330  
     960A      0.862962   961A      0.863742   962A      0.866020  
     963A      0.866802   964A      0.868744   965A      0.870427  
     966A      0.871592   967A      0.873739   968A      0.874633  
     969A      0.875907   970A      0.878074   971A      0.879112  
     972A      0.880371   973A      0.881057   974A      0.883001  
     975A      0.884657   976A      0.886765   977A      0.887042  
     978A      0.887850   979A      0.888345   980A      0.889140  
     981A      0.890422   982A      0.893226   983A      0.894408  
     984A      0.895800   985A      0.898486   986A      0.900695  
     987A      0.903194   988A      0.905209   989A      0.906019  
     990A      0.906651   991A      0.911464   992A      0.914291  
     993A      0.915795   994A      0.918480   995A      0.919898  
     996A      0.922234   997A      0.922788   998A      0.923950  
     999A      0.924833  1000A      0.926379  1001A      0.928599  
    1002A      0.930188  1003A      0.931668  1004A      0.933215  
    1005A      0.934719  1006A      0.936219  1007A      0.938630  
    1008A      0.939008  1009A      0.941824  1010A      0.943676  
    1011A      0.943963  1012A      0.946284  1013A      0.946554  
    1014A      0.949311  1015A      0.950681  1016A      0.951744  
    1017A      0.951994  1018A      0.956176  1019A      0.956798  
    1020A      0.957718  1021A      0.959895  1022A      0.961497  
    1023A      0.963570  1024A      0.964795  1025A      0.965365  
    1026A      0.966549  1027A      0.968157  1028A      0.969189  
    1029A      0.969631  1030A      0.972088  1031A      0.973001  
    1032A      0.975479  1033A      0.976723  1034A      0.977285  
    1035A      0.978439  1036A      0.978716  1037A      0.978972  
    1038A      0.982452  1039A      0.983134  1040A      0.984119  
    1041A      0.984307  1042A      0.986250  1043A      0.987428  
    1044A      0.989952  1045A      0.991352  1046A      0.991761  
    1047A      0.992368  1048A      0.993437  1049A      0.994378  
    1050A      0.996758  1051A      0.997092  1052A      0.998228  
    1053A      0.999205  1054A      1.000638  1055A      1.002273  
    1056A      1.003440  1057A      1.003659  1058A      1.003923  
    1059A      1.005069  1060A      1.005474  1061A      1.006174  
    1062A      1.007347  1063A      1.007925  1064A      1.008663  
    1065A      1.009974  1066A      1.010183  1067A      1.010380  
    1068A      1.011224  1069A      1.011478  1070A      1.012323  
    1071A      1.013739  1072A      1.015684  1073A      1.016501  
    1074A      1.017523  1075A      1.018010  1076A      1.018950  
    1077A      1.019313  1078A      1.020050  1079A      1.021226  
    1080A      1.022036  1081A      1.022335  1082A      1.023205  
    1083A      1.026308  1084A      1.027427  1085A      1.028657  
    1086A      1.029055  1087A      1.032286  1088A      1.032615  
    1089A      1.033113  1090A      1.035392  1091A      1.036938  
    1092A      1.038421  1093A      1.039130  1094A      1.040615  
    1095A      1.042941  1096A      1.043346  1097A      1.045317  
    1098A      1.046633  1099A      1.049493  1100A      1.050185  
    1101A      1.052925  1102A      1.053876  1103A      1.053952  
    1104A      1.056603  1105A      1.057312  1106A      1.059554  
    1107A      1.061734  1108A      1.063358  1109A      1.063634  
    1110A      1.065247  1111A      1.067173  1112A      1.069095  
    1113A      1.072565  1114A      1.073393  1115A      1.074801  
    1116A      1.077201  1117A      1.079884  1118A      1.081039  
    1119A      1.082410  1120A      1.083645  1121A      1.084443  
    1122A      1.086727  1123A      1.087838  1124A      1.088800  
    1125A      1.089129  1126A      1.090901  1127A      1.094036  
    1128A      1.094839  1129A      1.096696  1130A      1.097516  
    1131A      1.099925  1132A      1.102076  1133A      1.103317  
    1134A      1.104517  1135A      1.108279  1136A      1.111195  
    1137A      1.112650  1138A      1.115080  1139A      1.117516  
    1140A      1.120484  1141A      1.122139  1142A      1.124056  
    1143A      1.125740  1144A      1.128508  1145A      1.132219  
    1146A      1.134743  1147A      1.138340  1148A      1.139690  
    1149A      1.140659  1150A      1.142426  1151A      1.144178  
    1152A      1.145679  1153A      1.149066  1154A      1.149608  
    1155A      1.151255  1156A      1.152677  1157A      1.154391  
    1158A      1.157576  1159A      1.159088  1160A      1.159154  
    1161A      1.164534  1162A      1.165714  1163A      1.169478  
    1164A      1.171158  1165A      1.172035  1166A      1.173667  
    1167A      1.175586  1168A      1.176930  1169A      1.180774  
    1170A      1.183432  1171A      1.184187  1172A      1.189024  
    1173A      1.190737  1174A      1.191911  1175A      1.192567  
    1176A      1.193729  1177A      1.196480  1178A      1.199887  
    1179A      1.200877  1180A      1.207773  1181A      1.209213  
    1182A      1.211734  1183A      1.215485  1184A      1.217445  
    1185A      1.218303  1186A      1.219169  1187A      1.220222  
    1188A      1.221384  1189A      1.221997  1190A      1.225061  
    1191A      1.225956  1192A      1.228522  1193A      1.229027  
    1194A      1.230173  1195A      1.232819  1196A      1.235049  
    1197A      1.239382  1198A      1.240990  1199A      1.242874  
    1200A      1.244438  1201A      1.246950  1202A      1.248761  
    1203A      1.249180  1204A      1.250393  1205A      1.251730  
    1206A      1.252716  1207A      1.253580  1208A      1.254064  
    1209A      1.257863  1210A      1.262432  1211A      1.262913  
    1212A      1.263798  1213A      1.265917  1214A      1.267394  
    1215A      1.269930  1216A      1.270451  1217A      1.271184  
    1218A      1.272111  1219A      1.273893  1220A      1.276057  
    1221A      1.278970  1222A      1.280743  1223A      1.284988  
    1224A      1.289082  1225A      1.291206  1226A      1.292376  
    1227A      1.294660  1228A      1.295028  1229A      1.296766  
    1230A      1.299056  1231A      1.300672  1232A      1.301666  
    1233A      1.303694  1234A      1.304925  1235A      1.305810  
    1236A      1.307524  1237A      1.311669  1238A      1.312733  
    1239A      1.321274  1240A      1.322801  1241A      1.324287  
    1242A      1.325405  1243A      1.326748  1244A      1.327954  
    1245A      1.329864  1246A      1.331902  1247A      1.333179  
    1248A      1.335453  1249A      1.340130  1250A      1.341377  
    1251A      1.343957  1252A      1.344025  1253A      1.347639  
    1254A      1.348755  1255A      1.350400  1256A      1.351685  
    1257A      1.352882  1258A      1.353363  1259A      1.357321  
    1260A      1.358855  1261A      1.361180  1262A      1.361504  
    1263A      1.362981  1264A      1.363297  1265A      1.365808  
    1266A      1.367221  1267A      1.367809  1268A      1.370804  
    1269A      1.373542  1270A      1.374672  1271A      1.377592  
    1272A      1.379156  1273A      1.381268  1274A      1.383336  
    1275A      1.384735  1276A      1.385731  1277A      1.387497  
    1278A      1.389360  1279A      1.391239  1280A      1.395473  
    1281A      1.399274  1282A      1.401127  1283A      1.404182  
    1284A      1.405572  1285A      1.407763  1286A      1.409679  
    1287A      1.411122  1288A      1.415136  1289A      1.417444  
    1290A      1.419032  1291A      1.421343  1292A      1.422689  
    1293A      1.425034  1294A      1.430279  1295A      1.433113  
    1296A      1.435499  1297A      1.436335  1298A      1.437354  
    1299A      1.441835  1300A      1.445585  1301A      1.451623  
    1302A      1.461147  1303A      1.462956  1304A      1.467521  
    1305A      1.472354  1306A      1.474521  1307A      1.478072  
    1308A      1.483378  1309A      1.485440  1310A      1.487799  
    1311A      1.491117  1312A      1.497517  1313A      1.509449  
    1314A      1.513610  1315A      1.514343  1316A      1.519893  
    1317A      1.525373  1318A      1.527386  1319A      1.531440  
    1320A      1.534223  1321A      1.536461  1322A      1.539310  
    1323A      1.539483  1324A      1.541305  1325A      1.544046  
    1326A      1.544327  1327A      1.546165  1328A      1.546580  
    1329A      1.548629  1330A      1.549814  1331A      1.550543  
    1332A      1.551863  1333A      1.556772  1334A      1.558851  
    1335A      1.559246  1336A      1.560438  1337A      1.562300  
    1338A      1.563076  1339A      1.565010  1340A      1.565960  
    1341A      1.567910  1342A      1.568737  1343A      1.571263  
    1344A      1.573285  1345A      1.574352  1346A      1.575741  
    1347A      1.578847  1348A      1.579754  1349A      1.582062  
    1350A      1.582612  1351A      1.583807  1352A      1.585938  
    1353A      1.586860  1354A      1.587511  1355A      1.589150  
    1356A      1.590023  1357A      1.591666  1358A      1.593182  
    1359A      1.595684  1360A      1.597735  1361A      1.599993  
    1362A      1.600897  1363A      1.602483  1364A      1.604451  
    1365A      1.607440  1366A      1.608510  1367A      1.611727  
    1368A      1.616249  1369A      1.617965  1370A      1.618797  
    1371A      1.621650  1372A      1.623087  1373A      1.626471  
    1374A      1.629102  1375A      1.633472  1376A      1.634366  
    1377A      1.635400  1378A      1.636475  1379A      1.639119  
    1380A      1.641720  1381A      1.643883  1382A      1.645997  
    1383A      1.647324  1384A      1.648017  1385A      1.649085  
    1386A      1.654258  1387A      1.656326  1388A      1.663261  
    1389A      1.665650  1390A      1.667078  1391A      1.669365  
    1392A      1.671162  1393A      1.676178  1394A      1.678589  
    1395A      1.678945  1396A      1.679750  1397A      1.686151  
    1398A      1.689882  1399A      1.692329  1400A      1.694019  
    1401A      1.698475  1402A      1.704122  1403A      1.704620  
    1404A      1.712950  1405A      1.715434  1406A      1.718696  
    1407A      1.720147  1408A      1.721812  1409A      1.722952  
    1410A      1.727134  1411A      1.738190  1412A      1.740974  
    1413A      1.744118  1414A      1.751550  1415A      1.751973  
    1416A      1.752894  1417A      1.757237  1418A      1.759455  
    1419A      1.760586  1420A      1.763072  1421A      1.763875  
    1422A      1.765462  1423A      1.767226  1424A      1.769197  
    1425A      1.770544  1426A      1.772858  1427A      1.777848  
    1428A      1.778390  1429A      1.780087  1430A      1.783174  
    1431A      1.786119  1432A      1.788160  1433A      1.789839  
    1434A      1.790034  1435A      1.791722  1436A      1.792501  
    1437A      1.795999  1438A      1.798641  1439A      1.799418  
    1440A      1.802105  1441A      1.802844  1442A      1.806116  
    1443A      1.807604  1444A      1.810266  1445A      1.810955  
    1446A      1.811718  1447A      1.813211  1448A      1.813613  
    1449A      1.815529  1450A      1.817994  1451A      1.819501  
    1452A      1.822562  1453A      1.822905  1454A      1.824897  
    1455A      1.825660  1456A      1.829983  1457A      1.832155  
    1458A      1.836092  1459A      1.837594  1460A      1.840649  
    1461A      1.842586  1462A      1.843172  1463A      1.846934  
    1464A      1.848657  1465A      1.849066  1466A      1.850786  
    1467A      1.852458  1468A      1.855787  1469A      1.858333  
    1470A      1.860280  1471A      1.861836  1472A      1.865571  
    1473A      1.866843  1474A      1.869447  1475A      1.870697  
    1476A      1.872806  1477A      1.874513  1478A      1.876344  
    1479A      1.877053  1480A      1.878662  1481A      1.880139  
    1482A      1.883824  1483A      1.884728  1484A      1.887314  
    1485A      1.891318  1486A      1.892558  1487A      1.893163  
    1488A      1.895235  1489A      1.896622  1490A      1.898882  
    1491A      1.900546  1492A      1.901660  1493A      1.903315  
    1494A      1.904746  1495A      1.906480  1496A      1.909819  
    1497A      1.912175  1498A      1.913572  1499A      1.916232  
    1500A      1.918613  1501A      1.919835  1502A      1.922606  
    1503A      1.924880  1504A      1.928666  1505A      1.930664  
    1506A      1.932223  1507A      1.934635  1508A      1.935987  
    1509A      1.939981  1510A      1.941331  1511A      1.942420  
    1512A      1.943539  1513A      1.944319  1514A      1.944723  
    1515A      1.947286  1516A      1.949593  1517A      1.951290  
    1518A      1.954155  1519A      1.956006  1520A      1.957301  
    1521A      1.958565  1522A      1.959531  1523A      1.962133  
    1524A      1.964686  1525A      1.966555  1526A      1.967403  
    1527A      1.969127  1528A      1.970755  1529A      1.972732  
    1530A      1.974841  1531A      1.976081  1532A      1.979619  
    1533A      1.980989  1534A      1.981397  1535A      1.983404  
    1536A      1.986973  1537A      1.987916  1538A      1.989839  
    1539A      1.991110  1540A      1.992500  1541A      1.995793  
    1542A      1.997373  1543A      1.999375  1544A      2.000575  
    1545A      2.003234  1546A      2.004617  1547A      2.007188  
    1548A      2.008748  1549A      2.009620  1550A      2.010444  
    1551A      2.011426  1552A      2.012236  1553A      2.013332  
    1554A      2.013624  1555A      2.016802  1556A      2.016969  
    1557A      2.019517  1558A      2.020464  1559A      2.021658  
    1560A      2.021971  1561A      2.023116  1562A      2.024043  
    1563A      2.025296  1564A      2.025520  1565A      2.027479  
    1566A      2.028816  1567A      2.029253  1568A      2.030181  
    1569A      2.031237  1570A      2.032286  1571A      2.035956  
    1572A      2.036612  1573A      2.038414  1574A      2.040711  
    1575A      2.041430  1576A      2.043800  1577A      2.044587  
    1578A      2.046500  1579A      2.046987  1580A      2.047489  
    1581A      2.051029  1582A      2.052725  1583A      2.053862  
    1584A      2.054958  1585A      2.055378  1586A      2.058133  
    1587A      2.059842  1588A      2.061822  1589A      2.063575  
    1590A      2.064711  1591A      2.065497  1592A      2.066153  
    1593A      2.068218  1594A      2.069159  1595A      2.071124  
    1596A      2.072739  1597A      2.074875  1598A      2.075255  
    1599A      2.076447  1600A      2.079056  1601A      2.081859  
    1602A      2.084010  1603A      2.086177  1604A      2.088738  
    1605A      2.089451  1606A      2.089836  1607A      2.092729  
    1608A      2.094619  1609A      2.097002  1610A      2.097747  
    1611A      2.100305  1612A      2.102819  1613A      2.103453  
    1614A      2.106183  1615A      2.107654  1616A      2.110152  
    1617A      2.113292  1618A      2.113519  1619A      2.116104  
    1620A      2.116975  1621A      2.119213  1622A      2.121506  
    1623A      2.123666  1624A      2.124136  1625A      2.125507  
    1626A      2.128572  1627A      2.130261  1628A      2.132649  
    1629A      2.133682  1630A      2.134037  1631A      2.136996  
    1632A      2.138016  1633A      2.140794  1634A      2.142014  
    1635A      2.144809  1636A      2.146298  1637A      2.146994  
    1638A      2.147992  1639A      2.149549  1640A      2.153167  
    1641A      2.154916  1642A      2.156195  1643A      2.156773  
    1644A      2.160579  1645A      2.160789  1646A      2.161946  
    1647A      2.163711  1648A      2.166007  1649A      2.167084  
    1650A      2.167698  1651A      2.171341  1652A      2.173899  
    1653A      2.176600  1654A      2.177407  1655A      2.182022  
    1656A      2.184850  1657A      2.185776  1658A      2.187421  
    1659A      2.191107  1660A      2.199617  1661A      2.200879  
    1662A      2.205242  1663A      2.208784  1664A      2.209672  
    1665A      2.211281  1666A      2.211492  1667A      2.214111  
    1668A      2.214382  1669A      2.219163  1670A      2.222674  
    1671A      2.224106  1672A      2.226091  1673A      2.227577  
    1674A      2.232046  1675A      2.234109  1676A      2.238143  
    1677A      2.241967  1678A      2.246657  1679A      2.248545  
    1680A      2.251400  1681A      2.255206  1682A      2.255777  
    1683A      2.257592  1684A      2.259127  1685A      2.260391  
    1686A      2.263841  1687A      2.264161  1688A      2.264921  
    1689A      2.266346  1690A      2.269266  1691A      2.269822  
    1692A      2.271241  1693A      2.272713  1694A      2.273077  
    1695A      2.276431  1696A      2.278033  1697A      2.282641  
    1698A      2.286352  1699A      2.288103  1700A      2.293577  
    1701A      2.296019  1702A      2.308479  1703A      2.315478  
    1704A      2.316108  1705A      2.316675  1706A      2.325461  
    1707A      2.326646  1708A      2.328929  1709A      2.335781  
    1710A      2.336827  1711A      2.345054  1712A      2.348164  
    1713A      2.350166  1714A      2.351981  1715A      2.355877  
    1716A      2.357007  1717A      2.361162  1718A      2.369098  
    1719A      2.372828  1720A      2.379993  1721A      2.381034  
    1722A      2.389011  1723A      2.390919  1724A      2.393405  
    1725A      2.394674  1726A      2.398271  1727A      2.398968  
    1728A      2.401829  1729A      2.403956  1730A      2.407879  
    1731A      2.413131  1732A      2.418629  1733A      2.426901  
    1734A      2.430111  1735A      2.433833  1736A      2.439938  
    1737A      2.444321  1738A      2.445687  1739A      2.449527  
    1740A      2.452284  1741A      2.465549  1742A      2.469431  
    1743A      2.471963  1744A      2.472785  1745A      2.475365  
    1746A      2.477491  1747A      2.479387  1748A      2.480956  
    1749A      2.482722  1750A      2.485771  1751A      2.487058  
    1752A      2.491065  1753A      2.491443  1754A      2.492730  
    1755A      2.501040  1756A      2.503575  1757A      2.505575  
    1758A      2.514367  1759A      2.517058  1760A      2.519753  
    1761A      2.520507  1762A      2.521255  1763A      2.523058  
    1764A      2.523312  1765A      2.525743  1766A      2.529384  
    1767A      2.532673  1768A      2.534676  1769A      2.540055  
    1770A      2.545901  1771A      2.546360  1772A      2.547200  
    1773A      2.550701  1774A      2.552845  1775A      2.561040  
    1776A      2.569318  1777A      2.570310  1778A      2.574053  
    1779A      2.578194  1780A      2.580483  1781A      2.582536  
    1782A      2.584452  1783A      2.585416  1784A      2.587822  
    1785A      2.589600  1786A      2.591084  1787A      2.594355  
    1788A      2.596669  1789A      2.600209  1790A      2.602829  
    1791A      2.604065  1792A      2.605232  1793A      2.608994  
    1794A      2.609574  1795A      2.615730  1796A      2.618075  
    1797A      2.619258  1798A      2.619777  1799A      2.623283  
    1800A      2.623775  1801A      2.624810  1802A      2.627185  
    1803A      2.631019  1804A      2.634957  1805A      2.635827  
    1806A      2.641308  1807A      2.643715  1808A      2.653880  
    1809A      2.659729  1810A      2.660725  1811A      2.662430  
    1812A      2.666827  1813A      2.672264  1814A      2.686318  
    1815A      2.695848  1816A      2.701604  1817A      2.711117  
    1818A      2.716771  1819A      2.718627  1820A      2.722997  
    1821A      2.724333  1822A      2.726435  1823A      2.728458  
    1824A      2.730199  1825A      2.732844  1826A      2.738199  
    1827A      2.739832  1828A      2.743565  1829A      2.744635  
    1830A      2.750184  1831A      2.750572  1832A      2.758446  
    1833A      2.761670  1834A      2.763670  1835A      2.766377  
    1836A      2.771160  1837A      2.775925  1838A      2.780626  
    1839A      2.784107  1840A      2.790112  1841A      2.793120  
    1842A      2.795845  1843A      2.798532  1844A      2.803336  
    1845A      2.806723  1846A      2.810952  1847A      2.815654  
    1848A      2.817669  1849A      2.818002  1850A      2.823878  
    1851A      2.828649  1852A      2.834170  1853A      2.850682  
    1854A      2.854077  1855A      2.854940  1856A      2.864638  
    1857A      2.865255  1858A      2.870002  1859A      2.874086  
    1860A      2.884243  1861A      2.893324  1862A      2.899224  
    1863A      2.903935  1864A      2.908702  1865A      2.909277  
    1866A      2.916953  1867A      2.929865  1868A      2.933470  
    1869A      2.955664  1870A      2.958632  1871A      2.960346  
    1872A      2.965122  1873A      2.980224  1874A      2.984274  
    1875A      2.986094  1876A      2.988971  1877A      2.990103  
    1878A      2.991831  1879A      2.997492  1880A      3.003963  
    1881A      3.004206  1882A      3.036624  1883A      3.045660  
    1884A      3.049282  1885A      3.049504  1886A      3.055418  
    1887A      3.062653  1888A      3.066957  1889A      3.075588  
    1890A      3.076561  1891A      3.081312  1892A      3.082934  
    1893A      3.083950  1894A      3.088542  1895A      3.093224  
    1896A      3.094018  1897A      3.094835  1898A      3.097761  
    1899A      3.103447  1900A      3.109324  1901A      3.111154  
    1902A      3.118771  1903A      3.123292  1904A      3.129142  
    1905A      3.132690  1906A      3.146358  1907A      3.155327  
    1908A      3.167709  1909A      3.176350  1910A      3.193146  
    1911A      3.196646  1912A      3.197927  1913A      3.200262  
    1914A      3.201169  1915A      3.208450  1916A      3.209913  
    1917A      3.214477  1918A      3.216079  1919A      3.220829  
    1920A      3.233481  1921A      3.235552  1922A      3.252183  
    1923A      3.267017  1924A      3.293221  1925A      3.295277  
    1926A      3.325783  1927A      3.345925  1928A      3.377769  
    1929A      3.389500  1930A      3.396017  1931A      3.400670  
    1932A      3.405965  1933A      3.409345  1934A      3.413943  
    1935A      3.425483  1936A      3.431379  1937A      3.437914  
    1938A      3.448106  1939A      3.457260  1940A      3.473283  
    1941A      3.488894  1942A      3.511011  1943A      3.518340  
    1944A      3.522817  1945A      3.529684  1946A      3.539759  
    1947A      3.580493  1948A      3.610207  1949A      3.618819  
    1950A      3.629789  1951A      3.644841  1952A      3.660693  
    1953A      3.690033  1954A      3.697496  1955A      3.704416  
    1956A      3.710699  1957A      3.734115  1958A      3.745556  
    1959A      3.768295  1960A      3.788761  1961A      3.793009  
    1962A      3.815483  1963A      3.822375  1964A      3.859512  
    1965A      3.861627  1966A      3.877678  1967A      3.880334  
    1968A      3.915589  1969A      3.924524  1970A      3.928577  
    1971A      3.949054  1972A      3.950894  1973A      3.993371  
    1974A      4.017409  1975A      4.081899  1976A      4.341127  
    1977A      4.356536  1978A      4.453742  

    Final Occupation by Irrep:
              A 
    DOCC [   326 ]
    NA   [   326 ]
    NB   [   326 ]

  @DF-RHF Final Energy: -3953.58358287693864

   => Energetics <=

    Nuclear Repulsion Energy =          18612.9960345768340630
    One-Electron Energy =              -42427.7544115110140410
    Two-Electron Energy =               19861.1747940572422522
    Total Energy =                      -3953.5835828769377258

Computation Completed


Properties will be evaluated at   0.000000,   0.000000,   0.000000 [a0]

Properties computed using the SCF density matrix


 Multipole Moments:

 ------------------------------------------------------------------------------------
     Multipole            Electronic (a.u.)      Nuclear  (a.u.)        Total (a.u.)
 ------------------------------------------------------------------------------------

 L = 1.  Multiply by 2.5417464519 to convert [e a0] to [Debye]
 Dipole X            :         -0.0053737            0.0004804           -0.0048933
 Dipole Y            :         -1.6777331            1.8866171            0.2088840
 Dipole Z            :        -14.0303223           16.9484448            2.9181224
 Magnitude           :                                                    2.9255931

 ------------------------------------------------------------------------------------

*** tstop() called on n2cn0859 at Tue Jan 30 19:00:18 2024
Module time:
	user time   =   26827.97 seconds =     447.13 minutes
	system time =    1770.42 seconds =      29.51 minutes
	total time  =       2820 seconds =      47.00 minutes
Total time:
	user time   =   26827.97 seconds =     447.13 minutes
	system time =    1770.42 seconds =      29.51 minutes
	total time  =       2820 seconds =      47.00 minutes

  //>>>>>>>>>>>>>>>>>>>>>>>>>>>>>>>>>>>//
  //            Monomer A HF           //
  //<<<<<<<<<<<<<<<<<<<<<<<<<<<<<<<<<<<//

   => Libint2 <=

    Primary   basis highest AM E, G, H:  5, 4, 3
    Auxiliary basis highest AM E, G, H:  6, 5, 4
    Onebody   basis highest AM E, G, H:  6, 5, 4
    Solid Harmonics ordering:            gaussian

*** tstart() called on n2cn0859
*** at Tue Jan 30 19:00:18 2024

   => Loading Basis Set <=

    Name: JUN-CC-PVDZ
    Role: ORBITAL
    Keyword: BASIS
    atoms 1-2, 4-5, 10, 17-34, 41-53, 56-70, 73-89, 92-104, 109-119, 122-130 entry C          line   164 file /opt/software/pc2/EB-SW/software/PSI4/1.9-foss-2022a/share/psi4/basis/jun-cc-pvdz.gbs 
    atoms 3, 6                                                               entry N          line   198 file /opt/software/pc2/EB-SW/software/PSI4/1.9-foss-2022a/share/psi4/basis/jun-cc-pvdz.gbs 
    atoms 7-9, 11-16, 35-40, 54-55, 71-72, 90-91, 105-108, 120-121, 131-136  entry H          line    36 file /opt/software/pc2/EB-SW/software/PSI4/1.9-foss-2022a/share/psi4/basis/jun-cc-pvdz.gbs 


         ---------------------------------------------------------
                                   SCF
               by Justin Turney, Rob Parrish, Andy Simmonett
                          and Daniel G. A. Smith
                              RHF Reference
                       16 Threads,  76293 MiB Core
         ---------------------------------------------------------

  ==> Geometry <==

    Molecular point group: c1
    Full point group: C1

    Geometry (in Angstrom), charge = 1, multiplicity = 1:

       Center              X                  Y                   Z               Mass       
    ------------   -----------------  -----------------  -----------------  -----------------
         C            0.680062820275    -1.215917226251     2.594560517309    12.000000000000
         C           -0.680508179725    -1.215533226251     2.592532517309    12.000000000000
         N           -1.085639179725     0.102790773749     2.591534517309    14.003074004430
         C            0.000103820275     0.884191773749     2.588258517309    12.000000000000
[...]
    1597A      2.233318  1598A      2.233970  1599A      2.235837  
    1600A      2.236652  1601A      2.240207  1602A      2.242105  
    1603A      2.243452  1604A      2.243780  1605A      2.247370  
    1606A      2.250595  1607A      2.253868  1608A      2.263542  
    1609A      2.264822  1610A      2.267041  1611A      2.270590  
    1612A      2.274053  1613A      2.275060  1614A      2.278802  
    1615A      2.280187  1616A      2.282164  1617A      2.284590  
    1618A      2.285101  1619A      2.286963  1620A      2.289503  
    1621A      2.292370  1622A      2.295117  1623A      2.298887  
    1624A      2.300692  1625A      2.303026  1626A      2.309076  
    1627A      2.314504  1628A      2.318312  1629A      2.321537  
    1630A      2.323462  1631A      2.326296  1632A      2.327051  
    1633A      2.328265  1634A      2.331192  1635A      2.332095  
    1636A      2.332978  1637A      2.334441  1638A      2.337296  
    1639A      2.339353  1640A      2.341641  1641A      2.342221  
    1642A      2.342789  1643A      2.344232  1644A      2.344968  
    1645A      2.345531  1646A      2.348695  1647A      2.351032  
    1648A      2.353733  1649A      2.357291  1650A      2.363893  
    1651A      2.370798  1652A      2.373386  1653A      2.375401  
    1654A      2.381657  1655A      2.384895  1656A      2.388904  
    1657A      2.392758  1658A      2.397348  1659A      2.398684  
    1660A      2.406908  1661A      2.408650  1662A      2.414125  
    1663A      2.420401  1664A      2.421303  1665A      2.424886  
    1666A      2.425610  1667A      2.428520  1668A      2.432197  
    1669A      2.434991  1670A      2.440520  1671A      2.442875  
    1672A      2.446697  1673A      2.451858  1674A      2.452760  
    1675A      2.459604  1676A      2.460951  1677A      2.465370  
    1678A      2.466715  1679A      2.467851  1680A      2.468479  
    1681A      2.471635  1682A      2.472270  1683A      2.477397  
    1684A      2.484064  1685A      2.488872  1686A      2.491316  
    1687A      2.495514  1688A      2.497548  1689A      2.504731  
    1690A      2.506829  1691A      2.510210  1692A      2.513792  
    1693A      2.518233  1694A      2.527108  1695A      2.530980  
    1696A      2.535425  1697A      2.539141  1698A      2.541476  
    1699A      2.542602  1700A      2.545364  1701A      2.546203  
    1702A      2.549882  1703A      2.552744  1704A      2.554771  
    1705A      2.555770  1706A      2.558427  1707A      2.558908  
    1708A      2.562820  1709A      2.565891  1710A      2.569858  
    1711A      2.572265  1712A      2.574401  1713A      2.577365  
    1714A      2.579337  1715A      2.585861  1716A      2.586303  
    1717A      2.587819  1718A      2.588202  1719A      2.590479  
    1720A      2.593746  1721A      2.594610  1722A      2.595585  
    1723A      2.602226  1724A      2.605998  1725A      2.607124  
    1726A      2.614723  1727A      2.616129  1728A      2.617565  
    1729A      2.619259  1730A      2.619459  1731A      2.624479  
    1732A      2.629909  1733A      2.632812  1734A      2.645198  
    1735A      2.645841  1736A      2.648190  1737A      2.649499  
    1738A      2.651257  1739A      2.653663  1740A      2.654885  
    1741A      2.658989  1742A      2.662524  1743A      2.663789  
    1744A      2.666029  1745A      2.668559  1746A      2.670658  
    1747A      2.673052  1748A      2.675805  1749A      2.676070  
    1750A      2.679718  1751A      2.682249  1752A      2.685276  
    1753A      2.686756  1754A      2.687235  1755A      2.692853  
    1756A      2.693204  1757A      2.695079  1758A      2.697066  
    1759A      2.698949  1760A      2.700662  1761A      2.702865  
    1762A      2.707457  1763A      2.713997  1764A      2.720511  
    1765A      2.724082  1766A      2.725338  1767A      2.728765  
    1768A      2.729814  1769A      2.733413  1770A      2.739524  
    1771A      2.740465  1772A      2.752378  1773A      2.760799  
    1774A      2.763283  1775A      2.776271  1776A      2.782528  
    1777A      2.783808  1778A      2.784889  1779A      2.793500  
    1780A      2.798124  1781A      2.800070  1782A      2.801153  
    1783A      2.802929  1784A      2.805807  1785A      2.807691  
    1786A      2.813615  1787A      2.814853  1788A      2.817619  
    1789A      2.818787  1790A      2.823794  1791A      2.826841  
    1792A      2.836712  1793A      2.839848  1794A      2.842811  
    1795A      2.845878  1796A      2.846704  1797A      2.853776  
    1798A      2.856107  1799A      2.858841  1800A      2.865290  
    1801A      2.869673  1802A      2.876470  1803A      2.876791  
    1804A      2.882002  1805A      2.887502  1806A      2.895788  
    1807A      2.897063  1808A      2.905761  1809A      2.910276  
    1810A      2.914659  1811A      2.920274  1812A      2.921448  
    1813A      2.930166  1814A      2.933032  1815A      2.934499  
    1816A      2.936567  1817A      2.945922  1818A      2.949028  
    1819A      2.960413  1820A      2.968138  1821A      2.969329  
    1822A      2.975158  1823A      2.978517  1824A      2.993867  
    1825A      2.997436  1826A      3.000911  1827A      3.010174  
    1828A      3.018694  1829A      3.031887  1830A      3.033853  
    1831A      3.037565  1832A      3.052352  1833A      3.053349  
    1834A      3.056599  1835A      3.059260  1836A      3.060495  
    1837A      3.065423  1838A      3.067119  1839A      3.068647  
    1840A      3.078066  1841A      3.084070  1842A      3.094370  
    1843A      3.105242  1844A      3.113689  1845A      3.118806  
    1846A      3.122566  1847A      3.128940  1848A      3.131445  
    1849A      3.133277  1850A      3.138052  1851A      3.143647  
    1852A      3.148073  1853A      3.150329  1854A      3.152112  
    1855A      3.153434  1856A      3.161023  1857A      3.163409  
    1858A      3.165691  1859A      3.170664  1860A      3.173647  
    1861A      3.175080  1862A      3.181351  1863A      3.187022  
    1864A      3.193630  1865A      3.196385  1866A      3.202103  
    1867A      3.211063  1868A      3.219121  1869A      3.232595  
    1870A      3.244128  1871A      3.261224  1872A      3.264671  
    1873A      3.269499  1874A      3.270906  1875A      3.273492  
    1876A      3.276576  1877A      3.278549  1878A      3.279774  
    1879A      3.287485  1880A      3.292127  1881A      3.300169  
    1882A      3.304612  1883A      3.315509  1884A      3.327595  
    1885A      3.337566  1886A      3.354033  1887A      3.366049  
    1888A      3.372446  1889A      3.396850  1890A      3.399833  
    1891A      3.410535  1892A      3.419197  1893A      3.440414  
    1894A      3.454799  1895A      3.466731  1896A      3.472865  
    1897A      3.476986  1898A      3.481070  1899A      3.484761  
    1900A      3.490789  1901A      3.495384  1902A      3.514002  
    1903A      3.517313  1904A      3.525910  1905A      3.530170  
    1906A      3.540311  1907A      3.555475  1908A      3.564588  
    1909A      3.574531  1910A      3.590713  1911A      3.599354  
    1912A      3.604839  1913A      3.607511  1914A      3.642113  
    1915A      3.675810  1916A      3.683680  1917A      3.697834  
    1918A      3.704636  1919A      3.716350  1920A      3.723934  
    1921A      3.741215  1922A      3.751814  1923A      3.771926  
    1924A      3.775944  1925A      3.778198  1926A      3.782707  
    1927A      3.798032  1928A      3.824221  1929A      3.848673  
    1930A      3.861429  1931A      3.864195  1932A      3.879929  
    1933A      3.892916  1934A      3.909251  1935A      3.930613  
    1936A      3.933299  1937A      3.937952  1938A      3.951686  
    1939A      3.953177  1940A      3.993717  1941A      3.999176  
    1942A      4.014520  1943A      4.025841  1944A      4.028287  
    1945A      4.046401  1946A      4.061154  1947A      4.072061  
    1948A      4.153599  1949A      4.353666  1950A      4.368171  
    1951A      4.429291  1952A      4.446723  1953A      4.551699  
    1954A      4.627190  1955A      4.756125  1956A      4.793042  
    1957A      4.921176  1958A      4.929030  1959A      4.982193  
    1960A      5.032072  1961A      5.056189  1962A      5.113468  
    1963A      5.144626  1964A      5.161324  1965A      5.218251  
    1966A      5.249264  1967A      5.444604  1968A      5.458722  
    1969A      5.807826  1970A      5.822258  1971A      6.093276  
    1972A     18.234512  1973A     18.502565  1974A     18.524121  
    1975A     18.638478  1976A     18.960019  1977A     25.381988  
    1978A     25.420364  

    Final Occupation by Irrep:
              A 
    DOCC [   300 ]
    NA   [   300 ]
    NB   [   300 ]

  @DF-RHF Final Energy: -3650.34339414374017

   => Energetics <=

    Nuclear Repulsion Energy =          15611.4211649754324753
    One-Electron Energy =              -36072.2362722374091391
    Two-Electron Energy =               16810.4717131182369485
    Total Energy =                      -3650.3433941437397152

Computation Completed


Properties will be evaluated at   0.000000,   0.000000,   0.000000 [a0]

Properties computed using the SCF density matrix


 Multipole Moments:

 ------------------------------------------------------------------------------------
     Multipole            Electronic (a.u.)      Nuclear  (a.u.)        Total (a.u.)
 ------------------------------------------------------------------------------------

 L = 1.  Multiply by 2.5417464519 to convert [e a0] to [Debye]
 Dipole X            :          0.0001223            0.0002112            0.0003334
 Dipole Y            :          0.0013198           -0.0044281           -0.0031083
 Dipole Z            :        242.0500601         -242.0495292            0.0005309
 Magnitude           :                                                    0.0031709

 ------------------------------------------------------------------------------------

*** tstop() called on n2cn0859 at Tue Jan 30 19:42:40 2024
Module time:
	user time   =   18379.63 seconds =     306.33 minutes
	system time =    1206.56 seconds =      20.11 minutes
	total time  =       1759 seconds =      29.32 minutes
Total time:
	user time   =   50873.22 seconds =     847.89 minutes
	system time =    3417.88 seconds =      56.96 minutes
	total time  =       5362 seconds =      89.37 minutes
  Constructing Basis Sets for SAPT...

   => Loading Basis Set <=

    Name: (JUN-CC-PVDZ AUX)
    Role: RIFIT
    Keyword: DF_BASIS_SAPT
    atoms 1-2, 4-5, 10, 17-34, 41-53, 56-70, 73-89, 92-104, 109-119, 122-130 entry C          line   100 file /opt/software/pc2/EB-SW/software/PSI4/1.9-foss-2022a/share/psi4/basis/jun-cc-pvdz-ri.gbs 
    atoms 3, 6                                                               entry N          line   144 file /opt/software/pc2/EB-SW/software/PSI4/1.9-foss-2022a/share/psi4/basis/jun-cc-pvdz-ri.gbs 
    atoms 7-9, 11-16, 35-40, 54-55, 71-72, 90-91, 105-108, 120-121, 131-136  entry H          line    30 file /opt/software/pc2/EB-SW/software/PSI4/1.9-foss-2022a/share/psi4/basis/jun-cc-pvdz-ri.gbs 

   => Loading Basis Set <=

    Name: (JUN-CC-PVDZ AUX)
    Role: JKFIT
    Keyword: DF_BASIS_ELST
    atoms 1-2, 4-5, 10, 17-34, 41-53, 56-70, 73-89, 92-104, 109-119, 122-130 entry C          line   146 file /opt/software/pc2/EB-SW/software/PSI4/1.9-foss-2022a/share/psi4/basis/jun-cc-pvdz-jkfit.gbs 
    atoms 3, 6                                                               entry N          line   202 file /opt/software/pc2/EB-SW/software/PSI4/1.9-foss-2022a/share/psi4/basis/jun-cc-pvdz-jkfit.gbs 
    atoms 7-9, 11-16, 35-40, 54-55, 71-72, 90-91, 105-108, 120-121, 131-136  entry H          line    70 file /opt/software/pc2/EB-SW/software/PSI4/1.9-foss-2022a/share/psi4/basis/jun-cc-pvdz-jkfit.gbs 


  //>>>>>>>>>>>>>>>>>>>>>>>>>>>>>>>>>>>//
  //               SSAPT0              //
  //<<<<<<<<<<<<<<<<<<<<<<<<<<<<<<<<<<<//


*** tstart() called on n2cn0859
*** at Tue Jan 30 19:42:41 2024

        SAPT0  
    Ed Hohenstein
     6 June 2009

      Orbital Information
  --------------------------
    NSO        =      2019
    NMO        =      1978
    NRI        =      7157
    NRI (Elst) =      8896
    NOCC A     =        26
    NOCC B     =       300
    FOCC A     =         7
    FOCC B     =        96
    NVIR A     =      1952
    NVIR B     =      1678

    Elst10,r            =    -0.068626143463 [Eh]
    Exch10              =     0.166045107646 [Eh]
    Exch10 (S^2)        =     0.163067170662 [Eh]

    Iter     Energy [mEh]          dE [mEh]         Residual      Time [s]
       1     -23.77991301      23.779913013      25.410400868            74
       2     -30.07258854       6.292675525       6.964275743           143
       3     -30.46639305       0.393804508       1.801924496           210
       4     -30.39362596      -0.072767089       0.735534528           277
       5     -30.36571855      -0.027907403       0.136830227           344
       6     -30.36889993       0.003181375       0.064751870           416
       7     -30.37084627       0.001946338       0.019946984           484
       8     -30.37023910      -0.000607171       0.006899575           551
       9     -30.37024054       0.000001442       0.002689780           615
      10     -30.37029007       0.000049533       0.000775021           684
      11     -30.37028698      -0.000003091       0.000220215           749
      12     -30.37028442      -0.000002562       0.000079856           812
      13     -30.37028434      -0.000000082       0.000021752           884
      14     -30.37028463       0.000000290       0.000007853           973
      15     -30.37028465       0.000000018       0.000002673          1039
      16     -30.37028461      -0.000000039       0.000000901          1106

    CHF Iterations converged


    Iter     Energy [mEh]          dE [mEh]         Residual      Time [s]
       1     -63.32414701      63.324147008     103.559002879           145
       2     -53.99887555      -9.325271454      20.383778381           247
       3     -58.00961397       4.010738416       9.754325610           340
       4     -59.69414103       1.684527058       2.014897019           434
       5     -59.71191288       0.017771854       0.926184179           527
       6     -59.62971808      -0.082194804       0.446846936           618
       7     -59.61559899      -0.014119087       0.240244817           714
       8     -59.63290403       0.017305039       0.125585406           807
       9     -59.63603352       0.003129491       0.077941024           902
      10     -59.63199035      -0.004043171       0.053876191           994
      11     -59.63125943      -0.000730918       0.030408563          1087
      12     -59.63226753       0.001008102       0.016559689          1179
      13     -59.63271400       0.000446461       0.008482318          1277
      14     -59.63248944      -0.000224559       0.005411377          1370
      15     -59.63238351      -0.000105924       0.003187218          1458
      16     -59.63241169       0.000028182       0.001565952          1551
      17     -59.63246490       0.000053211       0.000714153          1641
      18     -59.63245336      -0.000011541       0.000423517          1732
      19     -59.63244111      -0.000012250       0.000204589          1829
      20     -59.63244234       0.000001229       0.000114158          1928
      21     -59.63244583       0.000003484       0.000053890          2021
      22     -59.63244591       0.000000082       0.000026723          2112
      23     -59.63244518      -0.000000725       0.000013241          2211
      24     -59.63244509      -0.000000095       0.000007361          2314
      25     -59.63244523       0.000000139       0.000004062          2414
      26     -59.63244528       0.000000055       0.000001869          2514
      27     -59.63244526      -0.000000026       0.000000856          2613

    CHF Iterations converged

    Ind20,r (A<-B)      =    -0.030370284606 [Eh]
    Ind20,r (B<-A)      =    -0.059632445258 [Eh]
    Ind20,r             =    -0.090002729864 [Eh]
    Exch-Ind20,r (A<-B) =     0.028506831548 [Eh]
    Exch-Ind20,r (B<-A) =     0.035202272182 [Eh]
    Exch-Ind20,r        =     0.063709103731 [Eh]
    Disp20              =    -0.098779527968 [Eh]
    Disp20 (SS)         =    -0.049389763984 [Eh]
    Disp20 (OS)         =    -0.049389763984 [Eh]
    Exch-Disp20         =     0.014449089190 [Eh]
    Exch-Disp20 (SS)    =     0.008625016520 [Eh]
    Exch-Disp20 (OS)    =     0.005824072670 [Eh]

    SAPT Results 
  --------------------------------------------------------------------------------------------------------
    Electrostatics                -68.62614346 [mEh]     -43.06355517 [kcal/mol]    -180.17791484 [kJ/mol]
      Elst10,r                    -68.62614346 [mEh]     -43.06355517 [kcal/mol]    -180.17791484 [kJ/mol]

    Exchange                      166.04510765 [mEh]     104.19487812 [kcal/mol]     435.95137006 [kJ/mol]
      Exch10                      166.04510765 [mEh]     104.19487812 [kcal/mol]     435.95137006 [kJ/mol]
      Exch10(S^2)                 163.06717066 [mEh]     102.32619445 [kcal/mol]     428.13279759 [kJ/mol]

    Induction                     -37.31233842 [mEh]     -23.41384585 [kcal/mol]     -97.96353102 [kJ/mol]
      Ind20,r                     -90.00272986 [mEh]     -56.47756566 [kcal/mol]    -236.30213470 [kJ/mol]
      Exch-Ind20,r                 63.70910373 [mEh]      39.97806616 [kcal/mol]     167.26822880 [kJ/mol]
      delta HF,r (2)              -11.01871229 [mEh]      -6.91434635 [kcal/mol]     -28.92962512 [kJ/mol]

    Dispersion                    -84.33043878 [mEh]     -52.91814926 [kcal/mol]    -221.40953651 [kJ/mol]
      Disp20                      -98.77952797 [mEh]     -61.98508962 [kcal/mol]    -259.34561495 [kJ/mol]
      Exch-Disp20                  14.44908919 [mEh]       9.06694035 [kcal/mol]      37.93607844 [kJ/mol]
      Disp20 (SS)                 -49.38976398 [mEh]     -30.99254481 [kcal/mol]    -129.67280747 [kJ/mol]
      Disp20 (OS)                 -49.38976398 [mEh]     -30.99254481 [kcal/mol]    -129.67280747 [kJ/mol]
      Exch-Disp20 (SS)              8.62501652 [mEh]       5.41227958 [kcal/mol]      22.64497775 [kJ/mol]
      Exch-Disp20 (OS)              5.82407267 [mEh]       3.65466078 [kcal/mol]      15.29110069 [kJ/mol]

  Total HF                         60.10662576 [mEh]      37.71747710 [kcal/mol]     157.80992420 [kJ/mol]
  Total SAPT0                     -24.22381301 [mEh]     -15.20067216 [kcal/mol]     -63.59961231 [kJ/mol]

  Special recipe for scaled SAPT0 (see Manual):
    Electrostatics sSAPT0         -68.62614346 [mEh]     -43.06355517 [kcal/mol]    -180.17791484 [kJ/mol]
    Exchange sSAPT0               166.04510765 [mEh]     104.19487812 [kcal/mol]     435.95137006 [kJ/mol]
    Induction sSAPT0              -33.75783713 [mEh]     -21.18336261 [kcal/mol]     -88.63118916 [kJ/mol]
    Dispersion sSAPT0             -83.52428545 [mEh]     -52.41228041 [kcal/mol]    -219.29298123 [kJ/mol]
  Total sSAPT0                    -19.86315839 [mEh]     -12.46432007 [kcal/mol]     -52.15071517 [kJ/mol]
  --------------------------------------------------------------------------------------------------------

*** tstop() called on n2cn0859 at Tue Jan 30 22:40:02 2024
Module time:
	user time   =   74742.92 seconds =    1245.72 minutes
	system time =    3682.32 seconds =      61.37 minutes
	total time  =      10641 seconds =     177.35 minutes
Total time:
	user time   =  125617.57 seconds =    2093.63 minutes
	system time =    7100.20 seconds =     118.34 minutes
	total time  =      16004 seconds =     266.73 minutes

    Psi4 stopped on: Tuesday, 30 January 2024 10:40PM
    Psi4 wall time for execution: 4:26:44.94

*** Psi4 exiting successfully. Buy a developer a beer!
