
    -----------------------------------------------------------------------
          Psi4: An Open-Source Ab Initio Electronic Structure Package
                               Psi4 1.9 release

                         Git: Rev {} zzzzzzz 


    D. G. A. Smith, L. A. Burns, A. C. Simmonett, R. M. Parrish,
    M. C. Schieber, R. Galvelis, P. Kraus, H. Kruse, R. Di Remigio,
    A. Alenaizan, A. M. James, S. Lehtola, J. P. Misiewicz, M. Scheurer,
    R. A. Shaw, J. B. Schriber, Y. Xie, Z. L. Glick, D. A. Sirianni,
    J. S. O'Brien, J. M. Waldrop, A. Kumar, E. G. Hohenstein,
    B. P. Pritchard, B. R. Brooks, H. F. Schaefer III, A. Yu. Sokolov,
    K. Patkowski, A. E. DePrince III, U. Bozkaya, R. A. King,
    F. A. Evangelista, J. M. Turney, T. D. Crawford, C. D. Sherrill,
    J. Chem. Phys. 152(18) 184108 (2020). https://doi.org/10.1063/5.0006002

                            Additional Code Authors
    E. T. Seidl, C. L. Janssen, E. F. Valeev, M. L. Leininger,
    J. F. Gonthier, R. M. Richard, H. R. McAlexander, M. Saitow, X. Wang,
    P. Verma, M. H. Lechner, A. Jiang, S. Behnle, A. G. Heide,
    M. F. Herbst, and D. L. Poole

             Previous Authors, Complete List of Code Contributors,
                       and Citations for Specific Modules
    https://github.com/psi4/psi4/blob/master/codemeta.json
    https://github.com/psi4/psi4/graphs/contributors
    http://psicode.org/psi4manual/master/introduction.html#citing-psifour

    -----------------------------------------------------------------------


    Psi4 started on: Wednesday, 24 January 2024 10:37PM

    Process ID: 4147860
    Host:       n2cn0787
    PSIDATADIR: /opt/software/pc2/EB-SW/software/PSI4/1.9-foss-2022a/share/psi4
    Memory:     500.0 MiB
    Threads:    16
    
  ==> Input File <==

--------------------------------------------------------------------------
memory 47 GB # how much memory is available ! Depends on the nodes/cores !

molecule dimer {
# monomer A
-1 1    # Charge and multiplicity
B -1.977592e-04  2.742729e-04 -2.199966
F  1.123153e-16  1.430594e-17 -0.787181
F  1.147860e+00  6.757812e-01 -2.671107
F  1.191806e-02 -1.332011e+00 -2.670905
F -1.159666e+00  6.560735e-01 -2.670826
--
# monomer B
0 1     # Charge and multiplicity
C   -3.66844126402057      7.80375217008252      0.00190004133558
C   -4.84759871934653      7.13124183134024     -0.00046653359696
C   -4.89495929917518      5.69633040353158     -0.00103944469517
C   -3.65374067877320      4.98073034095895      0.00662099703436
C   -2.40942512149445      7.11398103667468      0.00209438359570
C   -2.42547734410473      5.68112195090346     -0.00491050527438
C   -1.19474401643570      7.78614419430947      0.00356656413763
C   0.03795902893699      7.09942164575698      0.00139585983271
C   0.03033258741920      5.66948955970466     -0.00408752508301
C   -1.20098450790502      4.96927034791531      0.00488220885047
C   1.27795782581485      7.77285944319479      0.00277170839332
C   2.48535808472416      7.08769688523756      0.00049722048857
C   2.48612868491717      5.65477081024076     -0.00644052849921
C   1.25408291964399      4.95607811366431      0.00518741308898
C   3.75171459140595      7.76391215098033      0.00062407186893
C   4.92356605618520      7.07878077698995     -0.00143240883900
C   4.95560727132542      5.64344746336949     -0.00159282164606
C   3.70680153420475      4.94121020833308      0.00349873852374
H   -3.65852113775815      8.89082741913536      0.00358502958574
H   -1.18921332975660      8.87412108735996      0.00753844057883
H   1.28429423888630      8.86083343548850      0.00693053253426
H   3.75354208679975      8.85103527897216      0.00214659618464
H   5.86995870320703      7.61379483465560     -0.00235777588134
H   -5.78823170750226      7.67630221293400     -0.00202638095293
C   -6.09197395869619      4.99326001364347     -0.00291168518608
C   -6.12866148031747      3.58258016879823     -0.00171050815740
C   -3.66457974004527      3.56418217974434     -0.00463560277484
C   -4.89429820469869      2.86108077590057      0.00453338221034
C   -2.43733499489796      2.84761165708481      0.00719617576166
C   -1.20922785759670      3.54788693497833     -0.00648285103018
C   1.24714157216223      3.53468075142962     -0.00729145743546
C   0.01517603956900      2.83311183930540      0.00439272578912
C   2.46764517244071      2.82128997725533      0.00449278391269
C   3.70254947457969      3.52466015442405     -0.00899517692985
C   6.14498038638375      4.92757236613191     -0.00282626685777
C   6.16658835886151      3.51658447594213     -0.00065971342101
C   4.92460995845939      2.80840792535402      0.00587903281610
H   7.08990550964105      5.46688776622306     -0.00658814770723
H   -7.03104175110130      5.54268795285765     -0.00714490013730
C   -7.33969804112295      2.85841153457957     -0.00333767559888
C   -7.36488195805880      1.47032337158330     -0.00157213747140
C   -4.90350460894690      1.44442681216000     -0.00628840166334
C   -6.13225715261081      0.73993935705394      0.00600164231964
C   -3.67687480051673      0.72669714267312      0.00433931473643
C   -2.44565658606518      1.42964113326212     -0.00597039546461
C   -1.22360068130162      0.71532450163492      0.00545886906656
C   0.00763786931376      1.41738314923765      0.00392452278437
C   1.23121980774686      0.70211669058719     -0.01490206287210
C   2.46082110053113      1.40329203612573      0.00460244601878
C   3.68443025419614      0.68719842821222      0.00377365974158
C   4.91870890153864      1.39173456118907     -0.00862816189375
C   7.36980207796101      2.77948220318441     -0.00242013321349
C   7.38016266612146      1.39121750785509     -0.00087345036788
C   6.13979953912259      0.67411862320065      0.00545489144369
H   -8.27919079934664      3.40711804112415     -0.00763522772059
H   8.31511347147953      3.31811809662368     -0.00663070901292
C   -8.59175593758115      0.72483255304480     -0.00123170985383
C   -8.59902460370342     -0.63263980622873      0.00089141472904
C   -6.13981313911873     -0.67413663715361     -0.00609792660607
C   -7.38018411213749     -1.39126618958160      0.00131813493501
C   -4.91868448025621     -1.39175501803000      0.00624257154343
C   -3.68443829568458     -0.68723731573599     -0.00478966852105
C   -2.46081704024768     -1.40334517882457      0.00575341766833
C   -1.23116201232071     -0.70217386488055     -0.00636696112346
C   -0.00756962538737     -1.41741884941102      0.00108956317991
C   1.22364771588843     -0.71527537726392      0.01109518512883
C   2.44567064933149     -1.42964328900682     -0.00065482763106
C   3.67686670284649     -0.72670743155550     -0.00479541202602
C   6.13224884641929     -0.73997883984993     -0.00632338623858
C   4.90351914550401     -1.44445752054090      0.00751768830159
C   8.59901484869081      0.63260386666793     -0.00101133422380
C   8.59174548810050     -0.72485086719319      0.00072504603735
C   7.36486276438985     -1.47033266560598      0.00049486934466
H   -9.52830597181814      1.27684744919284     -0.00270163681798
H   9.54141097460619      1.17457248844457     -0.00206336648518
C   -7.36983790976868     -2.77954514593389      0.00312634335708
C   -4.92459910905015     -2.80843725734101     -0.00460528907921
C   -6.16662249566744     -3.51665219282533      0.00169655107992
C   -3.70251035970491     -3.52468154912026      0.00571878010666
C   -2.46764698511392     -2.82132596280400     -0.00632585824990
C   -0.01513347410770     -2.83314164539971     -0.00604426974092
C   -1.24712184122656     -3.53473217556300      0.00551968366725
C   1.20924506964357     -3.54791467864352      0.00805871345849
C   2.43733602215464     -2.84764173817541     -0.00608104485234
C   4.89430234377080     -2.86112296828604     -0.00526030478103
C   3.66461525504104     -3.56421984553201      0.00761911515957
C   6.12863901474565     -3.58258405771778      0.00096495711699
C   7.33967266469532     -2.85841330737039      0.00248018319869
H   -9.54144911125902     -1.17456346666430      0.00226083090216
H   9.52826186807155     -1.27691907390448      0.00197485379837
H   -8.31516504384864     -3.31814985321231      0.00729857188773
H   8.27915514249207     -3.40714078989363      0.00681973918158
C   -6.14499418870218     -4.92764727278338      0.00302254913999
C   -3.70678334799751     -4.94126171411716     -0.00679841894792
C   -4.95559005800169     -5.64349397349412      0.00116871569699
C   -2.48612132622665     -5.65478557440947      0.00614125209662
C   -1.25405833548005     -4.95612205000132     -0.00503435388927
C   1.20101257386816     -4.96928038819302     -0.00385322963129
C   -0.03033667441341     -5.66952030313900      0.00398997003238
C   3.65375010132847     -4.98074377541453     -0.00309522988330
C   2.42549269587528     -5.68117463552727      0.00628170066869
C   6.09196561781097     -4.99325796338655      0.00325918379042
C   4.89497644461045     -5.69634842095790      0.00202298796027
H   -7.08989238804069     -5.46699984223871      0.00742531082125
H   7.03105520920009     -5.54265853633254      0.00683896355417
C   -4.92354532219813     -7.07882109967734      0.00061394679214
C   -2.48534208823777     -7.08772807792913     -0.00189594564379
C   -3.75168589177895     -7.76394715763627     -0.00170126671874
C   -0.03794895698805     -7.09946487446944     -0.00168022049625
C   -1.27795610040136     -7.77290438466689     -0.00366491325785
C   2.40944432072629     -7.11402201200282     -0.00081701968533
C   1.19474993715296     -7.78618536556242     -0.00296931056689
C   4.84762105249800     -7.13126211057943      0.00168979497423
C   3.66847160587561     -7.80378799294376     -0.00065863938960
H   -5.86994035041618     -7.61383059804164      0.00215798365757
H   5.78824962538815     -7.67633218931421      0.00281691445618
H   -3.75352693944918     -8.85107156923607     -0.00353718114765
H   -1.28430440589466     -8.86087539249706     -0.00809229711623
H   1.18922157469537     -8.87416062058945     -0.00706194725726
H   3.65854661482387     -8.89086063405326     -0.00231318081200

    units angstrom      # Angstroms are the default
    no_reorient         # Geometry fixed, default
    symmetry c1         # C1 symmetry, default
}

set {
    scf_type DF         # Density fitting, faster than exact integrals
    freeze_core True    # Freeze core electrons
    basis jun-cc-pVDZ   # Jun-cc-pVDZ basis set, recommended for sSAPT0 in https://doi.org/10.1063/1.4867135
}

energy('ssapt0')        # Compute sSAPT0 energy, includes also SAPT0
--------------------------------------------------------------------------

  Memory set to  43.772 GiB by Python driver.

Scratch directory: /tmp/
   => Loading Basis Set <=

    Name: JUN-CC-PVDZ
    Role: ORBITAL
    Keyword: BASIS
    atoms 1                                                   entry B          line   130 file /opt/software/pc2/EB-SW/software/PSI4/1.9-foss-2022a/share/psi4/basis/jun-cc-pvdz.gbs 
    atoms 2-5                                                 entry F          line   266 file /opt/software/pc2/EB-SW/software/PSI4/1.9-foss-2022a/share/psi4/basis/jun-cc-pvdz.gbs 
    atoms 6-23, 30-42, 45-59, 62-78, 81-93, 98-108, 111-119   entry C          line   164 file /opt/software/pc2/EB-SW/software/PSI4/1.9-foss-2022a/share/psi4/basis/jun-cc-pvdz.gbs 
    atoms 24-29, 43-44, 60-61, 79-80, 94-97, 109-110, 120-125 entry H          line    36 file /opt/software/pc2/EB-SW/software/PSI4/1.9-foss-2022a/share/psi4/basis/jun-cc-pvdz.gbs 

   => Loading Basis Set <=

    Name: JUN-CC-PVDZ
    Role: ORBITAL
    Keyword: BASIS
    atoms 1                                                   entry B          line   130 file /opt/software/pc2/EB-SW/software/PSI4/1.9-foss-2022a/share/psi4/basis/jun-cc-pvdz.gbs 
    atoms 2-5                                                 entry F          line   266 file /opt/software/pc2/EB-SW/software/PSI4/1.9-foss-2022a/share/psi4/basis/jun-cc-pvdz.gbs 
    atoms 6-23, 30-42, 45-59, 62-78, 81-93, 98-108, 111-119   entry C          line   164 file /opt/software/pc2/EB-SW/software/PSI4/1.9-foss-2022a/share/psi4/basis/jun-cc-pvdz.gbs 
    atoms 24-29, 43-44, 60-61, 79-80, 94-97, 109-110, 120-125 entry H          line    36 file /opt/software/pc2/EB-SW/software/PSI4/1.9-foss-2022a/share/psi4/basis/jun-cc-pvdz.gbs 


  //>>>>>>>>>>>>>>>>>>>>>>>>>>>>>>>>>>>//
  //              Dimer HF             //
  //<<<<<<<<<<<<<<<<<<<<<<<<<<<<<<<<<<<//

   => Libint2 <=

    Primary   basis highest AM E, G, H:  5, 4, 3
    Auxiliary basis highest AM E, G, H:  6, 5, 4
    Onebody   basis highest AM E, G, H:  6, 5, 4
    Solid Harmonics ordering:            gaussian

*** tstart() called on n2cn0787
*** at Wed Jan 24 22:37:15 2024

   => Loading Basis Set <=

    Name: JUN-CC-PVDZ
    Role: ORBITAL
    Keyword: BASIS
    atoms 1                                                   entry B          line   130 file /opt/software/pc2/EB-SW/software/PSI4/1.9-foss-2022a/share/psi4/basis/jun-cc-pvdz.gbs 
    atoms 2-5                                                 entry F          line   266 file /opt/software/pc2/EB-SW/software/PSI4/1.9-foss-2022a/share/psi4/basis/jun-cc-pvdz.gbs 
    atoms 6-23, 30-42, 45-59, 62-78, 81-93, 98-108, 111-119   entry C          line   164 file /opt/software/pc2/EB-SW/software/PSI4/1.9-foss-2022a/share/psi4/basis/jun-cc-pvdz.gbs 
    atoms 24-29, 43-44, 60-61, 79-80, 94-97, 109-110, 120-125 entry H          line    36 file /opt/software/pc2/EB-SW/software/PSI4/1.9-foss-2022a/share/psi4/basis/jun-cc-pvdz.gbs 


         ---------------------------------------------------------
                                   SCF
               by Justin Turney, Rob Parrish, Andy Simmonett
                          and Daniel G. A. Smith
                              RHF Reference
                       16 Threads,  44822 MiB Core
         ---------------------------------------------------------

  ==> Geometry <==

    Molecular point group: c1
    Full point group: C1

    Geometry (in Angstrom), charge = -1, multiplicity = 1:

       Center              X                  Y                   Z               Mass       
    ------------   -----------------  -----------------  -----------------  -----------------
         B           -0.000201921932     0.000288800891    -2.048442989724    11.009305360000
         F           -0.000004162732     0.000014527991    -0.635657989724    18.998403162730
         F            1.147855837268     0.675795727991    -2.519583989724    18.998403162730
         F            0.011913897268    -1.331996472009    -2.519381989724    18.998403162730
         F           -1.159670162732     0.656088027991    -2.519302989724    18.998403162730
         C           -3.668445426752     7.803766698073     0.153423051612    12.000000000000
         C           -4.847602882078     7.131256359331     0.151056476679    12.000000000000
         C           -4.894963461907     5.696344931522     0.150483565581    12.000000000000
         C           -3.653744841505     4.980744868950     0.158144007311    12.000000000000
         C           -2.409429284226     7.113995564665     0.153617393872    12.000000000000
         C           -2.425481506836     5.681136478894     0.146612505002    12.000000000000
         C           -1.194748179167     7.786158722300     0.155089574414    12.000000000000
         C            0.037954866205     7.099436173748     0.152918870109    12.000000000000
         C            0.030328424687     5.669504087695     0.147435485193    12.000000000000
         C           -1.200988670637     4.969284875906     0.156405219127    12.000000000000
         C            1.277953663083     7.772873971185     0.154294718670    12.000000000000
         C            2.485353921992     7.087711413228     0.152020230765    12.000000000000
         C            2.486124522185     5.654785338231     0.145082481777    12.000000000000
         C            1.254078756912     4.956092641655     0.156710423365    12.000000000000
         C            3.751710428674     7.763926678971     0.152147082145    12.000000000000
         C            4.923561893453     7.078795304981     0.150090601437    12.000000000000
         C            4.955603108594     5.643461991360     0.149930188630    12.000000000000
         C            3.706797371473     4.941224736324     0.155021748800    12.000000000000
         H           -3.658525300490     8.890841947126     0.155108039862     1.007825032230
         H           -1.189217492488     8.874135615351     0.159061450855     1.007825032230
         H            1.284290076155     8.860847963479     0.158453542811     1.007825032230
         H            3.753537924068     8.851049806963     0.153669606461     1.007825032230
         H            5.869954540475     7.613809362646     0.149165234395     1.007825032230
         H           -5.788235870234     7.676316740925     0.149496629323     1.007825032230
         C           -6.091978121428     4.993274541634     0.148611325090    12.000000000000
         C           -6.128665643049     3.582594696789     0.149812502119    12.000000000000
         C           -3.664583902777     3.564196707735     0.146887407502    12.000000000000
         C           -4.894302367430     2.861095303891     0.156056392487    12.000000000000
         C           -2.437339157630     2.847626185075     0.158719186038    12.000000000000
         C           -1.209232020328     3.547901462969     0.145040159246    12.000000000000
         C            1.247137409430     3.534695279420     0.144231552841    12.000000000000
         C            0.015171876837     2.833126367296     0.155915736065    12.000000000000
         C            2.467641009709     2.821304505246     0.156015794189    12.000000000000
         C            3.702545311848     3.524674682415     0.142527833347    12.000000000000
         C            6.144976223652     4.927586894122     0.148696743419    12.000000000000
         C            6.166584196130     3.516599003933     0.150863296855    12.000000000000
         C            4.924605795728     2.808422453345     0.157402043092    12.000000000000
         H            7.089901346909     5.466902294214     0.144934862569     1.007825032230
         H           -7.031045913833     5.542702480848     0.144378110139     1.007825032230
         C           -7.339702203855     2.858426062570     0.148185334677    12.000000000000
         C           -7.364886120791     1.470337899574     0.149950872805    12.000000000000
         C           -4.903508771679     1.444441340151     0.145234608613    12.000000000000
         C           -6.132261315343     0.739953885044     0.157524652596    12.000000000000
         C           -3.676878963248     0.726711670664     0.155862325013    12.000000000000
         C           -2.445660748797     1.429655661253     0.145552614812    12.000000000000
         C           -1.223604844033     0.715339029625     0.156981879343    12.000000000000
         C            0.007633706582     1.417397677228     0.155447533061    12.000000000000
         C            1.231215645015     0.702131218578     0.136620947404    12.000000000000
         C            2.460816937799     1.403306564116     0.156125456295    12.000000000000
         C            3.684426091464     0.687212956203     0.155296670018    12.000000000000
         C            4.918704738807     1.391749089180     0.142894848383    12.000000000000
         C            7.369797915229     2.779496731175     0.149102877063    12.000000000000
         C            7.380158503390     1.391232035846     0.150649559908    12.000000000000
         C            6.139795376391     0.674133151191     0.156977901720    12.000000000000
         H           -8.279194962078     3.407132569115     0.143887782556     1.007825032230
         H            8.315109308748     3.318132624614     0.144892301263     1.007825032230
         C           -8.591760100313     0.724847081035     0.150291300423    12.000000000000
         C           -8.599028766435    -0.632625278238     0.152414425005    12.000000000000
         C           -6.139817301850    -0.674122109163     0.145425083670    12.000000000000
         C           -7.380188274869    -1.391251661591     0.152841145211    12.000000000000
         C           -4.918688642988    -1.391740490039     0.157765581820    12.000000000000
         C           -3.684442458416    -0.687222787745     0.146733341755    12.000000000000
         C           -2.460821202979    -1.403330650834     0.157276427945    12.000000000000
         C           -1.231166175052    -0.702159336890     0.145156049153    12.000000000000
         C           -0.007573788119    -1.417404321420     0.152612573456    12.000000000000
         C            1.223643553157    -0.715260849273     0.162618195405    12.000000000000
         C            2.445666486600    -1.429628761016     0.150868182645    12.000000000000
         C            3.676862540115    -0.726692903565     0.146727598250    12.000000000000
         C            6.132244683688    -0.739964311859     0.145199624038    12.000000000000
         C            4.903514982772    -1.444442992550     0.159040698578    12.000000000000
         C            8.599010685959     0.632618394658     0.150511676053    12.000000000000
         C            8.591741325369    -0.724836339203     0.152248056314    12.000000000000
         C            7.364858601658    -1.470318137615     0.152017879621    12.000000000000
         H           -9.528310134550     1.276861977183     0.148821373458     1.007825032230
         H            9.541406811874     1.174587016435     0.149459643791     1.007825032230
         C           -7.369842072500    -2.779530617943     0.154649353633    12.000000000000
         C           -4.924603271782    -2.808422729350     0.146917721197    12.000000000000
         C           -6.166626658399    -3.516637664835     0.153219561356    12.000000000000
         C           -3.702514522437    -3.524667021130     0.157241790383    12.000000000000
         C           -2.467651147846    -2.821311434813     0.145197152026    12.000000000000
         C           -0.015137636839    -2.833127117409     0.145478740535    12.000000000000
         C           -1.247126003958    -3.534717647572     0.157042693944    12.000000000000
         C            1.209240906912    -3.547900150653     0.159581723735    12.000000000000
         C            2.437331859423    -2.847627210185     0.145441965424    12.000000000000
         C            4.894298181039    -2.861108440295     0.146262705495    12.000000000000
         C            3.664611092309    -3.564205317541     0.159142125436    12.000000000000
         C            6.128634852014    -3.582569529727     0.152487967393    12.000000000000
         C            7.339668501964    -2.858398779380     0.154003193475    12.000000000000
         H           -9.541453273991    -1.174548938674     0.153783841179     1.007825032230
         H            9.528257705340    -1.276904545914     0.153497864075     1.007825032230
         H           -8.315169206580    -3.318135325222     0.158821582164     1.007825032230
         H            8.279150979760    -3.407126261903     0.158342749458     1.007825032230
         C           -6.144998351434    -4.927632744793     0.154545559416    12.000000000000
         C           -3.706787510729    -4.941247186127     0.144724591328    12.000000000000
         C           -4.955594220733    -5.643479445504     0.152691725973    12.000000000000
         C           -2.486125488958    -5.654771046419     0.157664262373    12.000000000000
         C           -1.254062498212    -4.956107522011     0.146488656387    12.000000000000
         C            1.201008411136    -4.969265860202     0.147669780645    12.000000000000
         C           -0.030340837145    -5.669505775148     0.155512980309    12.000000000000
         C            3.653745938597    -4.980729247424     0.148427780393    12.000000000000
         C            2.425488533144    -5.681160107537     0.157804710945    12.000000000000
         C            6.091961455079    -4.993243435396     0.154782194067    12.000000000000
         C            4.894972281879    -5.696333892967     0.153545998237    12.000000000000
         H           -7.089896550772    -5.466985314248     0.158948321098     1.007825032230
         H            7.031051046468    -5.542644008342     0.158361973831     1.007825032230
         C           -4.923549484930    -7.078806571687     0.152136957069    12.000000000000
         C           -2.485346250970    -7.087713549939     0.149627064633    12.000000000000
         C           -3.751690054511    -7.763932629646     0.149821743558    12.000000000000
         C           -0.037953119720    -7.099450346479     0.149842789780    12.000000000000
         C           -1.277960263133    -7.772889856676     0.147858097019    12.000000000000
         C            2.409440157995    -7.114007484012     0.150705990591    12.000000000000
         C            1.194745774421    -7.786170837572     0.148553699709    12.000000000000
         C            4.847616889766    -7.131247582589     0.153212805251    12.000000000000
         C            3.668467443144    -7.803773464953     0.150864370887    12.000000000000
         H           -5.869944513148    -7.613816070051     0.153680993934     1.007825032230
         H            5.788245462656    -7.676317661324     0.154339924733     1.007825032230
         H           -3.753531102181    -8.851057041246     0.147985829129     1.007825032230
         H           -1.284308568626    -8.860860864507     0.143430713160     1.007825032230
         H            1.189217411964    -8.874146092599     0.144461063019     1.007825032230
         H            3.658542452092    -8.890846106063     0.149209829464     1.007825032230

  Running in c1 symmetry.

  Rotational constants: A =      0.00069  B =      0.00069  C =      0.00035 [cm^-1]
  Rotational constants: A =     20.72118  B =     20.71754  C =     10.55117 [MHz]
  Nuclear repulsion = 18034.362680943315354

  Charge       = -1
  Multiplicity = 1
  Electrons    = 642
  Nalpha       = 321
  Nbeta        = 321

  ==> Algorithm <==

  SCF Algorithm Type is DF.
  DIIS enabled.
  MOM disabled.
  Fractional occupation disabled.
  Guess Type is SAD.
  Energy threshold   = 1.00e-08
  Density threshold  = 1.00e-08
  Integral threshold = 1.00e-12

  ==> Primary Basis <==

  Basis Set: JUN-CC-PVDZ
    Blend: JUN-CC-PVDZ
    Number of shells: 880
    Number of basis functions: 1938
    Number of Cartesian functions: 2039
    Spherical Harmonics?: true
    Max angular momentum: 2

   => Loading Basis Set <=

    Name: (JUN-CC-PVDZ AUX)
    Role: JKFIT
    Keyword: DF_BASIS_SCF
    atoms 1                                                   entry B          line    90 file /opt/software/pc2/EB-SW/software/PSI4/1.9-foss-2022a/share/psi4/basis/jun-cc-pvdz-jkfit.gbs 
    atoms 2-5                                                 entry F          line   314 file /opt/software/pc2/EB-SW/software/PSI4/1.9-foss-2022a/share/psi4/basis/jun-cc-pvdz-jkfit.gbs 
    atoms 6-23, 30-42, 45-59, 62-78, 81-93, 98-108, 111-119   entry C          line   146 file /opt/software/pc2/EB-SW/software/PSI4/1.9-foss-2022a/share/psi4/basis/jun-cc-pvdz-jkfit.gbs 
    atoms 24-29, 43-44, 60-61, 79-80, 94-97, 109-110, 120-125 entry H          line    70 file /opt/software/pc2/EB-SW/software/PSI4/1.9-foss-2022a/share/psi4/basis/jun-cc-pvdz-jkfit.gbs 

  ==> Integral Setup <==

  ==> DiskDFJK: Density-Fitted J/K Matrices <==

    J tasked:                  Yes
    K tasked:                  Yes
    wK tasked:                  No
    OpenMP threads:             16
    Integrals threads:          16
    Memory [MiB]:            33617
    Algorithm:                Disk
    Integral Cache:           SAVE
    Schwarz Cutoff:          1E-12
    Fitting Condition:       1E-10

   => Auxiliary Basis Set <=

  Basis Set: (JUN-CC-PVDZ AUX)
    Blend: JUN-CC-PVDZ-JKFIT
    Number of shells: 2943
    Number of basis functions: 8531
    Number of Cartesian functions: 9791
    Spherical Harmonics?: true
    Max angular momentum: 3

  Minimum eigenvalue in the overlap matrix is 6.2616790136E-11.
  Reciprocal condition number of the overlap matrix is 2.4605458819E-12.
    Using canonical orthogonalization.
  Overall, 39 of 1938 possible MOs eliminated.


  ==> Pre-Iterations <==

  SCF Guess: Superposition of Atomic Densities via on-the-fly atomic UHF (no occupation information).

   -------------------------
    Irrep   Nso     Nmo    
   -------------------------
     A       1938    1899 
   -------------------------
    Total    1938    1899
   -------------------------

  ==> Iterations <==

                           Total Energy        Delta E     RMS |[F,P]|

   @DF-RHF iter SAD: -4087.98519559716260   -4.08799e+03   0.00000e+00 
   @DF-RHF iter   1: -4070.74830660791849    1.72369e+01   7.91817e-04 DIIS/ADIIS
   @DF-RHF iter   2: -4072.18096289871846   -1.43266e+00   3.00178e-04 DIIS/ADIIS
   @DF-RHF iter   3: -4072.34562329275468   -1.64660e-01   1.13143e-04 DIIS/ADIIS
   @DF-RHF iter   4: -4072.37073827021050   -2.51150e-02   5.09252e-05 DIIS
   @DF-RHF iter   5: -4072.37603361326046   -5.29534e-03   1.66786e-05 DIIS
   @DF-RHF iter   6: -4072.37668613731330   -6.52524e-04   6.46010e-06 DIIS
   @DF-RHF iter   7: -4072.37689874021999   -2.12603e-04   3.56785e-06 DIIS
   @DF-RHF iter   8: -4072.37699187642420   -9.31362e-05   1.38516e-06 DIIS
   @DF-RHF iter   9: -4072.37701785251375   -2.59761e-05   6.92616e-07 DIIS
   @DF-RHF iter  10: -4072.37702087372782   -3.02121e-06   2.30521e-07 DIIS
   @DF-RHF iter  11: -4072.37702128329511   -4.09567e-07   1.08594e-07 DIIS
   @DF-RHF iter  12: -4072.37702138197847   -9.86834e-08   6.50591e-08 DIIS
   @DF-RHF iter  13: -4072.37702144426839   -6.22899e-08   3.87401e-08 DIIS
   @DF-RHF iter  14: -4072.37702146984702   -2.55786e-08   2.69644e-08 DIIS
   @DF-RHF iter  15: -4072.37702148592825   -1.60812e-08   1.69610e-08 DIIS
   @DF-RHF iter  16: -4072.37702149224970   -6.32144e-09   8.97416e-09 DIIS
  Energy and wave function converged.


  ==> Post-Iterations <==

    Orbital Energies [Eh]
    ---------------------

    Doubly Occupied:                                                      

       1A    -26.220242     2A    -26.159696     3A    -26.159597  
       4A    -26.159453     5A    -11.192209     6A    -11.191159  
       7A    -11.190659     8A    -11.190136     9A    -11.190127  
      10A    -11.190114    11A    -11.190114    12A    -11.190111  
      13A    -11.190095    14A    -11.190073    15A    -11.190063  
      16A    -11.190056    17A    -11.190049    18A    -11.190027  
      19A    -11.190010    20A    -11.189098    21A    -11.188567  
      22A    -11.188553    23A    -11.188547    24A    -11.188540  
      25A    -11.188535    26A    -11.188487    27A    -11.188229  
      28A    -11.188062    29A    -11.188061    30A    -11.188044  
      31A    -11.188036    32A    -11.188035    33A    -11.188029  
      34A    -11.187816    35A    -11.186627    36A    -11.186626  
      37A    -11.186611    38A    -11.186603    39A    -11.186596  
      40A    -11.186590    41A    -11.184998    42A    -11.184979  
      43A    -11.184955    44A    -11.184897    45A    -11.184889  
      46A    -11.184852    47A    -11.184699    48A    -11.184673  
      49A    -11.184641    50A    -11.184473    51A    -11.184463  
      52A    -11.184408    53A    -11.183675    54A    -11.183660  
      55A    -11.183647    56A    -11.183389    57A    -11.183365  
      58A    -11.183318    59A    -11.183176    60A    -11.183108  
      61A    -11.183096    62A    -11.182995    63A    -11.182994  
      64A    -11.182961    65A    -11.182319    66A    -11.182304  
      67A    -11.182296    68A    -11.182266    69A    -11.182238  
      70A    -11.182223    71A    -11.181486    72A    -11.181456  
      73A    -11.181405    74A    -11.181385    75A    -11.181324  
      76A    -11.181292    77A    -11.180712    78A    -11.180659  
      79A    -11.180614    80A    -11.180606    81A    -11.180520  
      82A    -11.180495    83A    -11.177942    84A    -11.177906  
      85A    -11.177832    86A    -11.177793    87A    -11.177776  
      88A    -11.177768    89A    -11.176672    90A    -11.176659  
      91A    -11.176613    92A    -11.176550    93A    -11.176496  
      94A    -11.176451    95A    -11.168504    96A    -11.168183  
      97A    -11.167739    98A    -11.166086    99A    -11.165893  
     100A    -11.165093   101A     -7.659977   102A     -1.743880  
     103A     -1.489058   104A     -1.444828   105A     -1.444630  
     106A     -1.168922   107A     -1.162193   108A     -1.162177  
     109A     -1.144079   110A     -1.144056   111A     -1.129386  
     112A     -1.126569   113A     -1.123223   114A     -1.122820  
     115A     -1.120257   116A     -1.099943   117A     -1.099933  
     118A     -1.076975   119A     -1.076961   120A     -1.075437  
     121A     -1.075219   122A     -1.074223   123A     -1.063119  
     124A     -1.062714   125A     -1.051944   126A     -1.040559  
     127A     -1.038806   128A     -1.036534   129A     -1.012588  
     130A     -1.012565   131A     -1.009311   132A     -1.009206  
     133A     -0.996574   134A     -0.991021   135A     -0.990989  
     136A     -0.986444   137A     -0.986165   138A     -0.966089  
     139A     -0.965974   140A     -0.965601   141A     -0.965599  
     142A     -0.964708   143A     -0.947502   144A     -0.938148  
     145A     -0.930358   146A     -0.927529   147A     -0.923976  
     148A     -0.923933   149A     -0.918351   150A     -0.908287  
     151A     -0.908161   152A     -0.881910   153A     -0.881858  
     154A     -0.869407   155A     -0.841561   156A     -0.841225  
     157A     -0.831835   158A     -0.831765   159A     -0.829132  
     160A     -0.829075   161A     -0.815663   162A     -0.815597  
     163A     -0.812641   164A     -0.804168   165A     -0.798781  
     166A     -0.792514   167A     -0.792293   168A     -0.778675  
     169A     -0.767658   170A     -0.766209   171A     -0.760892  
     172A     -0.760871   173A     -0.760382   174A     -0.760369  
     175A     -0.756395   176A     -0.728631   177A     -0.728451  
     178A     -0.712829   179A     -0.712814   180A     -0.712097  
     181A     -0.711982   182A     -0.693892   183A     -0.692382  
     184A     -0.690997   185A     -0.690921   186A     -0.676008  
     187A     -0.671646   188A     -0.661429   189A     -0.649853  
     190A     -0.649834   191A     -0.649513   192A     -0.649489  
     193A     -0.649093   194A     -0.647013   195A     -0.640625  
     196A     -0.626280   197A     -0.626256   198A     -0.622701  
     199A     -0.622594   200A     -0.612776   201A     -0.612762  
     202A     -0.608136   203A     -0.607592   204A     -0.607587  
     205A     -0.599067   206A     -0.598961   207A     -0.583792  
     208A     -0.583015   209A     -0.579381   210A     -0.579241  
     211A     -0.573908   212A     -0.573871   213A     -0.566088  
     214A     -0.565921   215A     -0.565858   216A     -0.562009  
     217A     -0.561981   218A     -0.552403   219A     -0.550946  
     220A     -0.550800   221A     -0.542270   222A     -0.542238  
     223A     -0.540765   224A     -0.534801   225A     -0.534785  
     226A     -0.527949   227A     -0.527429   228A     -0.524514  
     229A     -0.524386   230A     -0.523114   231A     -0.523062  
     232A     -0.521600   233A     -0.521586   234A     -0.520582  
     235A     -0.520385   236A     -0.520354   237A     -0.519538  
     238A     -0.510037   239A     -0.510017   240A     -0.509054  
     241A     -0.506839   242A     -0.506825   243A     -0.501896  
     244A     -0.500214   245A     -0.500207   246A     -0.499678  
     247A     -0.495050   248A     -0.494945   249A     -0.492668  
     250A     -0.492641   251A     -0.489514   252A     -0.486848  
     253A     -0.483327   254A     -0.483304   255A     -0.477823  
     256A     -0.477488   257A     -0.477399   258A     -0.474188  
     259A     -0.469846   260A     -0.468433   261A     -0.468270  
     262A     -0.462866   263A     -0.462811   264A     -0.454204  
     265A     -0.454050   266A     -0.452244   267A     -0.452124  
     268A     -0.447808   269A     -0.447673   270A     -0.442786  
     271A     -0.442777   272A     -0.440341   273A     -0.440181  
     274A     -0.429705   275A     -0.429019   276A     -0.422858  
     277A     -0.422755   278A     -0.421393   279A     -0.415912  
     280A     -0.415815   281A     -0.408294   282A     -0.404796  
     283A     -0.404788   284A     -0.399745   285A     -0.392319  
     286A     -0.388458   287A     -0.388373   288A     -0.384647  
     289A     -0.384105   290A     -0.371724   291A     -0.371605  
     292A     -0.363608   293A     -0.363080   294A     -0.357291  
     295A     -0.344676   296A     -0.344033   297A     -0.332530  
     298A     -0.332470   299A     -0.312130   300A     -0.312040  
     301A     -0.309918   302A     -0.309857   303A     -0.289121  
     304A     -0.278000   305A     -0.277984   306A     -0.276737  
     307A     -0.261896   308A     -0.261892   309A     -0.257834  
     310A     -0.229629   311A     -0.228018   312A     -0.227964  
     313A     -0.226604   314A     -0.226138   315A     -0.221933  
     316A     -0.213106   317A     -0.188314   318A     -0.150930  
     319A     -0.149981   320A     -0.136116   321A     -0.136001  

    Virtual:                                                              

     322A      0.070766   323A      0.070961   324A      0.097209  
     325A      0.097222   326A      0.097907   327A      0.099518  
     328A      0.099544   329A      0.104858   330A      0.107326  
     331A      0.107832   332A      0.107936   333A      0.107983  
     334A      0.112859   335A      0.112866   336A      0.124238  
     337A      0.124239   338A      0.131897   339A      0.133138  
     340A      0.138928   341A      0.139496   342A      0.140462  
     343A      0.140716   344A      0.141323   345A      0.143502  
     346A      0.143968   347A      0.145079   348A      0.145116  
     349A      0.145469   350A      0.148285   351A      0.151597  
     352A      0.151889   353A      0.152014   354A      0.152161  
     355A      0.152190   356A      0.153044   357A      0.153217  
     358A      0.154655   359A      0.159619   360A      0.164163  
     361A      0.164201   362A      0.164767   363A      0.166153  
     364A      0.166175   365A      0.167073   366A      0.168844  
     367A      0.168936   368A      0.173574   369A      0.174507  
     370A      0.175365   371A      0.175518   372A      0.178309  
     373A      0.178691   374A      0.179202   375A      0.181239  
     376A      0.182238   377A      0.182305   378A      0.183501  
     379A      0.183599   380A      0.191760   381A      0.191769  
     382A      0.192787   383A      0.198909   384A      0.199042  
     385A      0.199928   386A      0.200944   387A      0.200987  
     388A      0.206202   389A      0.206328   390A      0.207277  
     391A      0.207723   392A      0.207811   393A      0.216074  
     394A      0.216299   395A      0.217836   396A      0.218068  
     397A      0.218701   398A      0.220691   399A      0.222626  
     400A      0.223665   401A      0.223808   402A      0.223847  
     403A      0.225925   404A      0.225937   405A      0.226414  
     406A      0.228596   407A      0.228710   408A      0.229811  
     409A      0.229890   410A      0.233256   411A      0.235916  
     412A      0.236051   413A      0.236576   414A      0.240504  
     415A      0.243440   416A      0.243453   417A      0.245142  
     418A      0.245639   419A      0.245693   420A      0.246384  
     421A      0.246430   422A      0.252060   423A      0.253606  
     424A      0.254842   425A      0.255156   426A      0.255808  
     427A      0.259491   428A      0.260270   429A      0.260466  
     430A      0.262142   431A      0.262434   432A      0.263589  
     433A      0.264462   434A      0.265260   435A      0.266614  
     436A      0.271735   437A      0.272381   438A      0.273890  
     439A      0.274133   440A      0.275089   441A      0.275147  
     442A      0.275711   443A      0.275775   444A      0.276178  
     445A      0.277065   446A      0.278059   447A      0.278288  
     448A      0.278852   449A      0.278923   450A      0.280960  
     451A      0.281085   452A      0.284052   453A      0.284113  
     454A      0.287141   455A      0.287653   456A      0.289297  
     457A      0.289479   458A      0.292408   459A      0.294533  
     460A      0.294567   461A      0.295676   462A      0.295800  
     463A      0.296598   464A      0.297285   465A      0.297295  
     466A      0.299185   467A      0.299864   468A      0.302112  
     469A      0.302145   470A      0.303960   471A      0.305241  
     472A      0.307988   473A      0.310831   474A      0.312032  
     475A      0.312489   476A      0.317296   477A      0.318680  
     478A      0.318713   479A      0.320588   480A      0.322581  
     481A      0.323222   482A      0.323282   483A      0.324646  
     484A      0.325454   485A      0.325731   486A      0.327038  
     487A      0.327237   488A      0.328624   489A      0.330324  
     490A      0.330919   491A      0.332319   492A      0.332355  
     493A      0.340465   494A      0.341534   495A      0.341678  
     496A      0.341954   497A      0.342013   498A      0.343305  
     499A      0.343746   500A      0.345092   501A      0.345187  
     502A      0.345895   503A      0.348007   504A      0.348145  
     505A      0.348503   506A      0.349635   507A      0.350372  
     508A      0.353054   509A      0.355331   510A      0.355760  
     511A      0.361280   512A      0.361431   513A      0.362196  
     514A      0.362240   515A      0.362771   516A      0.367479  
     517A      0.368926   518A      0.369105   519A      0.369356  
     520A      0.369447   521A      0.371532   522A      0.372606  
     523A      0.372728   524A      0.374051   525A      0.374834  
     526A      0.375437   527A      0.375481   528A      0.376468  
     529A      0.376526   530A      0.377331   531A      0.378066  
     532A      0.381238   533A      0.381378   534A      0.381409  
     535A      0.384241   536A      0.384537   537A      0.387079  
     538A      0.387210   539A      0.388960   540A      0.389195  
     541A      0.391872   542A      0.392262   543A      0.392381  
     544A      0.393382   545A      0.393842   546A      0.394999  
     547A      0.396570   548A      0.397182   549A      0.398971  
     550A      0.399894   551A      0.399971   552A      0.400454  
     553A      0.400492   554A      0.402894   555A      0.405530  
     556A      0.405560   557A      0.406685   558A      0.408500  
     559A      0.410650   560A      0.411541   561A      0.411755  
     562A      0.412243   563A      0.416491   564A      0.418264  
     565A      0.418587   566A      0.419227   567A      0.420520  
     568A      0.421359   569A      0.426007   570A      0.426411  
     571A      0.427420   572A      0.428397   573A      0.428796  
     574A      0.430470   575A      0.434905   576A      0.434931  
     577A      0.435708   578A      0.435777   579A      0.437260  
     580A      0.438129   581A      0.438325   582A      0.441361  
     583A      0.442552   584A      0.442677   585A      0.445970  
     586A      0.446858   587A      0.447336   588A      0.447392  
     589A      0.448591   590A      0.450541   591A      0.450746  
     592A      0.452568   593A      0.452687   594A      0.457773  
     595A      0.458716   596A      0.458945   597A      0.459161  
     598A      0.460234   599A      0.462573   600A      0.462609  
     601A      0.463022   602A      0.464821   603A      0.467171  
     604A      0.467285   605A      0.467733   606A      0.467866  
     607A      0.467925   608A      0.469898   609A      0.469955  
     610A      0.470147   611A      0.470310   612A      0.472986  
     613A      0.473009   614A      0.473129   615A      0.474439  
     616A      0.474826   617A      0.476070   618A      0.477386  
     619A      0.477765   620A      0.478883   621A      0.479508  
     622A      0.479692   623A      0.480129   624A      0.480159  
     625A      0.482731   626A      0.483771   627A      0.484160  
     628A      0.484636   629A      0.486495   630A      0.486567  
     631A      0.488190   632A      0.489615   633A      0.489904  
     634A      0.490226   635A      0.490656   636A      0.497761  
     637A      0.498485   638A      0.498725   639A      0.499431  
     640A      0.499742   641A      0.501653   642A      0.502705  
     643A      0.503762   644A      0.503776   645A      0.505421  
     646A      0.505478   647A      0.507090   648A      0.507999  
     649A      0.508674   650A      0.508703   651A      0.508859  
     652A      0.508974   653A      0.509334   654A      0.509410  
     655A      0.509955   656A      0.513357   657A      0.514621  
     658A      0.515439   659A      0.519423   660A      0.520215  
     661A      0.520641   662A      0.522199   663A      0.522931  
     664A      0.524167   665A      0.524367   666A      0.524375  
     667A      0.524528   668A      0.524744   669A      0.525682  
     670A      0.526124   671A      0.529475   672A      0.530677  
     673A      0.530884   674A      0.532801   675A      0.533377  
     676A      0.535528   677A      0.536491   678A      0.537432  
     679A      0.538285   680A      0.541303   681A      0.541414  
     682A      0.543133   683A      0.543269   684A      0.543570  
     685A      0.544611   686A      0.545103   687A      0.545357  
     688A      0.547160   689A      0.548132   690A      0.548673  
     691A      0.551775   692A      0.552592   693A      0.552971  
     694A      0.554630   695A      0.554868   696A      0.555081  
     697A      0.557565   698A      0.557684   699A      0.560423  
     700A      0.561008   701A      0.561958   702A      0.561967  
     703A      0.562929   704A      0.563127   705A      0.566915  
     706A      0.567256   707A      0.567687   708A      0.567814  
     709A      0.568445   710A      0.570949   711A      0.571539  
     712A      0.571605   713A      0.572308   714A      0.573339  
     715A      0.574665   716A      0.576837   717A      0.578644  
     718A      0.580321   719A      0.582755   720A      0.583169  
     721A      0.583285   722A      0.584880   723A      0.585234  
     724A      0.587342   725A      0.587448   726A      0.587653  
     727A      0.587806   728A      0.589195   729A      0.590503  
     730A      0.594920   731A      0.595072   732A      0.596120  
     733A      0.596246   734A      0.597489   735A      0.599997  
     736A      0.600377   737A      0.604142   738A      0.606994  
     739A      0.607033   740A      0.611729   741A      0.611913  
     742A      0.614778   743A      0.617127   744A      0.619047  
     745A      0.619500   746A      0.622585   747A      0.623142  
     748A      0.623871   749A      0.624419   750A      0.628034  
     751A      0.630028   752A      0.630383   753A      0.632929  
     754A      0.633576   755A      0.634269   756A      0.634846  
     757A      0.635366   758A      0.636290   759A      0.636512  
     760A      0.638746   761A      0.639872   762A      0.641094  
     763A      0.643627   764A      0.644050   765A      0.644291  
     766A      0.646024   767A      0.648026   768A      0.649731  
     769A      0.654741   770A      0.655799   771A      0.656202  
     772A      0.660483   773A      0.662120   774A      0.662278  
     775A      0.666295   776A      0.669390   777A      0.671417  
     778A      0.672991   779A      0.674514   780A      0.675231  
     781A      0.676061   782A      0.676780   783A      0.677891  
     784A      0.679422   785A      0.680452   786A      0.680507  
     787A      0.685883   788A      0.686596   789A      0.689170  
     790A      0.690361   791A      0.691767   792A      0.692597  
     793A      0.693511   794A      0.697154   795A      0.701412  
     796A      0.702406   797A      0.706308   798A      0.706622  
     799A      0.707835   800A      0.715587   801A      0.715871  
     802A      0.716959   803A      0.720930   804A      0.721407  
     805A      0.730489   806A      0.731641   807A      0.731883  
     808A      0.736192   809A      0.736323   810A      0.737432  
     811A      0.739153   812A      0.739736   813A      0.744619  
     814A      0.746422   815A      0.746912   816A      0.753773  
     817A      0.756956   818A      0.757163   819A      0.762330  
     820A      0.762489   821A      0.763117   822A      0.763288  
     823A      0.764608   824A      0.769368   825A      0.770416  
     826A      0.772215   827A      0.776640   828A      0.777580  
     829A      0.780640   830A      0.785399   831A      0.785883  
     832A      0.789422   833A      0.797436   834A      0.799078  
     835A      0.800005   836A      0.806381   837A      0.807424  
     838A      0.807925   839A      0.814429   840A      0.815906  
     841A      0.816426   842A      0.819074   843A      0.821484  
     844A      0.821758   845A      0.828427   846A      0.830909  
     847A      0.831520   848A      0.841390   849A      0.845551  
     850A      0.855655   851A      0.855901   852A      0.859025  
     853A      0.859150   854A      0.868034   855A      0.868777  
     856A      0.869663   857A      0.871817   858A      0.872554  
     859A      0.875321   860A      0.877693   861A      0.878156  
     862A      0.878999   863A      0.879382   864A      0.883505  
     865A      0.884634   866A      0.885437   867A      0.886596  
     868A      0.887724   869A      0.887841   870A      0.891848  
     871A      0.893430   872A      0.893984   873A      0.896934  
     874A      0.899452   875A      0.900041   876A      0.902976  
     877A      0.904679   878A      0.911812   879A      0.912550  
     880A      0.914829   881A      0.915251   882A      0.917591  
     883A      0.918035   884A      0.923037   885A      0.924939  
     886A      0.925277   887A      0.927313   888A      0.927696  
     889A      0.929754   890A      0.936155   891A      0.936476  
     892A      0.936849   893A      0.937316   894A      0.938946  
     895A      0.939443   896A      0.943777   897A      0.944131  
     898A      0.946773   899A      0.946953   900A      0.947235  
     901A      0.953299   902A      0.955389   903A      0.957061  
     904A      0.959247   905A      0.959955   906A      0.960552  
     907A      0.961658   908A      0.962970   909A      0.964964  
     910A      0.965176   911A      0.968092   912A      0.970453  
     913A      0.970565   914A      0.973178   915A      0.976757  
     916A      0.978763   917A      0.979145   918A      0.980320  
     919A      0.982360   920A      0.983751   921A      0.986223  
     922A      0.986626   923A      0.989114   924A      0.989660  
     925A      0.990621   926A      0.990865   927A      0.992437  
     928A      0.993422   929A      0.994542   930A      0.995431  
     931A      1.001693   932A      1.003825   933A      1.004708  
     934A      1.006369   935A      1.008233   936A      1.008456  
     937A      1.013843   938A      1.014925   939A      1.016286  
     940A      1.017471   941A      1.017814   942A      1.018631  
     943A      1.019031   944A      1.020597   945A      1.022741  
     946A      1.023018   947A      1.026031   948A      1.026158  
     949A      1.027085   950A      1.027218   951A      1.027568  
     952A      1.031590   953A      1.032315   954A      1.035284  
     955A      1.036078   956A      1.040637   957A      1.041888  
     958A      1.043303   959A      1.047630   960A      1.048662  
     961A      1.051127   962A      1.057539   963A      1.058112  
     964A      1.058906   965A      1.062965   966A      1.064443  
     967A      1.068145   968A      1.068682   969A      1.069118  
     970A      1.071146   971A      1.071807   972A      1.075984  
     973A      1.076215   974A      1.076356   975A      1.077425  
     976A      1.078201   977A      1.078731   978A      1.084154  
     979A      1.085859   980A      1.086723   981A      1.087060  
     982A      1.087655   983A      1.093336   984A      1.096522  
     985A      1.097447   986A      1.098156   987A      1.102092  
     988A      1.103536   989A      1.104022   990A      1.110911  
     991A      1.111760   992A      1.113356   993A      1.118918  
     994A      1.119159   995A      1.119225   996A      1.120410  
     997A      1.120788   998A      1.121800   999A      1.123306  
    1000A      1.123721  1001A      1.125309  1002A      1.125692  
    1003A      1.128806  1004A      1.129145  1005A      1.129375  
    1006A      1.133649  1007A      1.135294  1008A      1.135583  
    1009A      1.135949  1010A      1.136571  1011A      1.136773  
    1012A      1.138172  1013A      1.141833  1014A      1.142854  
    1015A      1.143112  1016A      1.143557  1017A      1.143999  
    1018A      1.145407  1019A      1.146089  1020A      1.146158  
    1021A      1.148717  1022A      1.148981  1023A      1.149309  
    1024A      1.150796  1025A      1.151275  1026A      1.151447  
    1027A      1.152977  1028A      1.153256  1029A      1.153441  
    1030A      1.153867  1031A      1.154642  1032A      1.156929  
    1033A      1.158041  1034A      1.158103  1035A      1.158422  
    1036A      1.158700  1037A      1.159473  1038A      1.159705  
    1039A      1.160124  1040A      1.162706  1041A      1.163156  
    1042A      1.164952  1043A      1.166840  1044A      1.168766  
    1045A      1.169449  1046A      1.172244  1047A      1.173030  
    1048A      1.176848  1049A      1.178504  1050A      1.179089  
    1051A      1.181006  1052A      1.184289  1053A      1.185377  
    1054A      1.185702  1055A      1.188000  1056A      1.188666  
    1057A      1.191191  1058A      1.195309  1059A      1.196062  
    1060A      1.196221  1061A      1.197591  1062A      1.197687  
    1063A      1.202125  1064A      1.203951  1065A      1.206329  
    1066A      1.209216  1067A      1.209930  1068A      1.211534  
    1069A      1.211708  1070A      1.214215  1071A      1.220190  
    1072A      1.221186  1073A      1.225483  1074A      1.226320  
    1075A      1.226927  1076A      1.228025  1077A      1.229568  
    1078A      1.230425  1079A      1.231652  1080A      1.233003  
    1081A      1.234481  1082A      1.236714  1083A      1.237181  
    1084A      1.238378  1085A      1.241278  1086A      1.241577  
    1087A      1.242445  1088A      1.244846  1089A      1.245717  
    1090A      1.249950  1091A      1.254210  1092A      1.255534  
    1093A      1.255701  1094A      1.257251  1095A      1.258074  
    1096A      1.259254  1097A      1.259465  1098A      1.261423  
    1099A      1.262138  1100A      1.263584  1101A      1.269163  
    1102A      1.270641  1103A      1.276765  1104A      1.279101  
    1105A      1.279982  1106A      1.281159  1107A      1.283388  
    1108A      1.284540  1109A      1.286300  1110A      1.287548  
    1111A      1.288262  1112A      1.288595  1113A      1.291807  
    1114A      1.292532  1115A      1.293746  1116A      1.295173  
    1117A      1.295302  1118A      1.299460  1119A      1.300278  
    1120A      1.306927  1121A      1.312229  1122A      1.313843  
    1123A      1.319433  1124A      1.325293  1125A      1.325302  
    1126A      1.326180  1127A      1.330110  1128A      1.330817  
    1129A      1.331350  1130A      1.336346  1131A      1.336574  
    1132A      1.338666  1133A      1.340851  1134A      1.341135  
    1135A      1.345222  1136A      1.345527  1137A      1.353717  
    1138A      1.353813  1139A      1.358520  1140A      1.360361  
    1141A      1.360697  1142A      1.363242  1143A      1.364335  
    1144A      1.367035  1145A      1.367078  1146A      1.371175  
    1147A      1.376365  1148A      1.379013  1149A      1.379530  
    1150A      1.383193  1151A      1.385767  1152A      1.386777  
    1153A      1.387823  1154A      1.388910  1155A      1.389315  
    1156A      1.391019  1157A      1.391138  1158A      1.394747  
    1159A      1.399427  1160A      1.400563  1161A      1.400796  
    1162A      1.401312  1163A      1.401462  1164A      1.404237  
    1165A      1.405886  1166A      1.407572  1167A      1.408128  
    1168A      1.410081  1169A      1.413431  1170A      1.414493  
    1171A      1.418779  1172A      1.419916  1173A      1.429238  
    1174A      1.429598  1175A      1.430924  1176A      1.432277  
    1177A      1.433185  1178A      1.434071  1179A      1.436339  
    1180A      1.436488  1181A      1.443917  1182A      1.447497  
    1183A      1.448302  1184A      1.448575  1185A      1.453334  
    1186A      1.458195  1187A      1.459007  1188A      1.460355  
    1189A      1.460774  1190A      1.461472  1191A      1.464398  
    1192A      1.464507  1193A      1.466231  1194A      1.474447  
    1195A      1.478888  1196A      1.479129  1197A      1.479431  
    1198A      1.481894  1199A      1.482014  1200A      1.482255  
    1201A      1.483532  1202A      1.483642  1203A      1.484344  
    1204A      1.494697  1205A      1.494742  1206A      1.495177  
    1207A      1.495387  1208A      1.500740  1209A      1.501367  
    1210A      1.502422  1211A      1.503589  1212A      1.505394  
    1213A      1.507457  1214A      1.507739  1215A      1.511362  
    1216A      1.511958  1217A      1.513049  1218A      1.514030  
    1219A      1.518007  1220A      1.523517  1221A      1.523868  
    1222A      1.525051  1223A      1.528103  1224A      1.529037  
    1225A      1.531237  1226A      1.532417  1227A      1.537905  
    1228A      1.538489  1229A      1.541931  1230A      1.546468  
    1231A      1.546933  1232A      1.548808  1233A      1.549288  
    1234A      1.556443  1235A      1.558086  1236A      1.559806  
    1237A      1.560917  1238A      1.565644  1239A      1.566156  
    1240A      1.567565  1241A      1.567807  1242A      1.572906  
    1243A      1.573128  1244A      1.579383  1245A      1.594516  
    1246A      1.594953  1247A      1.603882  1248A      1.605036  
    1249A      1.606597  1250A      1.614356  1251A      1.616088  
    1252A      1.617907  1253A      1.618877  1254A      1.624184  
    1255A      1.647990  1256A      1.648718  1257A      1.654489  
    1258A      1.662524  1259A      1.666435  1260A      1.667507  
    1261A      1.668736  1262A      1.683119  1263A      1.683603  
    1264A      1.684746  1265A      1.685339  1266A      1.686255  
    1267A      1.690543  1268A      1.690817  1269A      1.693353  
    1270A      1.693579  1271A      1.694063  1272A      1.694075  
    1273A      1.695372  1274A      1.696533  1275A      1.698140  
    1276A      1.700295  1277A      1.701672  1278A      1.703144  
    1279A      1.704365  1280A      1.706577  1281A      1.710132  
    1282A      1.710874  1283A      1.711171  1284A      1.711420  
    1285A      1.714030  1286A      1.715303  1287A      1.717464  
    1288A      1.717822  1289A      1.719831  1290A      1.720153  
    1291A      1.721411  1292A      1.723385  1293A      1.723758  
    1294A      1.724750  1295A      1.727131  1296A      1.727170  
    1297A      1.728076  1298A      1.728650  1299A      1.734282  
    1300A      1.734737  1301A      1.738593  1302A      1.740408  
    1303A      1.740636  1304A      1.745322  1305A      1.745495  
    1306A      1.746744  1307A      1.747809  1308A      1.750741  
    1309A      1.752501  1310A      1.757126  1311A      1.757488  
    1312A      1.761685  1313A      1.762347  1314A      1.765819  
    1315A      1.765979  1316A      1.767364  1317A      1.771264  
    1318A      1.772293  1319A      1.773632  1320A      1.779689  
    1321A      1.780397  1322A      1.782809  1323A      1.783267  
    1324A      1.790065  1325A      1.790622  1326A      1.791635  
    1327A      1.794803  1328A      1.796118  1329A      1.797390  
    1330A      1.798487  1331A      1.799142  1332A      1.802169  
    1333A      1.808198  1334A      1.809282  1335A      1.812147  
    1336A      1.815880  1337A      1.817489  1338A      1.823025  
    1339A      1.823630  1340A      1.834510  1341A      1.841206  
    1342A      1.844223  1343A      1.847042  1344A      1.853422  
    1345A      1.853954  1346A      1.854483  1347A      1.854671  
    1348A      1.864235  1349A      1.870855  1350A      1.873071  
    1351A      1.886841  1352A      1.887771  1353A      1.890741  
    1354A      1.898000  1355A      1.900276  1356A      1.901597  
    1357A      1.902218  1358A      1.903356  1359A      1.903865  
    1360A      1.904221  1361A      1.905206  1362A      1.906683  
    1363A      1.907584  1364A      1.908293  1365A      1.911920  
    1366A      1.921399  1367A      1.926648  1368A      1.927377  
    1369A      1.927528  1370A      1.928514  1371A      1.932734  
    1372A      1.933291  1373A      1.933766  1374A      1.935298  
    1375A      1.935803  1376A      1.938407  1377A      1.942540  
    1378A      1.942793  1379A      1.944584  1380A      1.947109  
    1381A      1.947294  1382A      1.950267  1383A      1.950806  
    1384A      1.956002  1385A      1.956124  1386A      1.956825  
    1387A      1.959363  1388A      1.961374  1389A      1.963912  
    1390A      1.964285  1391A      1.965800  1392A      1.968071  
    1393A      1.969388  1394A      1.974078  1395A      1.975247  
    1396A      1.981968  1397A      1.983613  1398A      1.984043  
    1399A      1.993454  1400A      1.996704  1401A      1.997054  
    1402A      1.999418  1403A      1.999618  1404A      2.000527  
    1405A      2.002264  1406A      2.002706  1407A      2.008385  
    1408A      2.008490  1409A      2.008739  1410A      2.010133  
    1411A      2.013207  1412A      2.014725  1413A      2.015284  
    1414A      2.015530  1415A      2.016178  1416A      2.018968  
    1417A      2.022524  1418A      2.023075  1419A      2.024216  
    1420A      2.031307  1421A      2.032724  1422A      2.035396  
    1423A      2.036203  1424A      2.037214  1425A      2.037925  
    1426A      2.038141  1427A      2.038894  1428A      2.041013  
    1429A      2.047410  1430A      2.052280  1431A      2.054278  
    1432A      2.054819  1433A      2.061601  1434A      2.063284  
    1435A      2.063661  1436A      2.065060  1437A      2.072559  
    1438A      2.073522  1439A      2.074013  1440A      2.075799  
    1441A      2.076564  1442A      2.078984  1443A      2.079913  
    1444A      2.086379  1445A      2.086735  1446A      2.088996  
    1447A      2.089953  1448A      2.093988  1449A      2.094436  
    1450A      2.095135  1451A      2.095262  1452A      2.098317  
    1453A      2.099169  1454A      2.105833  1455A      2.108069  
    1456A      2.108855  1457A      2.110216  1458A      2.110794  
    1459A      2.111630  1460A      2.112871  1461A      2.115417  
    1462A      2.116579  1463A      2.119430  1464A      2.124327  
    1465A      2.125074  1466A      2.126340  1467A      2.126750  
    1468A      2.129716  1469A      2.132775  1470A      2.133076  
    1471A      2.136390  1472A      2.136852  1473A      2.137914  
    1474A      2.140834  1475A      2.142531  1476A      2.146444  
    1477A      2.152814  1478A      2.153659  1479A      2.154551  
    1480A      2.155459  1481A      2.155928  1482A      2.156507  
    1483A      2.157216  1484A      2.160048  1485A      2.160776  
    1486A      2.161937  1487A      2.162177  1488A      2.162495  
    1489A      2.163462  1490A      2.164125  1491A      2.164674  
    1492A      2.167261  1493A      2.168321  1494A      2.169281  
    1495A      2.170652  1496A      2.171403  1497A      2.172821  
    1498A      2.173277  1499A      2.174244  1500A      2.175311  
    1501A      2.178830  1502A      2.180272  1503A      2.185769  
    1504A      2.186401  1505A      2.186927  1506A      2.187623  
    1507A      2.191148  1508A      2.191767  1509A      2.191892  
    1510A      2.192646  1511A      2.193542  1512A      2.195164  
    1513A      2.199869  1514A      2.200404  1515A      2.201113  
    1516A      2.202456  1517A      2.203297  1518A      2.204093  
    1519A      2.205271  1520A      2.206965  1521A      2.207526  
    1522A      2.210317  1523A      2.210992  1524A      2.217379  
    1525A      2.217570  1526A      2.219965  1527A      2.220858  
    1528A      2.222002  1529A      2.222381  1530A      2.224443  
    1531A      2.225389  1532A      2.232866  1533A      2.233749  
    1534A      2.234832  1535A      2.235314  1536A      2.237385  
    1537A      2.239710  1538A      2.244789  1539A      2.247254  
    1540A      2.247917  1541A      2.249076  1542A      2.252298  
    1543A      2.253098  1544A      2.253704  1545A      2.255924  
    1546A      2.256631  1547A      2.257298  1548A      2.266595  
    1549A      2.267267  1550A      2.269553  1551A      2.270698  
    1552A      2.272612  1553A      2.275918  1554A      2.277432  
    1555A      2.278040  1556A      2.279005  1557A      2.279310  
    1558A      2.279713  1559A      2.281352  1560A      2.283816  
    1561A      2.288031  1562A      2.288964  1563A      2.290858  
    1564A      2.294759  1565A      2.294773  1566A      2.296775  
    1567A      2.297801  1568A      2.298818  1569A      2.300731  
    1570A      2.301305  1571A      2.302879  1572A      2.303452  
    1573A      2.305937  1574A      2.308888  1575A      2.311391  
    1576A      2.316881  1577A      2.318407  1578A      2.319141  
    1579A      2.319217  1580A      2.325345  1581A      2.326484  
    1582A      2.328585  1583A      2.329121  1584A      2.333678  
    1585A      2.338801  1586A      2.342449  1587A      2.343212  
    1588A      2.343778  1589A      2.346379  1590A      2.347223  
    1591A      2.349023  1592A      2.349999  1593A      2.354777  
    1594A      2.365084  1595A      2.366037  1596A      2.369800  
    1597A      2.370743  1598A      2.372282  1599A      2.375616  
    1600A      2.377870  1601A      2.379195  1602A      2.392105  
    1603A      2.399244  1604A      2.399569  1605A      2.401146  
    1606A      2.403529  1607A      2.403782  1608A      2.405956  
    1609A      2.407874  1610A      2.409452  1611A      2.411882  
    1612A      2.414676  1613A      2.414973  1614A      2.416433  
    1615A      2.416981  1616A      2.417316  1617A      2.417661  
    1618A      2.418263  1619A      2.419377  1620A      2.420026  
    1621A      2.422279  1622A      2.422671  1623A      2.428381  
    1624A      2.435392  1625A      2.437084  1626A      2.455419  
    1627A      2.456644  1628A      2.462793  1629A      2.463953  
    1630A      2.474028  1631A      2.478512  1632A      2.479373  
    1633A      2.484441  1634A      2.491025  1635A      2.492493  
    1636A      2.494615  1637A      2.498078  1638A      2.510458  
    1639A      2.510909  1640A      2.515188  1641A      2.526930  
    1642A      2.533352  1643A      2.535936  1644A      2.540526  
    1645A      2.541260  1646A      2.543269  1647A      2.543707  
    1648A      2.546748  1649A      2.547794  1650A      2.556911  
    1651A      2.563909  1652A      2.565218  1653A      2.576628  
    1654A      2.579097  1655A      2.579334  1656A      2.582566  
    1657A      2.591188  1658A      2.609065  1659A      2.611943  
    1660A      2.612452  1661A      2.614104  1662A      2.616529  
    1663A      2.617850  1664A      2.621371  1665A      2.622231  
    1666A      2.625877  1667A      2.627086  1668A      2.627793  
    1669A      2.629083  1670A      2.639560  1671A      2.642258  
    1672A      2.645465  1673A      2.646613  1674A      2.651739  
    1675A      2.655256  1676A      2.656387  1677A      2.658198  
    1678A      2.658943  1679A      2.659112  1680A      2.662305  
    1681A      2.667025  1682A      2.677020  1683A      2.677194  
    1684A      2.681871  1685A      2.685654  1686A      2.686166  
    1687A      2.686592  1688A      2.686999  1689A      2.694966  
    1690A      2.695568  1691A      2.706905  1692A      2.711865  
    1693A      2.712119  1694A      2.719485  1695A      2.720164  
    1696A      2.722466  1697A      2.724569  1698A      2.725615  
    1699A      2.727748  1700A      2.730067  1701A      2.730368  
    1702A      2.740015  1703A      2.740294  1704A      2.740470  
    1705A      2.741527  1706A      2.742995  1707A      2.743691  
    1708A      2.751663  1709A      2.752337  1710A      2.757916  
    1711A      2.760734  1712A      2.764616  1713A      2.765966  
    1714A      2.766802  1715A      2.767745  1716A      2.768793  
    1717A      2.773234  1718A      2.777119  1719A      2.784158  
    1720A      2.792176  1721A      2.795906  1722A      2.802219  
    1723A      2.803173  1724A      2.803574  1725A      2.805081  
    1726A      2.829334  1727A      2.833329  1728A      2.840753  
    1729A      2.847352  1730A      2.848899  1731A      2.857426  
    1732A      2.867441  1733A      2.868333  1734A      2.869125  
    1735A      2.870048  1736A      2.871619  1737A      2.879280  
    1738A      2.880866  1739A      2.884277  1740A      2.884590  
    1741A      2.891553  1742A      2.899280  1743A      2.902762  
    1744A      2.906079  1745A      2.907590  1746A      2.916630  
    1747A      2.923068  1748A      2.929421  1749A      2.932631  
    1750A      2.933404  1751A      2.933830  1752A      2.939636  
    1753A      2.940980  1754A      2.941939  1755A      2.949823  
    1756A      2.950337  1757A      2.957411  1758A      2.964398  
    1759A      2.968822  1760A      2.975272  1761A      2.991795  
    1762A      2.993516  1763A      2.998143  1764A      3.000829  
    1765A      3.002154  1766A      3.003515  1767A      3.003729  
    1768A      3.037092  1769A      3.043161  1770A      3.044163  
    1771A      3.048989  1772A      3.067153  1773A      3.067348  
    1774A      3.104716  1775A      3.105112  1776A      3.114296  
    1777A      3.116389  1778A      3.120231  1779A      3.120450  
    1780A      3.122595  1781A      3.133870  1782A      3.134135  
    1783A      3.135672  1784A      3.148428  1785A      3.176187  
    1786A      3.181976  1787A      3.182829  1788A      3.184269  
    1789A      3.197641  1790A      3.198119  1791A      3.204258  
    1792A      3.205077  1793A      3.205356  1794A      3.214420  
    1795A      3.215203  1796A      3.223919  1797A      3.224343  
    1798A      3.225679  1799A      3.225906  1800A      3.227180  
    1801A      3.232626  1802A      3.243514  1803A      3.246538  
    1804A      3.247500  1805A      3.249859  1806A      3.265458  
    1807A      3.265927  1808A      3.278506  1809A      3.279294  
    1810A      3.290290  1811A      3.310739  1812A      3.330126  
    1813A      3.330766  1814A      3.332352  1815A      3.337876  
    1816A      3.338375  1817A      3.346199  1818A      3.348938  
    1819A      3.349305  1820A      3.350126  1821A      3.374945  
    1822A      3.375966  1823A      3.383248  1824A      3.406668  
    1825A      3.411254  1826A      3.441362  1827A      3.442491  
    1828A      3.478961  1829A      3.503249  1830A      3.520104  
    1831A      3.534791  1832A      3.536085  1833A      3.537734  
    1834A      3.543588  1835A      3.554706  1836A      3.559159  
    1837A      3.564176  1838A      3.573337  1839A      3.575620  
    1840A      3.589194  1841A      3.597945  1842A      3.616352  
    1843A      3.622057  1844A      3.660935  1845A      3.662030  
    1846A      3.664301  1847A      3.678265  1848A      3.735755  
    1849A      3.737764  1850A      3.749944  1851A      3.752681  
    1852A      3.784445  1853A      3.794542  1854A      3.833507  
    1855A      3.837375  1856A      3.848405  1857A      3.852376  
    1858A      3.858201  1859A      3.918438  1860A      3.921501  
    1861A      3.949976  1862A      3.953525  1863A      3.965090  
    1864A      3.993887  1865A      3.994533  1866A      4.018883  
    1867A      4.025708  1868A      4.025975  1869A      4.031508  
    1870A      4.048520  1871A      4.055678  1872A      4.073205  
    1873A      4.093257  1874A      4.097245  1875A      4.106081  
    1876A      4.123525  1877A      4.129414  1878A      4.165672  
    1879A      4.178491  1880A      4.182296  1881A      4.219013  
    1882A      4.220673  1883A      4.301733  1884A      4.309578  
    1885A      4.320750  1886A      4.328650  1887A      4.406087  
    1888A      4.436276  1889A      4.553510  1890A      4.580313  
    1891A      4.612308  1892A      4.619460  1893A      4.662559  
    1894A      4.667115  1895A      4.674956  1896A      4.679611  
    1897A      4.755514  1898A      4.830659  1899A      4.895527  

    Final Occupation by Irrep:
              A 
    DOCC [   321 ]
    NA   [   321 ]
    NB   [   321 ]

  @DF-RHF Final Energy: -4072.37702149224970

   => Energetics <=

    Nuclear Repulsion Energy =          18034.3626809433153539
    One-Electron Energy =              -41556.4158321410286590
    Two-Electron Energy =               19449.6761297054617899
    Total Energy =                      -4072.3770214922515152

Computation Completed


Properties will be evaluated at   0.000000,   0.000000,   0.000000 [a0]

Properties computed using the SCF density matrix


 Multipole Moments:

 ------------------------------------------------------------------------------------
     Multipole            Electronic (a.u.)      Nuclear  (a.u.)        Total (a.u.)
 ------------------------------------------------------------------------------------

 L = 1.  Multiply by 2.5417464519 to convert [e a0] to [Debye]
 Dipole X            :         -0.0007938           -0.0000548           -0.0008485
 Dipole Y            :         -0.0003749           -0.0002464           -0.0006212
 Dipole Z            :        -11.3315501           13.0921048            1.7605548
 Magnitude           :                                                    1.7605551

 ------------------------------------------------------------------------------------

*** tstop() called on n2cn0787 at Thu Jan 25 01:56:53 2024
Module time:
	user time   =   27515.27 seconds =     458.59 minutes
	system time =    1410.42 seconds =      23.51 minutes
	total time  =      11978 seconds =     199.63 minutes
Total time:
	user time   =   27515.27 seconds =     458.59 minutes
	system time =    1410.42 seconds =      23.51 minutes
	total time  =      11978 seconds =     199.63 minutes

  //>>>>>>>>>>>>>>>>>>>>>>>>>>>>>>>>>>>//
  //            Monomer A HF           //
  //<<<<<<<<<<<<<<<<<<<<<<<<<<<<<<<<<<<//

   => Libint2 <=

    Primary   basis highest AM E, G, H:  5, 4, 3
    Auxiliary basis highest AM E, G, H:  6, 5, 4
    Onebody   basis highest AM E, G, H:  6, 5, 4
    Solid Harmonics ordering:            gaussian

*** tstart() called on n2cn0787
*** at Thu Jan 25 01:56:54 2024

   => Loading Basis Set <=

    Name: JUN-CC-PVDZ
    Role: ORBITAL
    Keyword: BASIS
    atoms 1                                                   entry B          line   130 file /opt/software/pc2/EB-SW/software/PSI4/1.9-foss-2022a/share/psi4/basis/jun-cc-pvdz.gbs 
    atoms 2-5                                                 entry F          line   266 file /opt/software/pc2/EB-SW/software/PSI4/1.9-foss-2022a/share/psi4/basis/jun-cc-pvdz.gbs 
    atoms 6-23, 30-42, 45-59, 62-78, 81-93, 98-108, 111-119   entry C          line   164 file /opt/software/pc2/EB-SW/software/PSI4/1.9-foss-2022a/share/psi4/basis/jun-cc-pvdz.gbs 
    atoms 24-29, 43-44, 60-61, 79-80, 94-97, 109-110, 120-125 entry H          line    36 file /opt/software/pc2/EB-SW/software/PSI4/1.9-foss-2022a/share/psi4/basis/jun-cc-pvdz.gbs 


         ---------------------------------------------------------
                                   SCF
               by Justin Turney, Rob Parrish, Andy Simmonett
                          and Daniel G. A. Smith
                              RHF Reference
                       16 Threads,  44822 MiB Core
         ---------------------------------------------------------

  ==> Geometry <==

    Molecular point group: c1
    Full point group: C1

    Geometry (in Angstrom), charge = -1, multiplicity = 1:

       Center              X                  Y                   Z               Mass       
    ------------   -----------------  -----------------  -----------------  -----------------
         B           -0.000201921932     0.000288800891    -2.048442989724    11.009305360000
         F           -0.000004162732     0.000014527991    -0.635657989724    18.998403162730
         F            1.147855837268     0.675795727991    -2.519583989724    18.998403162730
         F            0.011913897268    -1.331996472009    -2.519381989724    18.998403162730
         F           -1.159670162732     0.656088027991    -2.519302989724    18.998403162730
      Gh(C)          -3.668445426752     7.803766698073     0.153423051612    12.000000000000
      Gh(C)          -4.847602882078     7.131256359331     0.151056476679    12.000000000000
      Gh(C)          -4.894963461907     5.696344931522     0.150483565581    12.000000000000
      Gh(C)          -3.653744841505     4.980744868950     0.158144007311    12.000000000000
      Gh(C)          -2.409429284226     7.113995564665     0.153617393872    12.000000000000
      Gh(C)          -2.425481506836     5.681136478894     0.146612505002    12.000000000000
      Gh(C)          -1.194748179167     7.786158722300     0.155089574414    12.000000000000
      Gh(C)           0.037954866205     7.099436173748     0.152918870109    12.000000000000
      Gh(C)           0.030328424687     5.669504087695     0.147435485193    12.000000000000
      Gh(C)          -1.200988670637     4.969284875906     0.156405219127    12.000000000000
      Gh(C)           1.277953663083     7.772873971185     0.154294718670    12.000000000000
      Gh(C)           2.485353921992     7.087711413228     0.152020230765    12.000000000000
      Gh(C)           2.486124522185     5.654785338231     0.145082481777    12.000000000000
      Gh(C)           1.254078756912     4.956092641655     0.156710423365    12.000000000000
      Gh(C)           3.751710428674     7.763926678971     0.152147082145    12.000000000000
      Gh(C)           4.923561893453     7.078795304981     0.150090601437    12.000000000000
      Gh(C)           4.955603108594     5.643461991360     0.149930188630    12.000000000000
      Gh(C)           3.706797371473     4.941224736324     0.155021748800    12.000000000000
      Gh(H)          -3.658525300490     8.890841947126     0.155108039862     1.007825032230
      Gh(H)          -1.189217492488     8.874135615351     0.159061450855     1.007825032230
      Gh(H)           1.284290076155     8.860847963479     0.158453542811     1.007825032230
      Gh(H)           3.753537924068     8.851049806963     0.153669606461     1.007825032230
      Gh(H)           5.869954540475     7.613809362646     0.149165234395     1.007825032230
[...]
    1522A      2.166287  1523A      2.167793  1524A      2.169020  
    1525A      2.171541  1526A      2.172099  1527A      2.173982  
    1528A      2.177321  1529A      2.180510  1530A      2.181618  
    1531A      2.183507  1532A      2.183756  1533A      2.192635  
    1534A      2.193420  1535A      2.196294  1536A      2.196776  
    1537A      2.197682  1538A      2.198156  1539A      2.202216  
    1540A      2.202401  1541A      2.202682  1542A      2.205283  
    1543A      2.207313  1544A      2.209699  1545A      2.210536  
    1546A      2.214688  1547A      2.215648  1548A      2.215817  
    1549A      2.220447  1550A      2.222960  1551A      2.228236  
    1552A      2.229131  1553A      2.230327  1554A      2.232078  
    1555A      2.232525  1556A      2.235084  1557A      2.238316  
    1558A      2.239526  1559A      2.239732  1560A      2.241246  
    1561A      2.242474  1562A      2.248146  1563A      2.249121  
    1564A      2.249599  1565A      2.250981  1566A      2.263935  
    1567A      2.264532  1568A      2.265637  1569A      2.266418  
    1570A      2.267955  1571A      2.269642  1572A      2.278483  
    1573A      2.279069  1574A      2.283404  1575A      2.284905  
    1576A      2.288942  1577A      2.293207  1578A      2.294020  
    1579A      2.296849  1580A      2.297051  1581A      2.298824  
    1582A      2.300069  1583A      2.310367  1584A      2.312801  
    1585A      2.315103  1586A      2.325427  1587A      2.326770  
    1588A      2.327195  1589A      2.328102  1590A      2.328483  
    1591A      2.328771  1592A      2.333507  1593A      2.335240  
    1594A      2.338614  1595A      2.339001  1596A      2.341290  
    1597A      2.342253  1598A      2.342387  1599A      2.343985  
    1600A      2.345537  1601A      2.346739  1602A      2.346973  
    1603A      2.353630  1604A      2.355791  1605A      2.360953  
    1606A      2.377496  1607A      2.382919  1608A      2.385389  
    1609A      2.386690  1610A      2.388991  1611A      2.400437  
    1612A      2.402112  1613A      2.404743  1614A      2.406127  
    1615A      2.407378  1616A      2.417570  1617A      2.419140  
    1618A      2.421891  1619A      2.423080  1620A      2.441092  
    1621A      2.446153  1622A      2.446782  1623A      2.453299  
    1624A      2.463398  1625A      2.466292  1626A      2.466528  
    1627A      2.468656  1628A      2.471878  1629A      2.472371  
    1630A      2.473454  1631A      2.491964  1632A      2.492403  
    1633A      2.502294  1634A      2.507713  1635A      2.508131  
    1636A      2.512366  1637A      2.517368  1638A      2.523042  
    1639A      2.532413  1640A      2.534509  1641A      2.541097  
    1642A      2.544781  1643A      2.545488  1644A      2.547110  
    1645A      2.548962  1646A      2.552115  1647A      2.553513  
    1648A      2.556532  1649A      2.557506  1650A      2.562110  
    1651A      2.564388  1652A      2.571627  1653A      2.573490  
    1654A      2.584266  1655A      2.585640  1656A      2.585991  
    1657A      2.586048  1658A      2.589427  1659A      2.589884  
    1660A      2.592861  1661A      2.593327  1662A      2.594051  
    1663A      2.602058  1664A      2.602575  1665A      2.608031  
    1666A      2.612610  1667A      2.615319  1668A      2.615842  
    1669A      2.616468  1670A      2.619205  1671A      2.621822  
    1672A      2.622604  1673A      2.633375  1674A      2.635754  
    1675A      2.645562  1676A      2.647628  1677A      2.650387  
    1678A      2.650951  1679A      2.654003  1680A      2.656574  
    1681A      2.657643  1682A      2.658608  1683A      2.659680  
    1684A      2.662377  1685A      2.666315  1686A      2.669717  
    1687A      2.674331  1688A      2.676917  1689A      2.678896  
    1690A      2.681230  1691A      2.681465  1692A      2.689697  
    1693A      2.690673  1694A      2.692124  1695A      2.692620  
    1696A      2.694667  1697A      2.700207  1698A      2.704265  
    1699A      2.710708  1700A      2.714271  1701A      2.716031  
    1702A      2.717558  1703A      2.730655  1704A      2.731096  
    1705A      2.732371  1706A      2.732695  1707A      2.742413  
    1708A      2.743790  1709A      2.762055  1710A      2.774422  
    1711A      2.778090  1712A      2.781362  1713A      2.793796  
    1714A      2.795860  1715A      2.801637  1716A      2.801660  
    1717A      2.802558  1718A      2.804925  1719A      2.814951  
    1720A      2.815208  1721A      2.816592  1722A      2.822342  
    1723A      2.826853  1724A      2.827924  1725A      2.829215  
    1726A      2.834266  1727A      2.841023  1728A      2.848989  
    1729A      2.854537  1730A      2.855088  1731A      2.858935  
    1732A      2.863772  1733A      2.866248  1734A      2.866413  
    1735A      2.868653  1736A      2.875396  1737A      2.883557  
    1738A      2.890138  1739A      2.896211  1740A      2.897117  
    1741A      2.920387  1742A      2.920756  1743A      2.921160  
    1744A      2.928179  1745A      2.928803  1746A      2.936851  
    1747A      2.937132  1748A      2.963856  1749A      2.964630  
    1750A      2.966704  1751A      2.976384  1752A      2.989562  
    1753A      2.991945  1754A      2.998740  1755A      3.000077  
    1756A      3.031854  1757A      3.032178  1758A      3.049230  
    1759A      3.050166  1760A      3.051798  1761A      3.052662  
    1762A      3.053238  1763A      3.059154  1764A      3.060389  
    1765A      3.069082  1766A      3.073445  1767A      3.110883  
    1768A      3.115188  1769A      3.115568  1770A      3.122436  
    1771A      3.131103  1772A      3.131352  1773A      3.144054  
    1774A      3.144552  1775A      3.153174  1776A      3.153809  
    1777A      3.155413  1778A      3.158053  1779A      3.158857  
    1780A      3.160496  1781A      3.160708  1782A      3.162276  
    1783A      3.169512  1784A      3.173350  1785A      3.195149  
    1786A      3.195713  1787A      3.197977  1788A      3.199556  
    1789A      3.201750  1790A      3.223073  1791A      3.259543  
    1792A      3.262382  1793A      3.264422  1794A      3.264662  
    1795A      3.265970  1796A      3.266941  1797A      3.275341  
    1798A      3.276906  1799A      3.277477  1800A      3.277697  
    1801A      3.301347  1802A      3.303121  1803A      3.329993  
    1804A      3.347041  1805A      3.349153  1806A      3.369245  
    1807A      3.371944  1808A      3.406582  1809A      3.424576  
    1810A      3.451962  1811A      3.461158  1812A      3.462144  
    1813A      3.463831  1814A      3.473201  1815A      3.476515  
    1816A      3.481344  1817A      3.483845  1818A      3.492935  
    1819A      3.496591  1820A      3.498388  1821A      3.512824  
    1822A      3.548913  1823A      3.552267  1824A      3.586269  
    1825A      3.589726  1826A      3.592078  1827A      3.600216  
    1828A      3.612354  1829A      3.667920  1830A      3.670815  
    1831A      3.675939  1832A      3.679082  1833A      3.708833  
    1834A      3.761122  1835A      3.764150  1836A      3.778836  
    1837A      3.790228  1838A      3.796872  1839A      3.832002  
    1840A      3.845187  1841A      3.859126  1842A      3.878330  
    1843A      3.882625  1844A      3.923943  1845A      3.925001  
    1846A      3.952408  1847A      3.952995  1848A      3.974674  
    1849A      3.975388  1850A      3.986252  1851A      3.998852  
    1852A      4.017183  1853A      4.025099  1854A      4.027793  
    1855A      4.091673  1856A      4.311162  1857A      4.448278  
    1858A      4.513197  1859A      4.541174  1860A      4.559858  
    1861A      4.783903  1862A      5.168382  1863A      5.772406  
    1864A      5.774146  1865A      5.810507  1866A      5.810969  
    1867A      5.826145  1868A      5.827883  1869A      5.905963  
    1870A      5.906725  1871A      5.907649  1872A      6.068855  
    1873A      6.180714  1874A      6.183460  1875A      6.206441  
    1876A      6.287320  1877A      6.299846  1878A      6.376993  
    1879A      6.395106  1880A      6.398079  1881A      6.428271  
    1882A      6.429328  1883A      7.412654  1884A      7.473203  
    1885A      7.483663  1886A      7.575247  1887A      7.580847  
    1888A      7.650513  1889A      7.795482  1890A      7.796804  
    1891A      7.911778  1892A      8.267249  1893A      8.303107  
    1894A      8.481362  1895A     13.137779  1896A     42.963074  
    1897A     42.973059  1898A     42.973326  1899A     43.008228  

    Final Occupation by Irrep:
              A 
    DOCC [   300 ]
    NA   [   300 ]
    NB   [   300 ]

  @DF-RHF Final Energy: -3650.34171224312558

   => Energetics <=

    Nuclear Repulsion Energy =          15611.4211649754324753
    One-Electron Energy =              -36072.1828405812993878
    Two-Electron Energy =               16810.4199633627395087
    Total Energy =                      -3650.3417122431274038

Computation Completed


Properties will be evaluated at   0.000000,   0.000000,   0.000000 [a0]

Properties computed using the SCF density matrix


 Multipole Moments:

 ------------------------------------------------------------------------------------
     Multipole            Electronic (a.u.)      Nuclear  (a.u.)        Total (a.u.)
 ------------------------------------------------------------------------------------

 L = 1.  Multiply by 2.5417464519 to convert [e a0] to [Debye]
 Dipole X            :          0.0004947            0.0002304            0.0007251
 Dipole Y            :          0.0014076           -0.0013052            0.0001024
 Dipole Z            :       -171.8095962          171.8055866           -0.0040097
 Magnitude           :                                                    0.0040760

 ------------------------------------------------------------------------------------

*** tstop() called on n2cn0787 at Thu Jan 25 04:33:27 2024
Module time:
	user time   =   17781.59 seconds =     296.36 minutes
	system time =     929.78 seconds =      15.50 minutes
	total time  =       6169 seconds =     102.82 minutes
Total time:
	user time   =   49689.57 seconds =     828.16 minutes
	system time =    2604.58 seconds =      43.41 minutes
	total time  =      21372 seconds =     356.20 minutes
  Constructing Basis Sets for SAPT...

   => Loading Basis Set <=

    Name: (JUN-CC-PVDZ AUX)
    Role: RIFIT
    Keyword: DF_BASIS_SAPT
    atoms 1                                                   entry B          line    56 file /opt/software/pc2/EB-SW/software/PSI4/1.9-foss-2022a/share/psi4/basis/jun-cc-pvdz-ri.gbs 
    atoms 2-5                                                 entry F          line   232 file /opt/software/pc2/EB-SW/software/PSI4/1.9-foss-2022a/share/psi4/basis/jun-cc-pvdz-ri.gbs 
    atoms 6-23, 30-42, 45-59, 62-78, 81-93, 98-108, 111-119   entry C          line   100 file /opt/software/pc2/EB-SW/software/PSI4/1.9-foss-2022a/share/psi4/basis/jun-cc-pvdz-ri.gbs 
    atoms 24-29, 43-44, 60-61, 79-80, 94-97, 109-110, 120-125 entry H          line    30 file /opt/software/pc2/EB-SW/software/PSI4/1.9-foss-2022a/share/psi4/basis/jun-cc-pvdz-ri.gbs 

   => Loading Basis Set <=

    Name: (JUN-CC-PVDZ AUX)
    Role: JKFIT
    Keyword: DF_BASIS_ELST
    atoms 1                                                   entry B          line    90 file /opt/software/pc2/EB-SW/software/PSI4/1.9-foss-2022a/share/psi4/basis/jun-cc-pvdz-jkfit.gbs 
    atoms 2-5                                                 entry F          line   314 file /opt/software/pc2/EB-SW/software/PSI4/1.9-foss-2022a/share/psi4/basis/jun-cc-pvdz-jkfit.gbs 
    atoms 6-23, 30-42, 45-59, 62-78, 81-93, 98-108, 111-119   entry C          line   146 file /opt/software/pc2/EB-SW/software/PSI4/1.9-foss-2022a/share/psi4/basis/jun-cc-pvdz-jkfit.gbs 
    atoms 24-29, 43-44, 60-61, 79-80, 94-97, 109-110, 120-125 entry H          line    70 file /opt/software/pc2/EB-SW/software/PSI4/1.9-foss-2022a/share/psi4/basis/jun-cc-pvdz-jkfit.gbs 


  //>>>>>>>>>>>>>>>>>>>>>>>>>>>>>>>>>>>//
  //               SSAPT0              //
  //<<<<<<<<<<<<<<<<<<<<<<<<<<<<<<<<<<<//


*** tstart() called on n2cn0787
*** at Thu Jan 25 04:33:30 2024

        SAPT0  
    Ed Hohenstein
     6 June 2009

      Orbital Information
  --------------------------
    NSO        =      1938
    NMO        =      1899
    NRI        =      6901
    NRI (Elst) =      8531
    NOCC A     =        21
    NOCC B     =       300
    FOCC A     =         5
    FOCC B     =        96
    NVIR A     =      1878
    NVIR B     =      1599

    Elst10,r            =    -0.599033207028 [Eh]
    Exch10              =     1.352115690729 [Eh]
    Exch10 (S^2)        =     1.209681521581 [Eh]

    Iter     Energy [mEh]          dE [mEh]         Residual      Time [s]
       1    -306.95755931     306.957559309     172.020173240           270
       2    -331.79260984      24.835050530      60.514308034           495
       3    -365.08553201      33.292922169      11.933895258           753
       4    -365.11493135       0.029399348       3.373185607          1026
       5    -364.45170789      -0.663223461       0.933823539          1253
       6    -364.43235775      -0.019350148       0.287623878          1521
       7    -364.47764608       0.045288332       0.045609270          1779
       8    -364.47559214      -0.002053936       0.009232796          2040
       9    -364.47510393      -0.000488215       0.001377267          2294
      10    -364.47523171       0.000127786       0.000236818          2563
      11    -364.47522040      -0.000011314       0.000041512          2844
      12    -364.47521981      -0.000000591       0.000011894          3136
      13    -364.47522009       0.000000286       0.000003624          3409
      14    -364.47522025       0.000000160       0.000000841          3658

    CHF Iterations converged


    Iter     Energy [mEh]          dE [mEh]         Residual      Time [s]
       1    -406.37647412     406.376474121     161.939302839           307
       2    -410.54032767       4.163853545      58.392843371           604
       3    -450.68305826      40.142730599      13.757493008           891
       4    -452.31765971       1.634601450       5.026789625          1210
       5    -451.30254591      -1.015113801       2.086058083          1494
       6    -450.99933202      -0.303213893       0.980804024          1820
       7    -451.08293900       0.083606984       0.427995559          2144
       8    -451.17410299       0.091163990       0.211477397          2444
       9    -451.16580585      -0.008297145       0.113992605          2743
      10    -451.14218333      -0.023622521       0.065303744          3038
      11    -451.14787532       0.005691991       0.052697174          3308
      12    -451.15267395       0.004798627       0.031107427          3580
      13    -451.15151311      -0.001160834       0.013324326          3832
      14    -451.14997617      -0.001536947       0.005992579          4107
      15    -451.14994977      -0.000026393       0.002696742          4336
      16    -451.15017939       0.000229618       0.001145688          4609
      17    -451.15025543       0.000076042       0.000399081          4891
      18    -451.15021857      -0.000036869       0.000180223          5164
      19    -451.15021102      -0.000007541       0.000097745          5445
      20    -451.15021542       0.000004394       0.000048924          5776
      21    -451.15021860       0.000003186       0.000022778          6077
      22    -451.15021777      -0.000000836       0.000009360          6387
      23    -451.15021722      -0.000000549       0.000005029          6668
      24    -451.15021732       0.000000102       0.000002851          6941
      25    -451.15021748       0.000000162       0.000001643          7182
      26    -451.15021745      -0.000000030       0.000000825          7439

    CHF Iterations converged

    Ind20,r (A<-B)      =    -0.364475220253 [Eh]
    Ind20,r (B<-A)      =    -0.451150217454 [Eh]
    Ind20,r             =    -0.815625437707 [Eh]
    Exch-Ind20,r (A<-B) =     0.215492057348 [Eh]
    Exch-Ind20,r (B<-A) =     0.288603682515 [Eh]
    Exch-Ind20,r        =     0.504095739862 [Eh]
    Disp20              =    -0.175263151239 [Eh]
    Disp20 (SS)         =    -0.087631575620 [Eh]
    Disp20 (OS)         =    -0.087631575620 [Eh]
    Exch-Disp20         =     0.071723536889 [Eh]
    Exch-Disp20 (SS)    =     0.032404555380 [Eh]
    Exch-Disp20 (OS)    =     0.039318981509 [Eh]

    SAPT Results 
  --------------------------------------------------------------------------------------------------------
    Electrostatics               -599.03320703 [mEh]    -375.89901252 [kcal/mol]   -1572.76146837 [kJ/mol]
      Elst10,r                   -599.03320703 [mEh]    -375.89901252 [kcal/mol]   -1572.76146837 [kJ/mol]

    Exchange                     1352.11569073 [mEh]     848.46540558 [kcal/mol]    3549.97925693 [kJ/mol]
      Exch10                     1352.11569073 [mEh]     848.46540558 [kcal/mol]    3549.97925693 [kJ/mol]
      Exch10(S^2)                1209.68152158 [mEh]     759.08661505 [kcal/mol]    3176.01839735 [kJ/mol]

    Induction                      -8.67505996 [mEh]      -5.44368231 [kcal/mol]     -22.77636678 [kJ/mol]
      Ind20,r                    -815.62543771 [mEh]    -511.81268922 [kcal/mol]   -2141.42429168 [kJ/mol]
      Exch-Ind20,r                504.09573986 [mEh]     316.32485245 [kcal/mol]    1323.50318267 [kJ/mol]
      delta HF,r (2)              302.85463789 [mEh]     190.04415445 [kcal/mol]     795.14474223 [kJ/mol]

    Dispersion                   -103.53961435 [mEh]     -64.97208892 [kcal/mol]    -271.84322002 [kJ/mol]
      Disp20                     -175.26315124 [mEh]    -109.97928781 [kcal/mol]    -460.15334018 [kJ/mol]
      Exch-Disp20                  71.72353689 [mEh]      45.00719889 [kcal/mol]     188.31012016 [kJ/mol]
      Disp20 (SS)                 -87.63157562 [mEh]     -54.98964390 [kcal/mol]    -230.07667009 [kJ/mol]
      Disp20 (OS)                 -87.63157562 [mEh]     -54.98964390 [kcal/mol]    -230.07667009 [kJ/mol]
      Exch-Disp20 (SS)             32.40455538 [mEh]      20.33416549 [kcal/mol]      85.07814843 [kJ/mol]
      Exch-Disp20 (OS)             39.31898151 [mEh]      24.67303340 [kcal/mol]     103.23197173 [kJ/mol]

  Total HF                        744.40742374 [mEh]     467.12271075 [kcal/mol]    1954.44142178 [kJ/mol]
  Total SAPT0                     640.86780939 [mEh]     402.15062183 [kcal/mol]    1682.59820175 [kJ/mol]

  Special recipe for scaled SAPT0 (see Manual):
    Electrostatics sSAPT0        -599.03320703 [mEh]    -375.89901252 [kcal/mol]   -1572.76146837 [kJ/mol]
    Exchange sSAPT0              1352.11569073 [mEh]     848.46540558 [kcal/mol]    3549.97925693 [kJ/mol]
    Induction sSAPT0              191.17860342 [mEh]     119.96638483 [kcal/mol]     501.93935413 [kJ/mol]
    Dispersion sSAPT0             -75.10411993 [mEh]     -47.12854678 [kcal/mol]    -197.18583971 [kJ/mol]
  Total sSAPT0                    869.15696719 [mEh]     545.40423111 [kcal/mol]    2281.97130297 [kJ/mol]
  --------------------------------------------------------------------------------------------------------

*** tstop() called on n2cn0787 at Thu Jan 25 14:45:56 2024
Module time:
	user time   =   67242.73 seconds =    1120.71 minutes
	system time =    3192.68 seconds =      53.21 minutes
	total time  =      36746 seconds =     612.43 minutes
Total time:
	user time   =  116933.63 seconds =    1948.89 minutes
	system time =    5797.27 seconds =      96.62 minutes
	total time  =      58121 seconds =     968.68 minutes

    Psi4 stopped on: Thursday, 25 January 2024 02:45PM
    Psi4 wall time for execution: 16:08:42.50

*** Psi4 exiting successfully. Buy a developer a beer!
