
    -----------------------------------------------------------------------
          Psi4: An Open-Source Ab Initio Electronic Structure Package
                               Psi4 1.9 release

                         Git: Rev {} zzzzzzz 


    D. G. A. Smith, L. A. Burns, A. C. Simmonett, R. M. Parrish,
    M. C. Schieber, R. Galvelis, P. Kraus, H. Kruse, R. Di Remigio,
    A. Alenaizan, A. M. James, S. Lehtola, J. P. Misiewicz, M. Scheurer,
    R. A. Shaw, J. B. Schriber, Y. Xie, Z. L. Glick, D. A. Sirianni,
    J. S. O'Brien, J. M. Waldrop, A. Kumar, E. G. Hohenstein,
    B. P. Pritchard, B. R. Brooks, H. F. Schaefer III, A. Yu. Sokolov,
    K. Patkowski, A. E. DePrince III, U. Bozkaya, R. A. King,
    F. A. Evangelista, J. M. Turney, T. D. Crawford, C. D. Sherrill,
    J. Chem. Phys. 152(18) 184108 (2020). https://doi.org/10.1063/5.0006002

                            Additional Code Authors
    E. T. Seidl, C. L. Janssen, E. F. Valeev, M. L. Leininger,
    J. F. Gonthier, R. M. Richard, H. R. McAlexander, M. Saitow, X. Wang,
    P. Verma, M. H. Lechner, A. Jiang, S. Behnle, A. G. Heide,
    M. F. Herbst, and D. L. Poole

             Previous Authors, Complete List of Code Contributors,
                       and Citations for Specific Modules
    https://github.com/psi4/psi4/blob/master/codemeta.json
    https://github.com/psi4/psi4/graphs/contributors
    http://psicode.org/psi4manual/master/introduction.html#citing-psifour

    -----------------------------------------------------------------------


    Psi4 started on: Wednesday, 07 February 2024 04:07PM

    Process ID: 1442825
    Host:       n2cn0596
    PSIDATADIR: /opt/software/pc2/EB-SW/software/PSI4/1.9-foss-2022a/share/psi4
    Memory:     500.0 MiB
    Threads:    16
    
  ==> Input File <==

--------------------------------------------------------------------------
memory 48 GB # how much memory is available ! Depends on the nodes/cores !

molecule dimer {
# monomer A
-1 1    # Charge and multiplicity
B -0.000046  0.000337 3.099994
F -1.153597  0.000048 3.915641
F  1.153661 -0.000581 3.915641
F -0.000019 -1.153637 2.284360
F -0.000019  1.153978 2.284360
--
# monomer B
0 1     # Charge and multiplicity
C   1.22531237526482      0.70753866091955      0.00613762728373
C   1.22532433589282     -0.70753852257020     -0.00619318228664
C   -0.00000567409046      1.41496628609039     -0.00672680580738
C   2.45644923379077      1.41832825917820      0.00902448468363
C   0.00001130712078     -1.41497612663474      0.00347275151708
C   -1.22530046906674      0.70754574598412      0.00838914760619
C   2.45643823516184     -1.41832293188077     -0.00843833914343
C   -0.00000085313587      2.83680140328112     -0.00913035594137
C   3.68182717731192      0.70931832800114     -0.00808954934571
C   2.45512052870677      2.83422403348893     -0.00819210630633
C   3.68182158506039     -0.70933346742900      0.00798293467272
C   -1.22531311884624     -0.70752714354401     -0.00512042085974
C   1.22670006104402      3.54346985599427      0.00816696660346
C   0.00000526469929     -2.83678176723568      0.00832091913869
C   -2.45643555300670      1.41831729028492      0.00842454345199
C   2.45512389762097     -2.83422965658853      0.00783102630520
C   -1.22671388474763      3.54346943575023      0.00827029982280
C   4.91451777504333      1.42717324448953     -0.00160886631602
C   3.69315067131765      3.54279566454522     -0.00155906667985
C   -2.45643712022637     -1.41831290883911     -0.00846337726810
C   1.22670532178455     -3.54347386990643     -0.00780316414624
C   -2.45512491866593      2.83421703463423     -0.00818572995999
C   4.91452486062398     -1.42718653794377      0.00136387641845
C   1.22142509354026      4.97013443726031      0.00150231067809
C   4.89300870916237      2.82518837202648     -0.00039219795739
C   -1.22669652864725     -3.54347062507680     -0.00753595973677
C   -3.68181849668397      0.70932533873199     -0.00807686886569
C   3.69314758099218     -3.54280096939050      0.00148176697923
C   -1.22143177215231      4.97012866986289      0.00168580605083
C   6.13477145276790      0.68054831910577     -0.00083909176631
C   3.65678936045204      4.97295361556775     -0.00065042889723
C   -2.45512642789169     -2.83421472106065      0.00758666850712
C   -3.68181869921921     -0.70932533146830      0.00810055625144
C   4.89301309775526     -2.82519973363176      0.00021895393805
C   -0.00000059327114      5.65044773803267      0.00045449734393
C   6.13477559217374     -0.68055448207492      0.00042622874941
C   2.47813196269732      5.65357712333155      0.00063835075260
C   1.22142288457925     -4.97012668293268     -0.00129718634452
C   -3.69316190412301      3.54279732619245     -0.00139355922051
C   -1.22142804110313     -4.97011793159564     -0.00140994817719
C   -4.91452132810043      1.42717581899491     -0.00153192130862
C   3.65678749952045     -4.97295485423912      0.00080007163680
C   -2.47813805026426      5.65357479452875      0.00092287576113
C   -3.69314125872231     -3.54278984697859      0.00136564082345
C   -4.91451200321153     -1.42718062802730      0.00139857359209
C   -0.00000552908399     -5.65043791501335      0.00005899322272
C   -4.89302000425900      2.82518897091939     -0.00040227981744
C   2.47812647313991     -5.65357317188818     -0.00029052915548
C   -3.65679823041642      4.97295655404175     -0.00047374852278
C   -4.89299899901461     -2.82519139505969      0.00006491824035
C   -2.47812801824129     -5.65356579800621     -0.00056571680280
C   -6.13477002348955      0.68054913825639     -0.00086464346868
C   -3.65678835334731     -4.97294365097028      0.00058578382008
C   -6.13476456307132     -0.68055354348201      0.00040575295444
H   5.83528897565761      3.36927626695423      0.00396712770529
H   7.07385965258860      1.22821762089947     -0.00037744837300
H   4.60066374401555      5.51238117445323     -0.00014522814529
H   5.83528386714679     -3.36930568472863     -0.00423551337640
H   -0.00001167146422      6.73853104613662     -0.00389474766392
H   7.07386165167227     -1.22822657074368     -0.00008250934481
H   2.47331421164041      6.74068466339473      0.00017162982210
H   4.60066897122302     -5.51237575717576      0.00039007446835
H   -2.47331820069565      6.74068209160650      0.00047297644710
H   -0.00000978838621     -6.73852780445195      0.00458867820736
H   -5.83530143450167      3.36927132229595      0.00410314985360
H   2.47330840367253     -6.74068500242887      0.00027980126949
H   -4.60067436136587      5.51237839860371      0.00002010017831
H   -5.83527902699321     -3.36928859177951     -0.00451481925734
H   -2.47329986759855     -6.74067870613986     -0.00016951527498
H   -7.07385728692578      1.22822084484047     -0.00046143985387
H   -4.60067330624313     -5.51236229778631      0.00021776644566
H   -7.07385645456741     -1.22822025997701     -0.00017736581114

    units angstrom      # Angstroms are the default
    no_reorient         # Geometry fixed, default
    symmetry c1         # C1 symmetry, default
}

set {
    scf_type DF         # Density fitting, faster than exact integrals
    freeze_core True    # Freeze core electrons
    basis jun-cc-pVDZ   # Jun-cc-pVDZ basis set, recommended for sSAPT0 in https://doi.org/10.1063/1.4867135
}

energy('ssapt0')        # Compute sSAPT0 energy, includes also SAPT0
--------------------------------------------------------------------------

  Memory set to  44.703 GiB by Python driver.

Scratch directory: /tmp/
   => Loading Basis Set <=

    Name: JUN-CC-PVDZ
    Role: ORBITAL
    Keyword: BASIS
    atoms 1     entry B          line   130 file /opt/software/pc2/EB-SW/software/PSI4/1.9-foss-2022a/share/psi4/basis/jun-cc-pvdz.gbs 
    atoms 2-5   entry F          line   266 file /opt/software/pc2/EB-SW/software/PSI4/1.9-foss-2022a/share/psi4/basis/jun-cc-pvdz.gbs 
    atoms 6-59  entry C          line   164 file /opt/software/pc2/EB-SW/software/PSI4/1.9-foss-2022a/share/psi4/basis/jun-cc-pvdz.gbs 
    atoms 60-77 entry H          line    36 file /opt/software/pc2/EB-SW/software/PSI4/1.9-foss-2022a/share/psi4/basis/jun-cc-pvdz.gbs 

   => Loading Basis Set <=

    Name: JUN-CC-PVDZ
    Role: ORBITAL
    Keyword: BASIS
    atoms 1     entry B          line   130 file /opt/software/pc2/EB-SW/software/PSI4/1.9-foss-2022a/share/psi4/basis/jun-cc-pvdz.gbs 
    atoms 2-5   entry F          line   266 file /opt/software/pc2/EB-SW/software/PSI4/1.9-foss-2022a/share/psi4/basis/jun-cc-pvdz.gbs 
    atoms 6-59  entry C          line   164 file /opt/software/pc2/EB-SW/software/PSI4/1.9-foss-2022a/share/psi4/basis/jun-cc-pvdz.gbs 
    atoms 60-77 entry H          line    36 file /opt/software/pc2/EB-SW/software/PSI4/1.9-foss-2022a/share/psi4/basis/jun-cc-pvdz.gbs 


  //>>>>>>>>>>>>>>>>>>>>>>>>>>>>>>>>>>>//
  //              Dimer HF             //
  //<<<<<<<<<<<<<<<<<<<<<<<<<<<<<<<<<<<//

   => Libint2 <=

    Primary   basis highest AM E, G, H:  5, 4, 3
    Auxiliary basis highest AM E, G, H:  6, 5, 4
    Onebody   basis highest AM E, G, H:  6, 5, 4
    Solid Harmonics ordering:            gaussian

*** tstart() called on n2cn0596
*** at Wed Feb  7 16:07:11 2024

   => Loading Basis Set <=

    Name: JUN-CC-PVDZ
    Role: ORBITAL
    Keyword: BASIS
    atoms 1     entry B          line   130 file /opt/software/pc2/EB-SW/software/PSI4/1.9-foss-2022a/share/psi4/basis/jun-cc-pvdz.gbs 
    atoms 2-5   entry F          line   266 file /opt/software/pc2/EB-SW/software/PSI4/1.9-foss-2022a/share/psi4/basis/jun-cc-pvdz.gbs 
    atoms 6-59  entry C          line   164 file /opt/software/pc2/EB-SW/software/PSI4/1.9-foss-2022a/share/psi4/basis/jun-cc-pvdz.gbs 
    atoms 60-77 entry H          line    36 file /opt/software/pc2/EB-SW/software/PSI4/1.9-foss-2022a/share/psi4/basis/jun-cc-pvdz.gbs 


         ---------------------------------------------------------
                                   SCF
               by Justin Turney, Rob Parrish, Andy Simmonett
                          and Daniel G. A. Smith
                              RHF Reference
                       16 Threads,  45776 MiB Core
         ---------------------------------------------------------

  ==> Geometry <==

    Molecular point group: c1
    Full point group: C1

    Geometry (in Angstrom), charge = -1, multiplicity = 1:

       Center              X                  Y                   Z               Mass       
    ------------   -----------------  -----------------  -----------------  -----------------
         B           -0.000046449334     0.000336519434     2.741885295756    11.009305360000
         F           -1.153597449334     0.000047519434     3.557532295756    18.998403162730
         F            1.153660550666    -0.000581480566     3.557532295756    18.998403162730
         F           -0.000019449334    -1.153637480566     1.926251295756    18.998403162730
         F           -0.000019449334     1.153977519434     1.926251295756    18.998403162730
         C            1.225311925931     0.707538180353    -0.351971076960    12.000000000000
         C            1.225323886559    -0.707539003137    -0.364301886531    12.000000000000
         C           -0.000006123424     1.414965805524    -0.364835510051    12.000000000000
         C            2.456448784457     1.418327778612    -0.349084219560    12.000000000000
         C            0.000010857787    -1.414976607201    -0.354635952727    12.000000000000
         C           -1.225300918401     0.707545265418    -0.349719556638    12.000000000000
         C            2.456437785828    -1.418323412447    -0.366547043387    12.000000000000
         C           -0.000001302470     2.836800922715    -0.367239060185    12.000000000000
         C            3.681826727978     0.709317847435    -0.366198253590    12.000000000000
         C            2.455120079373     2.834223552923    -0.366300810550    12.000000000000
         C            3.681821135726    -0.709333947995    -0.350125769571    12.000000000000
         C           -1.225313568180    -0.707527624110    -0.363229125104    12.000000000000
         C            1.226699611710     3.543469375428    -0.349941737641    12.000000000000
         C            0.000004815365    -2.836782247802    -0.349787785105    12.000000000000
         C           -2.456436002341     1.418316809719    -0.349684160792    12.000000000000
         C            2.455123448287    -2.834230137155    -0.350277677939    12.000000000000
         C           -1.226714334082     3.543468955184    -0.349838404421    12.000000000000
         C            4.914517325709     1.427172763923    -0.359717570560    12.000000000000
         C            3.693150221984     3.542795183979    -0.359667770924    12.000000000000
         C           -2.456437569560    -1.418313389406    -0.366572081512    12.000000000000
         C            1.226704872451    -3.543474350473    -0.365911868390    12.000000000000
         C           -2.455125368000     2.834216554068    -0.366294434204    12.000000000000
         C            4.914524411290    -1.427187018510    -0.356744827826    12.000000000000
         C            1.221424644206     4.970133956694    -0.356606393566    12.000000000000
         C            4.893008259828     2.825187891460    -0.358500902201    12.000000000000
         C           -1.226696977981    -3.543471105643    -0.365644663981    12.000000000000
         C           -3.681818946018     0.709324858166    -0.366185573110    12.000000000000
         C            3.693147131658    -3.542801449957    -0.356626937265    12.000000000000
         C           -1.221432221486     4.970128189296    -0.356422898193    12.000000000000
         C            6.134771003434     0.680547838539    -0.358947796010    12.000000000000
         C            3.656788911118     4.972953135001    -0.358759133141    12.000000000000
         C           -2.455126877226    -2.834215201627    -0.350522035737    12.000000000000
         C           -3.681819148553    -0.709325812035    -0.350008147993    12.000000000000
         C            4.893012648421    -2.825200214198    -0.357889750306    12.000000000000
         C           -0.000001042605     5.650447257466    -0.357654206900    12.000000000000
         C            6.134775142840    -0.680554962641    -0.357682475495    12.000000000000
         C            2.478131513363     5.653576642765    -0.357470353491    12.000000000000
         C            1.221422435245    -4.970127163499    -0.359405890589    12.000000000000
         C           -3.693162353457     3.542796845626    -0.359502263465    12.000000000000
         C           -1.221428490437    -4.970118412162    -0.359518652421    12.000000000000
         C           -4.914521777434     1.427175338429    -0.359640625553    12.000000000000
         C            3.656787050187    -4.972955334806    -0.357308632607    12.000000000000
         C           -2.478138499598     5.653574313962    -0.357185828483    12.000000000000
         C           -3.693141708056    -3.542790327545    -0.356743063421    12.000000000000
         C           -4.914512452545    -1.427181108594    -0.356710130652    12.000000000000
         C           -0.000005978418    -5.650438395580    -0.358049711021    12.000000000000
         C           -4.893020453593     2.825188490353    -0.358510984061    12.000000000000
         C            2.478126023806    -5.653573652455    -0.358399233399    12.000000000000
         C           -3.656798679750     4.972956073475    -0.358582452767    12.000000000000
         C           -4.892999448349    -2.825191875626    -0.358043786004    12.000000000000
         C           -2.478128467575    -5.653566278573    -0.358674421047    12.000000000000
         C           -6.134770472823     0.680548657690    -0.358973347713    12.000000000000
         C           -3.656788802681    -4.972944131537    -0.357522920424    12.000000000000
         C           -6.134765012405    -0.680554024048    -0.357702951290    12.000000000000
         H            5.835288526324     3.369275786388    -0.354141576539     1.007825032230
         H            7.073859203255     1.228217140333    -0.358486152617     1.007825032230
         H            4.600663294682     5.512380693887    -0.358253932389     1.007825032230
         H            5.835283417813    -3.369306165295    -0.362344217620     1.007825032230
         H           -0.000012120798     6.738530565570    -0.362003451908     1.007825032230
         H            7.073861202338    -1.228227051310    -0.358191213589     1.007825032230
         H            2.473313762307     6.740684182828    -0.357937074422     1.007825032230
         H            4.600668521889    -5.512376237742    -0.357718629776     1.007825032230
         H           -2.473318650030     6.740681611040    -0.357635727797     1.007825032230
         H           -0.000010237720    -6.738528285018    -0.353520026037     1.007825032230
         H           -5.835301883836     3.369270841730    -0.354005554390     1.007825032230
         H            2.473307954339    -6.740685482995    -0.357828902975     1.007825032230
         H           -4.600674810700     5.512377918037    -0.358088604066     1.007825032230
         H           -5.835279476327    -3.369289072346    -0.362623523501     1.007825032230
         H           -2.473300316932    -6.740679186706    -0.358278219519     1.007825032230
         H           -7.073857736260     1.228220364274    -0.358570144098     1.007825032230
         H           -4.600673755577    -5.512362778353    -0.357890937798     1.007825032230
         H           -7.073856903901    -1.228220740543    -0.358286070055     1.007825032230

  Running in c1 symmetry.

  Rotational constants: A =      0.00200  B =      0.00200  C =      0.00110 [cm^-1]
  Rotational constants: A =     59.86822  B =     59.85966  C =     33.02250 [MHz]
  Nuclear repulsion = 8026.978544802929719

  Charge       = -1
  Multiplicity = 1
  Electrons    = 384
  Nalpha       = 192
  Nbeta        = 192

  ==> Algorithm <==

  SCF Algorithm Type is DF.
  DIIS enabled.
  MOM disabled.
  Fractional occupation disabled.
  Guess Type is SAD.
  Energy threshold   = 1.00e-08
  Density threshold  = 1.00e-08
  Integral threshold = 1.00e-12

  ==> Primary Basis <==

  Basis Set: JUN-CC-PVDZ
    Blend: JUN-CC-PVDZ
    Number of shells: 526
    Number of basis functions: 1152
    Number of Cartesian functions: 1211
    Spherical Harmonics?: true
    Max angular momentum: 2

   => Loading Basis Set <=

    Name: (JUN-CC-PVDZ AUX)
    Role: JKFIT
    Keyword: DF_BASIS_SCF
    atoms 1     entry B          line    90 file /opt/software/pc2/EB-SW/software/PSI4/1.9-foss-2022a/share/psi4/basis/jun-cc-pvdz-jkfit.gbs 
    atoms 2-5   entry F          line   314 file /opt/software/pc2/EB-SW/software/PSI4/1.9-foss-2022a/share/psi4/basis/jun-cc-pvdz-jkfit.gbs 
    atoms 6-59  entry C          line   146 file /opt/software/pc2/EB-SW/software/PSI4/1.9-foss-2022a/share/psi4/basis/jun-cc-pvdz-jkfit.gbs 
    atoms 60-77 entry H          line    70 file /opt/software/pc2/EB-SW/software/PSI4/1.9-foss-2022a/share/psi4/basis/jun-cc-pvdz-jkfit.gbs 

  ==> Integral Setup <==

  ==> DiskDFJK: Density-Fitted J/K Matrices <==

    J tasked:                  Yes
    K tasked:                  Yes
    wK tasked:                  No
    OpenMP threads:             16
    Integrals threads:          16
    Memory [MiB]:            34332
    Algorithm:                Core
    Integral Cache:           SAVE
    Schwarz Cutoff:          1E-12
    Fitting Condition:       1E-10

   => Auxiliary Basis Set <=

  Basis Set: (JUN-CC-PVDZ AUX)
    Blend: JUN-CC-PVDZ-JKFIT
    Number of shells: 1755
    Number of basis functions: 5075
    Number of Cartesian functions: 5819
    Spherical Harmonics?: true
    Max angular momentum: 3

  Minimum eigenvalue in the overlap matrix is 3.1839484212E-10.
  Reciprocal condition number of the overlap matrix is 1.3205507254E-11.
    Using canonical orthogonalization.
  Overall, 14 of 1152 possible MOs eliminated.


  ==> Pre-Iterations <==

  SCF Guess: Superposition of Atomic Densities via on-the-fly atomic UHF (no occupation information).

   -------------------------
    Irrep   Nso     Nmo    
   -------------------------
     A       1152    1138 
   -------------------------
    Total    1152    1138
   -------------------------

  ==> Iterations <==

                           Total Energy        Delta E     RMS |[F,P]|

   @DF-RHF iter SAD: -2483.73607612214255   -2.48374e+03   0.00000e+00 
   @DF-RHF iter   1: -2477.55259036599273    6.18349e+00   1.10903e-03 ADIIS/DIIS
   @DF-RHF iter   2: -2478.45171758446986   -8.99127e-01   5.02509e-04 ADIIS/DIIS
   @DF-RHF iter   3: -2478.60451437664642   -1.52797e-01   1.62592e-04 ADIIS/DIIS
   @DF-RHF iter   4: -2478.62265566595761   -1.81413e-02   7.91173e-05 DIIS
   @DF-RHF iter   5: -2478.62774972330726   -5.09406e-03   1.82399e-05 DIIS
   @DF-RHF iter   6: -2478.62808906538112   -3.39342e-04   5.43482e-06 DIIS
   @DF-RHF iter   7: -2478.62817356728601   -8.45019e-05   2.75907e-06 DIIS
   @DF-RHF iter   8: -2478.62819782677161   -2.42595e-05   1.23663e-06 DIIS
   @DF-RHF iter   9: -2478.62820524222525   -7.41545e-06   3.10973e-07 DIIS
   @DF-RHF iter  10: -2478.62820555635972   -3.14134e-07   1.12949e-07 DIIS
   @DF-RHF iter  11: -2478.62820558112935   -2.47696e-08   4.51653e-08 DIIS
   @DF-RHF iter  12: -2478.62820558622707   -5.09772e-09   2.20844e-08 DIIS
   @DF-RHF iter  13: -2478.62820558709927   -8.72205e-10   8.31816e-09 DIIS
  Energy and wave function converged.


  ==> Post-Iterations <==

    Orbital Energies [Eh]
    ---------------------

    Doubly Occupied:                                                      

       1A    -26.103715     2A    -26.103615     3A    -26.090355  
       4A    -26.090316     5A    -11.175057     6A    -11.175056  
       7A    -11.174986     8A    -11.174985     9A    -11.174901  
      10A    -11.174900    11A    -11.174872    12A    -11.174870  
      13A    -11.174718    14A    -11.174666    15A    -11.174645  
      16A    -11.174593    17A    -11.173557    18A    -11.173556  
      19A    -11.173418    20A    -11.173409    21A    -11.173402  
      22A    -11.173393    23A    -11.172200    24A    -11.172199  
      25A    -11.172068    26A    -11.172065    27A    -11.172053  
      28A    -11.172050    29A    -11.169893    30A    -11.169891  
      31A    -11.169148    32A    -11.169133    33A    -11.168969  
      34A    -11.168909    35A    -11.168817    36A    -11.168759  
      37A    -11.168164    38A    -11.168091    39A    -11.168057  
      40A    -11.168048    41A    -11.168042    42A    -11.167983  
      43A    -11.167957    44A    -11.167957    45A    -11.167716  
      46A    -11.167613    47A    -11.167389    48A    -11.167363  
      49A    -11.167323    50A    -11.167302    51A    -11.165395  
      52A    -11.165302    53A    -11.161968    54A    -11.161377  
      55A    -11.159273    56A    -11.159007    57A    -11.158117  
      58A    -11.157960    59A     -7.570129    60A     -1.446918  
      61A     -1.396357    62A     -1.384020    63A     -1.374354  
      64A     -1.151558    65A     -1.132040    66A     -1.131361  
      67A     -1.103766    68A     -1.103757    69A     -1.090000  
      70A     -1.073992    71A     -1.063717    72A     -1.046686  
      73A     -1.046114    74A     -1.029861    75A     -1.029711  
      76A     -0.995121    77A     -0.995094    78A     -0.990496  
      79A     -0.983059    80A     -0.983051    81A     -0.954622  
      82A     -0.935260    83A     -0.934712    84A     -0.932028  
      85A     -0.931860    86A     -0.930121    87A     -0.900378  
      88A     -0.900252    89A     -0.877699    90A     -0.877676  
      91A     -0.810991    92A     -0.810943    93A     -0.798948  
      94A     -0.796361    95A     -0.796294    96A     -0.794801  
      97A     -0.794750    98A     -0.778114    99A     -0.756692  
     100A     -0.734084   101A     -0.728746   102A     -0.725788  
     103A     -0.725698   104A     -0.712058   105A     -0.711865  
     106A     -0.659441   107A     -0.658345   108A     -0.649159  
     109A     -0.649131   110A     -0.648518   111A     -0.646385  
     112A     -0.637887   113A     -0.630534   114A     -0.615268  
     115A     -0.615123   116A     -0.608848   117A     -0.608819  
     118A     -0.578534   119A     -0.576135   120A     -0.568244  
     121A     -0.568046   122A     -0.567200   123A     -0.562401  
     124A     -0.562079   125A     -0.559030   126A     -0.556265  
     127A     -0.556137   128A     -0.543418   129A     -0.541928  
     130A     -0.541659   131A     -0.527420   132A     -0.522567  
     133A     -0.516293   134A     -0.516009   135A     -0.515180  
     136A     -0.508300   137A     -0.504886   138A     -0.502990  
     139A     -0.502757   140A     -0.489030   141A     -0.486562  
     142A     -0.486347   143A     -0.485195   144A     -0.485175  
     145A     -0.484007   146A     -0.480008   147A     -0.479302  
     148A     -0.471772   149A     -0.471261   150A     -0.471021  
     151A     -0.456145   152A     -0.455988   153A     -0.453424  
     154A     -0.452614   155A     -0.450139   156A     -0.445260  
     157A     -0.443711   158A     -0.442440   159A     -0.438351  
     160A     -0.438283   161A     -0.429381   162A     -0.418304  
     163A     -0.416518   164A     -0.413160   165A     -0.411347  
     166A     -0.410284   167A     -0.408454   168A     -0.403332  
     169A     -0.399050   170A     -0.396599   171A     -0.396589  
     172A     -0.378172   173A     -0.370123   174A     -0.362152  
     175A     -0.361901   176A     -0.356867   177A     -0.356629  
     178A     -0.316675   179A     -0.316536   180A     -0.307143  
     181A     -0.293840   182A     -0.293592   183A     -0.264629  
     184A     -0.245716   185A     -0.242885   186A     -0.232689  
     187A     -0.228407   188A     -0.216984   189A     -0.195997  
     190A     -0.194941   191A     -0.139757   192A     -0.135977  

    Virtual:                                                              

     193A      0.097781   194A      0.098651   195A      0.109282  
     196A      0.109362   197A      0.110486   198A      0.111689  
     199A      0.111757   200A      0.118438   201A      0.122619  
     202A      0.133573   203A      0.133665   204A      0.148317  
     205A      0.148321   206A      0.150963   207A      0.152043  
     208A      0.152531   209A      0.155998   210A      0.157412  
     211A      0.157539   212A      0.159007   213A      0.159190  
     214A      0.161710   215A      0.162330   216A      0.166029  
     217A      0.166968   218A      0.168151   219A      0.169420  
     220A      0.170748   221A      0.179223   222A      0.179303  
     223A      0.180479   224A      0.185300   225A      0.189498  
     226A      0.190221   227A      0.192476   228A      0.192505  
     229A      0.193755   230A      0.194302   231A      0.198491  
     232A      0.200679   233A      0.201225   234A      0.203008  
     235A      0.206021   236A      0.206426   237A      0.208100  
     238A      0.215559   239A      0.215625   240A      0.218261  
     241A      0.220107   242A      0.221531   243A      0.221603  
     244A      0.224844   245A      0.224961   246A      0.230789  
     247A      0.237096   248A      0.242512   249A      0.242716  
     250A      0.245988   251A      0.253269   252A      0.253355  
     253A      0.253522   254A      0.256585   255A      0.256603  
     256A      0.259297   257A      0.263594   258A      0.263929  
     259A      0.266453   260A      0.266977   261A      0.268335  
     262A      0.269682   263A      0.269718   264A      0.273532  
     265A      0.274583   266A      0.274909   267A      0.275782  
     268A      0.277084   269A      0.277128   270A      0.279072  
     271A      0.279848   272A      0.280697   273A      0.281397  
     274A      0.281940   275A      0.284765   276A      0.292300  
     277A      0.293578   278A      0.293870   279A      0.294400  
     280A      0.295139   281A      0.296085   282A      0.298695  
     283A      0.299880   284A      0.303400   285A      0.306658  
     286A      0.307317   287A      0.308522   288A      0.311166  
     289A      0.311671   290A      0.314261   291A      0.315200  
     292A      0.321810   293A      0.321955   294A      0.325378  
     295A      0.325403   296A      0.327297   297A      0.328381  
     298A      0.332734   299A      0.335490   300A      0.335989  
     301A      0.340786   302A      0.343516   303A      0.344403  
     304A      0.345662   305A      0.347073   306A      0.347336  
     307A      0.353155   308A      0.357330   309A      0.358311  
     310A      0.361298   311A      0.363672   312A      0.364605  
     313A      0.365581   314A      0.366916   315A      0.367394  
     316A      0.367910   317A      0.368191   318A      0.371644  
     319A      0.374139   320A      0.374735   321A      0.376074  
     322A      0.380157   323A      0.380871   324A      0.381262  
     325A      0.383839   326A      0.384049   327A      0.385860  
     328A      0.387073   329A      0.387229   330A      0.387337  
     331A      0.391393   332A      0.393228   333A      0.393842  
     334A      0.394937   335A      0.395513   336A      0.399843  
     337A      0.401990   338A      0.404360   339A      0.404751  
     340A      0.406827   341A      0.410537   342A      0.412360  
     343A      0.413947   344A      0.414580   345A      0.415668  
     346A      0.416471   347A      0.422932   348A      0.424085  
     349A      0.425368   350A      0.425691   351A      0.426036  
     352A      0.428194   353A      0.433969   354A      0.439507  
     355A      0.440923   356A      0.446876   357A      0.448077  
     358A      0.448308   359A      0.449846   360A      0.450447  
     361A      0.457977   362A      0.458244   363A      0.461478  
     364A      0.462315   365A      0.464344   366A      0.465317  
     367A      0.465452   368A      0.465472   369A      0.466374  
     370A      0.466955   371A      0.469263   372A      0.469956  
     373A      0.470257   374A      0.475355   375A      0.475640  
     376A      0.476962   377A      0.477509   378A      0.480372  
     379A      0.480959   380A      0.481005   381A      0.482438  
     382A      0.482599   383A      0.487594   384A      0.490616  
     385A      0.494873   386A      0.496445   387A      0.497309  
     388A      0.498680   389A      0.499084   390A      0.500480  
     391A      0.500833   392A      0.502349   393A      0.503940  
     394A      0.508820   395A      0.508951   396A      0.509819  
     397A      0.513230   398A      0.514369   399A      0.516045  
     400A      0.516366   401A      0.516778   402A      0.520376  
     403A      0.520579   404A      0.524628   405A      0.526439  
     406A      0.527236   407A      0.528417   408A      0.530051  
     409A      0.530466   410A      0.531406   411A      0.531870  
     412A      0.533268   413A      0.537094   414A      0.541415  
     415A      0.542064   416A      0.543106   417A      0.544466  
     418A      0.547602   419A      0.549817   420A      0.551943  
     421A      0.552666   422A      0.553703   423A      0.555516  
     424A      0.556477   425A      0.557994   426A      0.560391  
     427A      0.561101   428A      0.564903   429A      0.568208  
     430A      0.569549   431A      0.573574   432A      0.573974  
     433A      0.574648   434A      0.575706   435A      0.577011  
     436A      0.578092   437A      0.582920   438A      0.585707  
     439A      0.586102   440A      0.587106   441A      0.591723  
     442A      0.593613   443A      0.596012   444A      0.597335  
     445A      0.598998   446A      0.602843   447A      0.608742  
     448A      0.610220   449A      0.612976   450A      0.614539  
     451A      0.621612   452A      0.622813   453A      0.624058  
     454A      0.624955   455A      0.626334   456A      0.627755  
     457A      0.628961   458A      0.630714   459A      0.631130  
     460A      0.631514   461A      0.634911   462A      0.636227  
     463A      0.638645   464A      0.641537   465A      0.642305  
     466A      0.646448   467A      0.649179   468A      0.652469  
     469A      0.655505   470A      0.663332   471A      0.664379  
     472A      0.669173   473A      0.671189   474A      0.675684  
     475A      0.677676   476A      0.684544   477A      0.685234  
     478A      0.687310   479A      0.690924   480A      0.699008  
     481A      0.702248   482A      0.708279   483A      0.709408  
     484A      0.711327   485A      0.714064   486A      0.723780  
     487A      0.726155   488A      0.730532   489A      0.735729  
     490A      0.738680   491A      0.742593   492A      0.745672  
     493A      0.748648   494A      0.750368   495A      0.753359  
     496A      0.754192   497A      0.761226   498A      0.761773  
     499A      0.769618   500A      0.793010   501A      0.800689  
     502A      0.800730   503A      0.813468   504A      0.818075  
     505A      0.818467   506A      0.823978   507A      0.826043  
     508A      0.828465   509A      0.830036   510A      0.834967  
     511A      0.839717   512A      0.840122   513A      0.843249  
     514A      0.852734   515A      0.858430   516A      0.872972  
     517A      0.875188   518A      0.877660   519A      0.882455  
     520A      0.895110   521A      0.898120   522A      0.900679  
     523A      0.901428   524A      0.903420   525A      0.904106  
     526A      0.904293   527A      0.908455   528A      0.910387  
     529A      0.910800   530A      0.911181   531A      0.918093  
     532A      0.927384   533A      0.931958   534A      0.935864  
     535A      0.939365   536A      0.944041   537A      0.944796  
     538A      0.948608   539A      0.949506   540A      0.956919  
     541A      0.957514   542A      0.962317   543A      0.969240  
     544A      0.969363   545A      0.974878   546A      0.976803  
     547A      0.980264   548A      0.980995   549A      0.981223  
     550A      0.983536   551A      0.985983   552A      0.988604  
     553A      0.991568   554A      0.992707   555A      0.994998  
     556A      0.995100   557A      1.000050   558A      1.001568  
     559A      1.001735   560A      1.004758   561A      1.004948  
     562A      1.013718   563A      1.015974   564A      1.019347  
     565A      1.020217   566A      1.021140   567A      1.021768  
     568A      1.024884   569A      1.026523   570A      1.027046  
     571A      1.028944   572A      1.030918   573A      1.038040  
     574A      1.041818   575A      1.049490   576A      1.051493  
     577A      1.051903   578A      1.055490   579A      1.058801  
     580A      1.061720   581A      1.065105   582A      1.072404  
     583A      1.072834   584A      1.075748   585A      1.077361  
     586A      1.080490   587A      1.083711   588A      1.083913  
     589A      1.094616   590A      1.095110   591A      1.097529  
     592A      1.099479   593A      1.103161   594A      1.106095  
     595A      1.107862   596A      1.112270   597A      1.118163  
     598A      1.118961   599A      1.119397   600A      1.121477  
     601A      1.123701   602A      1.124006   603A      1.127409  
     604A      1.129673   605A      1.130406   606A      1.136049  
     607A      1.136367   608A      1.137560   609A      1.138487  
     610A      1.139000   611A      1.139967   612A      1.143529  
     613A      1.144794   614A      1.146465   615A      1.153283  
     616A      1.154769   617A      1.157540   618A      1.160087  
     619A      1.163725   620A      1.166764   621A      1.167022  
     622A      1.175272   623A      1.176794   624A      1.178935  
     625A      1.179122   626A      1.181629   627A      1.182211  
     628A      1.183577   629A      1.185105   630A      1.186112  
     631A      1.191597   632A      1.194743   633A      1.196825  
     634A      1.199831   635A      1.200552   636A      1.203642  
     637A      1.210042   638A      1.211711   639A      1.216127  
     640A      1.218527   641A      1.222495   642A      1.226336  
     643A      1.226654   644A      1.230357   645A      1.232935  
     646A      1.234175   647A      1.237760   648A      1.239572  
     649A      1.243114   650A      1.243886   651A      1.246442  
     652A      1.250024   653A      1.252706   654A      1.261702  
     655A      1.266808   656A      1.270164   657A      1.272820  
     658A      1.276091   659A      1.278540   660A      1.279344  
     661A      1.283020   662A      1.284035   663A      1.288885  
     664A      1.291445   665A      1.291912   666A      1.296171  
     667A      1.299747   668A      1.305827   669A      1.305936  
     670A      1.306849   671A      1.307592   672A      1.307718  
     673A      1.309857   674A      1.319798   675A      1.320610  
     676A      1.321391   677A      1.339013   678A      1.341485  
     679A      1.343571   680A      1.343693   681A      1.345396  
     682A      1.346838   683A      1.349437   684A      1.349702  
     685A      1.358817   686A      1.360660   687A      1.366266  
     688A      1.370664   689A      1.371305   690A      1.378634  
     691A      1.380764   692A      1.381879   693A      1.383246  
     694A      1.389731   695A      1.392051   696A      1.396012  
     697A      1.398255   698A      1.401357   699A      1.406480  
     700A      1.408567   701A      1.408815   702A      1.412469  
     703A      1.414653   704A      1.416031   705A      1.420693  
     706A      1.424402   707A      1.435387   708A      1.435537  
     709A      1.438730   710A      1.438865   711A      1.441565  
     712A      1.442472   713A      1.443040   714A      1.443666  
     715A      1.444043   716A      1.451210   717A      1.451446  
     718A      1.460099   719A      1.462648   720A      1.469897  
     721A      1.473253   722A      1.482977   723A      1.486679  
     724A      1.488697   725A      1.494809   726A      1.496229  
     727A      1.496309   728A      1.496710   729A      1.496898  
     730A      1.507652   731A      1.509812   732A      1.517512  
     733A      1.517984   734A      1.518284   735A      1.519273  
     736A      1.521571   737A      1.525190   738A      1.525575  
     739A      1.527485   740A      1.531748   741A      1.533542  
     742A      1.534532   743A      1.535977   744A      1.555174  
     745A      1.558911   746A      1.559341   747A      1.563489  
     748A      1.568196   749A      1.593898   750A      1.598160  
     751A      1.600175   752A      1.602927   753A      1.614350  
     754A      1.638884   755A      1.648031   756A      1.663513  
     757A      1.677566   758A      1.684512   759A      1.687902  
     760A      1.693877   761A      1.696250   762A      1.699408  
     763A      1.701403   764A      1.702450   765A      1.708162  
     766A      1.713234   767A      1.719216   768A      1.719575  
     769A      1.724495   770A      1.726294   771A      1.729178  
     772A      1.730261   773A      1.731057   774A      1.740384  
     775A      1.744446   776A      1.747960   777A      1.748165  
     778A      1.748661   779A      1.751766   780A      1.756729  
     781A      1.760535   782A      1.760609   783A      1.763893  
     784A      1.766532   785A      1.767666   786A      1.771070  
     787A      1.773885   788A      1.775313   789A      1.780304  
     790A      1.782750   791A      1.783840   792A      1.784452  
     793A      1.787113   794A      1.792857   795A      1.795299  
     796A      1.800611   797A      1.801707   798A      1.812114  
     799A      1.826835   800A      1.838566   801A      1.840841  
     802A      1.843788   803A      1.845817   804A      1.847225  
     805A      1.862332   806A      1.865007   807A      1.875987  
     808A      1.877892   809A      1.900272   810A      1.900484  
     811A      1.903035   812A      1.911350   813A      1.913417  
     814A      1.913551   815A      1.924648   816A      1.925004  
     817A      1.929651   818A      1.929790   819A      1.935117  
     820A      1.941115   821A      1.941640   822A      1.944370  
     823A      1.950750   824A      1.953056   825A      1.956991  
     826A      1.959806   827A      1.966886   828A      1.967034  
     829A      1.979168   830A      1.982445   831A      1.984648  
     832A      1.986373   833A      1.987389   834A      1.989299  
     835A      1.995279   836A      1.995945   837A      2.001884  
     838A      2.002079   839A      2.003796   840A      2.003926  
     841A      2.007462   842A      2.008130   843A      2.008357  
     844A      2.017545   845A      2.020843   846A      2.023645  
     847A      2.024996   848A      2.026631   849A      2.026695  
     850A      2.040989   851A      2.042789   852A      2.043168  
     853A      2.043569   854A      2.044774   855A      2.049231  
     856A      2.056728   857A      2.066365   858A      2.072701  
     859A      2.078007   860A      2.080706   861A      2.081503  
     862A      2.081935   863A      2.083903   864A      2.089996  
     865A      2.090671   866A      2.098189   867A      2.099216  
     868A      2.100716   869A      2.108589   870A      2.115000  
     871A      2.115729   872A      2.117861   873A      2.118747  
     874A      2.123199   875A      2.125593   876A      2.129402  
     877A      2.130048   878A      2.137539   879A      2.139438  
     880A      2.144676   881A      2.145776   882A      2.147532  
     883A      2.149590   884A      2.157179   885A      2.160156  
     886A      2.161249   887A      2.166468   888A      2.167358  
     889A      2.170430   890A      2.175805   891A      2.176356  
     892A      2.178542   893A      2.182226   894A      2.182365  
     895A      2.184046   896A      2.185951   897A      2.186429  
     898A      2.190322   899A      2.191700   900A      2.193702  
     901A      2.195059   902A      2.198520   903A      2.200601  
     904A      2.201334   905A      2.204461   906A      2.207539  
     907A      2.208717   908A      2.209371   909A      2.210790  
     910A      2.215153   911A      2.215699   912A      2.217620  
     913A      2.218760   914A      2.219441   915A      2.225483  
     916A      2.226403   917A      2.226912   918A      2.235115  
     919A      2.236732   920A      2.248429   921A      2.250770  
     922A      2.255943   923A      2.257831   924A      2.259169  
     925A      2.261352   926A      2.261800   927A      2.271257  
     928A      2.273229   929A      2.274630   930A      2.279000  
     931A      2.280777   932A      2.281295   933A      2.290084  
     934A      2.293131   935A      2.294103   936A      2.304249  
     937A      2.307490   938A      2.307696   939A      2.309768  
     940A      2.316642   941A      2.321372   942A      2.325873  
     943A      2.326123   944A      2.327124   945A      2.327945  
     946A      2.328712   947A      2.334800   948A      2.340566  
     949A      2.341097   950A      2.348752   951A      2.351432  
     952A      2.353927   953A      2.354729   954A      2.355468  
     955A      2.359829   956A      2.360961   957A      2.384977  
     958A      2.391813   959A      2.395976   960A      2.402541  
     961A      2.404694   962A      2.414809   963A      2.423635  
     964A      2.424552   965A      2.431966   966A      2.433961  
     967A      2.438837   968A      2.439414   969A      2.442287  
     970A      2.443123   971A      2.457188   972A      2.459317  
     973A      2.466258   974A      2.486844   975A      2.490856  
     976A      2.498556   977A      2.509799   978A      2.510235  
     979A      2.511402   980A      2.518453   981A      2.519034  
     982A      2.529436   983A      2.551138   984A      2.556725  
     985A      2.559053   986A      2.572109   987A      2.572943  
     988A      2.581908   989A      2.596744   990A      2.599528  
     991A      2.611703   992A      2.617551   993A      2.626964  
     994A      2.630832   995A      2.634076   996A      2.634697  
     997A      2.635019   998A      2.637335   999A      2.644639  
    1000A      2.645534  1001A      2.650283  1002A      2.656793  
    1003A      2.658488  1004A      2.658579  1005A      2.661279  
    1006A      2.670252  1007A      2.674687  1008A      2.677402  
    1009A      2.678184  1010A      2.681557  1011A      2.692001  
    1012A      2.707271  1013A      2.715753  1014A      2.721207  
    1015A      2.721420  1016A      2.724770  1017A      2.725122  
    1018A      2.726654  1019A      2.735664  1020A      2.742670  
    1021A      2.747345  1022A      2.768170  1023A      2.771474  
    1024A      2.775621  1025A      2.778906  1026A      2.799815  
    1027A      2.800651  1028A      2.801148  1029A      2.801690  
    1030A      2.806127  1031A      2.808775  1032A      2.812285  
    1033A      2.818818  1034A      2.838521  1035A      2.840787  
    1036A      2.855917  1037A      2.866754  1038A      2.886826  
    1039A      2.886916  1040A      2.914983  1041A      2.919262  
    1042A      2.919697  1043A      2.940048  1044A      2.945947  
    1045A      2.946084  1046A      2.947874  1047A      2.950021  
    1048A      2.959874  1049A      2.979752  1050A      3.000728  
    1051A      3.001344  1052A      3.009815  1053A      3.017734  
    1054A      3.021753  1055A      3.032438  1056A      3.045641  
    1057A      3.046685  1058A      3.069110  1059A      3.094669  
    1060A      3.101567  1061A      3.106891  1062A      3.131463  
    1063A      3.153928  1064A      3.154199  1065A      3.160189  
    1066A      3.162962  1067A      3.201416  1068A      3.203412  
    1069A      3.214345  1070A      3.216836  1071A      3.218571  
    1072A      3.225938  1073A      3.228763  1074A      3.231411  
    1075A      3.231565  1076A      3.232246  1077A      3.233790  
    1078A      3.246212  1079A      3.247695  1080A      3.250483  
    1081A      3.251169  1082A      3.273328  1083A      3.292068  
    1084A      3.298441  1085A      3.315330  1086A      3.334706  
    1087A      3.362858  1088A      3.363648  1089A      3.371020  
    1090A      3.378895  1091A      3.379791  1092A      3.399226  
    1093A      3.473665  1094A      3.508482  1095A      3.516932  
    1096A      3.577631  1097A      3.584431  1098A      3.645938  
    1099A      3.656355  1100A      3.678256  1101A      3.711951  
    1102A      3.713792  1103A      3.722020  1104A      3.732059  
    1105A      3.755740  1106A      3.779414  1107A      3.875717  
    1108A      3.880565  1109A      3.906051  1110A      3.954801  
    1111A      3.955093  1112A      3.998411  1113A      3.999518  
    1114A      4.070106  1115A      4.092071  1116A      4.103933  
    1117A      4.130570  1118A      4.156763  1119A      4.160276  
    1120A      4.187295  1121A      4.190911  1122A      4.192873  
    1123A      4.220112  1124A      4.240847  1125A      4.242888  
    1126A      4.276522  1127A      4.277950  1128A      4.297561  
    1129A      4.362145  1130A      4.443832  1131A      4.466117  
    1132A      4.538448  1133A      4.641715  1134A      4.654451  
    1135A      4.656784  1136A      4.731261  1137A      4.766506  
    1138A      4.770076  

    Final Occupation by Irrep:
              A 
    DOCC [   192 ]
    NA   [   192 ]
    NB   [   192 ]

  @DF-RHF Final Energy: -2478.62820558709927

   => Energetics <=

    Nuclear Repulsion Energy =           8026.9785448029297186
    One-Electron Energy =              -19413.3573917659959989
    Two-Electron Energy =                8907.7506413759674615
    Total Energy =                      -2478.6282055870997283

Computation Completed


Properties will be evaluated at   0.000000,   0.000000,   0.000000 [a0]

Properties computed using the SCF density matrix


 Multipole Moments:

 ------------------------------------------------------------------------------------
     Multipole            Electronic (a.u.)      Nuclear  (a.u.)        Total (a.u.)
 ------------------------------------------------------------------------------------

 L = 1.  Multiply by 2.5417464519 to convert [e a0] to [Debye]
 Dipole X            :         -0.0001869           -0.0000160           -0.0002029
 Dipole Y            :         -0.0004665           -0.0001716           -0.0006381
 Dipole Z            :         15.4537829          -19.0038594           -3.5500765
 Magnitude           :                                                    3.5500766

 ------------------------------------------------------------------------------------

*** tstop() called on n2cn0596 at Wed Feb  7 16:13:39 2024
Module time:
	user time   =    4805.17 seconds =      80.09 minutes
	system time =     160.04 seconds =       2.67 minutes
	total time  =        388 seconds =       6.47 minutes
Total time:
	user time   =    4805.17 seconds =      80.09 minutes
	system time =     160.04 seconds =       2.67 minutes
	total time  =        388 seconds =       6.47 minutes

  //>>>>>>>>>>>>>>>>>>>>>>>>>>>>>>>>>>>//
  //            Monomer A HF           //
  //<<<<<<<<<<<<<<<<<<<<<<<<<<<<<<<<<<<//

   => Libint2 <=

    Primary   basis highest AM E, G, H:  5, 4, 3
    Auxiliary basis highest AM E, G, H:  6, 5, 4
    Onebody   basis highest AM E, G, H:  6, 5, 4
    Solid Harmonics ordering:            gaussian

*** tstart() called on n2cn0596
*** at Wed Feb  7 16:13:39 2024

   => Loading Basis Set <=

    Name: JUN-CC-PVDZ
    Role: ORBITAL
    Keyword: BASIS
    atoms 1     entry B          line   130 file /opt/software/pc2/EB-SW/software/PSI4/1.9-foss-2022a/share/psi4/basis/jun-cc-pvdz.gbs 
    atoms 2-5   entry F          line   266 file /opt/software/pc2/EB-SW/software/PSI4/1.9-foss-2022a/share/psi4/basis/jun-cc-pvdz.gbs 
    atoms 6-59  entry C          line   164 file /opt/software/pc2/EB-SW/software/PSI4/1.9-foss-2022a/share/psi4/basis/jun-cc-pvdz.gbs 
    atoms 60-77 entry H          line    36 file /opt/software/pc2/EB-SW/software/PSI4/1.9-foss-2022a/share/psi4/basis/jun-cc-pvdz.gbs 


         ---------------------------------------------------------
                                   SCF
               by Justin Turney, Rob Parrish, Andy Simmonett
                          and Daniel G. A. Smith
                              RHF Reference
                       16 Threads,  45776 MiB Core
         ---------------------------------------------------------

  ==> Geometry <==

    Molecular point group: c1
    Full point group: C1

    Geometry (in Angstrom), charge = -1, multiplicity = 1:

       Center              X                  Y                   Z               Mass       
    ------------   -----------------  -----------------  -----------------  -----------------
         B           -0.000046449334     0.000336519434     2.741885295756    11.009305360000
         F           -1.153597449334     0.000047519434     3.557532295756    18.998403162730
         F            1.153660550666    -0.000581480566     3.557532295756    18.998403162730
         F           -0.000019449334    -1.153637480566     1.926251295756    18.998403162730
         F           -0.000019449334     1.153977519434     1.926251295756    18.998403162730
      Gh(C)           1.225311925931     0.707538180353    -0.351971076960    12.000000000000
      Gh(C)           1.225323886559    -0.707539003137    -0.364301886531    12.000000000000
      Gh(C)          -0.000006123424     1.414965805524    -0.364835510051    12.000000000000
      Gh(C)           2.456448784457     1.418327778612    -0.349084219560    12.000000000000
      Gh(C)           0.000010857787    -1.414976607201    -0.354635952727    12.000000000000
      Gh(C)          -1.225300918401     0.707545265418    -0.349719556638    12.000000000000
      Gh(C)           2.456437785828    -1.418323412447    -0.366547043387    12.000000000000
      Gh(C)          -0.000001302470     2.836800922715    -0.367239060185    12.000000000000
      Gh(C)           3.681826727978     0.709317847435    -0.366198253590    12.000000000000
      Gh(C)           2.455120079373     2.834223552923    -0.366300810550    12.000000000000
      Gh(C)           3.681821135726    -0.709333947995    -0.350125769571    12.000000000000
      Gh(C)          -1.225313568180    -0.707527624110    -0.363229125104    12.000000000000
      Gh(C)           1.226699611710     3.543469375428    -0.349941737641    12.000000000000
      Gh(C)           0.000004815365    -2.836782247802    -0.349787785105    12.000000000000
      Gh(C)          -2.456436002341     1.418316809719    -0.349684160792    12.000000000000
      Gh(C)           2.455123448287    -2.834230137155    -0.350277677939    12.000000000000
      Gh(C)          -1.226714334082     3.543468955184    -0.349838404421    12.000000000000
      Gh(C)           4.914517325709     1.427172763923    -0.359717570560    12.000000000000
      Gh(C)           3.693150221984     3.542795183979    -0.359667770924    12.000000000000
      Gh(C)          -2.456437569560    -1.418313389406    -0.366572081512    12.000000000000
      Gh(C)           1.226704872451    -3.543474350473    -0.365911868390    12.000000000000
      Gh(C)          -2.455125368000     2.834216554068    -0.366294434204    12.000000000000
      Gh(C)           4.914524411290    -1.427187018510    -0.356744827826    12.000000000000
      Gh(C)           1.221424644206     4.970133956694    -0.356606393566    12.000000000000
      Gh(C)           4.893008259828     2.825187891460    -0.358500902201    12.000000000000
      Gh(C)          -1.226696977981    -3.543471105643    -0.365644663981    12.000000000000
      Gh(C)          -3.681818946018     0.709324858166    -0.366185573110    12.000000000000
      Gh(C)           3.693147131658    -3.542801449957    -0.356626937265    12.000000000000
      Gh(C)          -1.221432221486     4.970128189296    -0.356422898193    12.000000000000
      Gh(C)           6.134771003434     0.680547838539    -0.358947796010    12.000000000000
      Gh(C)           3.656788911118     4.972953135001    -0.358759133141    12.000000000000
      Gh(C)          -2.455126877226    -2.834215201627    -0.350522035737    12.000000000000
      Gh(C)          -3.681819148553    -0.709325812035    -0.350008147993    12.000000000000
      Gh(C)           4.893012648421    -2.825200214198    -0.357889750306    12.000000000000
      Gh(C)          -0.000001042605     5.650447257466    -0.357654206900    12.000000000000
      Gh(C)           6.134775142840    -0.680554962641    -0.357682475495    12.000000000000
      Gh(C)           2.478131513363     5.653576642765    -0.357470353491    12.000000000000
      Gh(C)           1.221422435245    -4.970127163499    -0.359405890589    12.000000000000
      Gh(C)          -3.693162353457     3.542796845626    -0.359502263465    12.000000000000
      Gh(C)          -1.221428490437    -4.970118412162    -0.359518652421    12.000000000000
      Gh(C)          -4.914521777434     1.427175338429    -0.359640625553    12.000000000000
      Gh(C)           3.656787050187    -4.972955334806    -0.357308632607    12.000000000000
      Gh(C)          -2.478138499598     5.653574313962    -0.357185828483    12.000000000000
      Gh(C)          -3.693141708056    -3.542790327545    -0.356743063421    12.000000000000
      Gh(C)          -4.914512452545    -1.427181108594    -0.356710130652    12.000000000000
      Gh(C)          -0.000005978418    -5.650438395580    -0.358049711021    12.000000000000
      Gh(C)          -4.893020453593     2.825188490353    -0.358510984061    12.000000000000
      Gh(C)           2.478126023806    -5.653573652455    -0.358399233399    12.000000000000
      Gh(C)          -3.656798679750     4.972956073475    -0.358582452767    12.000000000000
      Gh(C)          -4.892999448349    -2.825191875626    -0.358043786004    12.000000000000
      Gh(C)          -2.478128467575    -5.653566278573    -0.358674421047    12.000000000000
      Gh(C)          -6.134770472823     0.680548657690    -0.358973347713    12.000000000000
      Gh(C)          -3.656788802681    -4.972944131537    -0.357522920424    12.000000000000
      Gh(C)          -6.134765012405    -0.680554024048    -0.357702951290    12.000000000000
      Gh(H)           5.835288526324     3.369275786388    -0.354141576539     1.007825032230
      Gh(H)           7.073859203255     1.228217140333    -0.358486152617     1.007825032230
      Gh(H)           4.600663294682     5.512380693887    -0.358253932389     1.007825032230
      Gh(H)           5.835283417813    -3.369306165295    -0.362344217620     1.007825032230
      Gh(H)          -0.000012120798     6.738530565570    -0.362003451908     1.007825032230
      Gh(H)           7.073861202338    -1.228227051310    -0.358191213589     1.007825032230
      Gh(H)           2.473313762307     6.740684182828    -0.357937074422     1.007825032230
      Gh(H)           4.600668521889    -5.512376237742    -0.357718629776     1.007825032230
      Gh(H)          -2.473318650030     6.740681611040    -0.357635727797     1.007825032230
      Gh(H)          -0.000010237720    -6.738528285018    -0.353520026037     1.007825032230
      Gh(H)          -5.835301883836     3.369270841730    -0.354005554390     1.007825032230
      Gh(H)           2.473307954339    -6.740685482995    -0.357828902975     1.007825032230
      Gh(H)          -4.600674810700     5.512377918037    -0.358088604066     1.007825032230
      Gh(H)          -5.835279476327    -3.369289072346    -0.362623523501     1.007825032230
      Gh(H)          -2.473300316932    -6.740679186706    -0.358278219519     1.007825032230
      Gh(H)          -7.073857736260     1.228220364274    -0.358570144098     1.007825032230
      Gh(H)          -4.600673755577    -5.512362778353    -0.357890937798     1.007825032230
      Gh(H)          -7.073856903901    -1.228220740543    -0.358286070055     1.007825032230

  Running in c1 symmetry.

  Rotational constants: A =      0.00200  B =      0.00200  C =      0.00110 [cm^-1]
  Rotational constants: A =     59.86822  B =     59.85966  C =     33.02250 [MHz]
  Nuclear repulsion =  178.879482610381331

  Charge       = -1
  Multiplicity = 1
  Electrons    = 42
  Nalpha       = 21
  Nbeta        = 21

  ==> Algorithm <==

  SCF Algorithm Type is DF.
  DIIS enabled.
  MOM disabled.
  Fractional occupation disabled.
  Guess Type is SAD.
  Energy threshold   = 1.00e-08
  Density threshold  = 1.00e-08
  Integral threshold = 1.00e-12

  ==> Primary Basis <==

  Basis Set: JUN-CC-PVDZ
    Blend: JUN-CC-PVDZ
    Number of shells: 526
    Number of basis functions: 1152
    Number of Cartesian functions: 1211
    Spherical Harmonics?: true
    Max angular momentum: 2

   => Loading Basis Set <=

    Name: (JUN-CC-PVDZ AUX)
    Role: JKFIT
    Keyword: DF_BASIS_SCF
    atoms 1     entry B          line    90 file /opt/software/pc2/EB-SW/software/PSI4/1.9-foss-2022a/share/psi4/basis/jun-cc-pvdz-jkfit.gbs 
    atoms 2-5   entry F          line   314 file /opt/software/pc2/EB-SW/software/PSI4/1.9-foss-2022a/share/psi4/basis/jun-cc-pvdz-jkfit.gbs 
    atoms 6-59  entry C          line   146 file /opt/software/pc2/EB-SW/software/PSI4/1.9-foss-2022a/share/psi4/basis/jun-cc-pvdz-jkfit.gbs 
    atoms 60-77 entry H          line    70 file /opt/software/pc2/EB-SW/software/PSI4/1.9-foss-2022a/share/psi4/basis/jun-cc-pvdz-jkfit.gbs 

  ==> Integral Setup <==

  ==> DiskDFJK: Density-Fitted J/K Matrices <==

    J tasked:                  Yes
    K tasked:                  Yes
    wK tasked:                  No
    OpenMP threads:             16
    Integrals threads:          16
    Memory [MiB]:            34332
    Algorithm:                Core
    Integral Cache:           LOAD
    Schwarz Cutoff:          1E-12
    Fitting Condition:       1E-10

   => Auxiliary Basis Set <=

  Basis Set: (JUN-CC-PVDZ AUX)
    Blend: JUN-CC-PVDZ-JKFIT
    Number of shells: 1755
    Number of basis functions: 5075
    Number of Cartesian functions: 5819
    Spherical Harmonics?: true
    Max angular momentum: 3

  Minimum eigenvalue in the overlap matrix is 3.1839484212E-10.
  Reciprocal condition number of the overlap matrix is 1.3205507254E-11.
    Using canonical orthogonalization.
  Overall, 14 of 1152 possible MOs eliminated.


  ==> Pre-Iterations <==

  SCF Guess: Superposition of Atomic Densities via on-the-fly atomic UHF (no occupation information).

   -------------------------
    Irrep   Nso     Nmo    
   -------------------------
     A       1152    1138 
   -------------------------
    Total    1152    1138
   -------------------------

  ==> Iterations <==

                           Total Energy        Delta E     RMS |[F,P]|

   @DF-RHF iter SAD:  -421.23045867279990   -4.21230e+02   0.00000e+00 
   @DF-RHF iter   1:  -422.65296880444544   -1.42251e+00   5.30929e-04 ADIIS/DIIS
   @DF-RHF iter   2:  -422.73595731293813   -8.29885e-02   3.24092e-04 ADIIS/DIIS
   @DF-RHF iter   3:  -422.77436346424207   -3.84062e-02   1.75517e-05 DIIS
   @DF-RHF iter   4:  -422.77472681744729   -3.63353e-04   2.81230e-06 DIIS
   @DF-RHF iter   5:  -422.77473562748452   -8.81004e-06   7.40333e-07 DIIS
   @DF-RHF iter   6:  -422.77473624836097   -6.20876e-07   1.57501e-07 DIIS
   @DF-RHF iter   7:  -422.77473627219774   -2.38368e-08   3.84659e-08 DIIS
   @DF-RHF iter   8:  -422.77473627291562   -7.17876e-10   9.04228e-09 DIIS
  Energy and wave function converged.


  ==> Post-Iterations <==

    Orbital Energies [Eh]
    ---------------------

    Doubly Occupied:                                                      

       1A    -26.067208     2A    -26.067047     3A    -26.066855  
       4A    -26.066820     5A     -7.537893     6A     -1.410184  
       7A     -1.350846     8A     -1.350571     9A     -1.350293  
      10A     -0.601477    11A     -0.527744    12A     -0.527706  
      13A     -0.527627    14A     -0.446597    15A     -0.446524  
      16A     -0.408011    17A     -0.407923    18A     -0.407879  
      19A     -0.384510    20A     -0.384290    21A     -0.384256  

    Virtual:                                                              

      22A      0.093109    23A      0.093773    24A      0.094057  
      25A      0.100150    26A      0.100170    27A      0.111264  
      28A      0.111921    29A      0.127252    30A      0.127304  
      31A      0.127763    32A      0.137318    33A      0.137921  
      34A      0.145115    35A      0.145129    36A      0.148084  
      37A      0.150142    38A      0.150730    39A      0.152444  
      40A      0.152468    41A      0.162922    42A      0.162926  
      43A      0.164872    44A      0.166340    45A      0.166463  
      46A      0.171973    47A      0.174005    48A      0.179640  
      49A      0.179960    50A      0.182556    51A      0.183923  
      52A      0.184100    53A      0.190753    54A      0.190818  
      55A      0.191395    56A      0.191639    57A      0.196912  
      58A      0.197336    59A      0.202501    60A      0.203804  
      61A      0.204053    62A      0.206300    63A      0.206304  
      64A      0.208621    65A      0.208778    66A      0.210824  
      67A      0.215171    68A      0.215352    69A      0.217820  
      70A      0.218223    71A      0.221540    72A      0.224831  
      73A      0.224876    74A      0.226542    75A      0.228303  
      76A      0.235801    77A      0.235985    78A      0.236063  
      79A      0.239430    80A      0.239885    81A      0.240408  
      82A      0.240446    83A      0.243678    84A      0.246960  
      85A      0.247233    86A      0.247704    87A      0.250860  
      88A      0.252199    89A      0.259253    90A      0.259431  
      91A      0.260204    92A      0.262273    93A      0.266230  
      94A      0.271211    95A      0.271242    96A      0.271463  
      97A      0.276219    98A      0.278271    99A      0.278609  
     100A      0.281379   101A      0.281637   102A      0.283587  
     103A      0.284574   104A      0.286099   105A      0.286307  
     106A      0.288570   107A      0.290110   108A      0.290177  
     109A      0.296038   110A      0.297540   111A      0.302478  
     112A      0.302742   113A      0.305676   114A      0.306700  
     115A      0.311777   116A      0.312947   117A      0.313620  
     118A      0.313696   119A      0.314290   120A      0.318414  
     121A      0.318724   122A      0.322756   123A      0.328288  
     124A      0.328763   125A      0.329268   126A      0.329419  
     127A      0.331191   128A      0.331425   129A      0.331943  
     130A      0.341567   131A      0.342655   132A      0.344003  
     133A      0.344155   134A      0.346584   135A      0.349750  
     136A      0.350662   137A      0.350881   138A      0.355052  
     139A      0.355831   140A      0.355868   141A      0.357181  
     142A      0.359139   143A      0.359333   144A      0.362475  
     145A      0.362849   146A      0.365210   147A      0.369503  
     148A      0.373851   149A      0.384954   150A      0.388532  
     151A      0.388905   152A      0.389285   153A      0.390167  
     154A      0.391431   155A      0.395223   156A      0.395923  
     157A      0.398689   158A      0.404530   159A      0.404668  
     160A      0.405043   161A      0.410844   162A      0.410978  
     163A      0.411652   164A      0.413703   165A      0.413783  
     166A      0.415611   167A      0.420562   168A      0.424427  
     169A      0.431446   170A      0.432683   171A      0.434001  
     172A      0.436475   173A      0.437098   174A      0.440184  
     175A      0.442766   176A      0.443514   177A      0.443992  
     178A      0.445626   179A      0.446720   180A      0.449230  
     181A      0.449331   182A      0.449591   183A      0.451223  
     184A      0.451853   185A      0.452238   186A      0.455038  
     187A      0.457759   188A      0.459285   189A      0.464984  
     190A      0.466160   191A      0.466269   192A      0.469041  
     193A      0.471536   194A      0.473250   195A      0.476384  
     196A      0.479671   197A      0.484968   198A      0.486142  
     199A      0.486397   200A      0.492414   201A      0.493114  
     202A      0.493125   203A      0.499463   204A      0.499941  
     205A      0.501829   206A      0.503778   207A      0.508462  
     208A      0.510590   209A      0.512655   210A      0.513840  
     211A      0.515908   212A      0.516143   213A      0.519815  
     214A      0.520202   215A      0.521567   216A      0.521630  
     217A      0.522354   218A      0.523548   219A      0.527109  
     220A      0.527908   221A      0.528943   222A      0.529106  
     223A      0.530193   224A      0.530836   225A      0.533814  
     226A      0.535442   227A      0.537298   228A      0.539786  
     229A      0.545957   230A      0.554450   231A      0.555435  
     232A      0.557648   233A      0.558295   234A      0.563793  
     235A      0.564353   236A      0.564440   237A      0.565496  
     238A      0.567268   239A      0.567492   240A      0.567854  
     241A      0.570785   242A      0.572037   243A      0.572238  
     244A      0.574514   245A      0.580968   246A      0.583494  
     247A      0.584456   248A      0.591004   249A      0.594452  
     250A      0.594790   251A      0.596555   252A      0.600632  
     253A      0.602454   254A      0.602657   255A      0.604430  
     256A      0.606969   257A      0.607359   258A      0.607800  
     259A      0.609108   260A      0.610499   261A      0.611939  
     262A      0.611976   263A      0.614659   264A      0.616012  
     265A      0.627633   266A      0.632866   267A      0.634867  
     268A      0.636507   269A      0.639640   270A      0.640697  
     271A      0.646012   272A      0.647456   273A      0.649334  
     274A      0.650276   275A      0.650573   276A      0.651770  
     277A      0.654221   278A      0.660031   279A      0.661968  
     280A      0.662747   281A      0.665145   282A      0.666610  
     283A      0.670370   284A      0.671175   285A      0.672207  
     286A      0.680004   287A      0.682840   288A      0.683098  
     289A      0.683951   290A      0.684737   291A      0.687478  
     292A      0.692469   293A      0.692937   294A      0.696007  
     295A      0.696118   296A      0.699543   297A      0.700258  
     298A      0.701830   299A      0.703948   300A      0.712250  
     301A      0.718017   302A      0.718524   303A      0.720979  
     304A      0.725781   305A      0.726317   306A      0.728497  
     307A      0.731366   308A      0.732222   309A      0.736357  
     310A      0.737799   311A      0.743633   312A      0.744255  
     313A      0.746141   314A      0.746757   315A      0.747477  
     316A      0.753840   317A      0.757583   318A      0.759218  
     319A      0.763694   320A      0.766256   321A      0.766889  
     322A      0.769862   323A      0.772231   324A      0.777480  
     325A      0.783106   326A      0.785964   327A      0.788095  
     328A      0.789283   329A      0.791118   330A      0.794484  
     331A      0.796619   332A      0.800115   333A      0.800442  
     334A      0.813025   335A      0.816220   336A      0.816312  
     337A      0.818968   338A      0.822508   339A      0.827247  
     340A      0.828196   341A      0.829321   342A      0.831262  
     343A      0.832075   344A      0.839591   345A      0.840926  
     346A      0.841717   347A      0.844096   348A      0.845958  
     349A      0.848780   350A      0.853304   351A      0.854531  
     352A      0.860003   353A      0.863185   354A      0.865132  
     355A      0.865433   356A      0.870639   357A      0.872828  
     358A      0.874533   359A      0.881710   360A      0.882398  
     361A      0.883115   362A      0.883694   363A      0.886499  
     364A      0.889483   365A      0.890921   366A      0.892152  
     367A      0.894791   368A      0.896718   369A      0.898642  
     370A      0.900444   371A      0.904083   372A      0.910992  
     373A      0.914505   374A      0.916857   375A      0.919743  
     376A      0.925212   377A      0.926957   378A      0.932181  
     379A      0.932230   380A      0.936971   381A      0.941307  
     382A      0.946590   383A      0.951402   384A      0.964483  
     385A      0.971410   386A      0.972857   387A      0.973272  
     388A      0.980348   389A      0.986743   390A      0.987884  
     391A      0.988634   392A      0.989804   393A      0.990816  
     394A      0.995548   395A      1.000222   396A      1.007065  
     397A      1.013138   398A      1.036571   399A      1.041866  
     400A      1.045455   401A      1.046915   402A      1.055430  
     403A      1.060146   404A      1.060333   405A      1.064239  
     406A      1.065521   407A      1.068965   408A      1.073768  
     409A      1.074228   410A      1.098793   411A      1.101244  
     412A      1.104679   413A      1.115546   414A      1.133087  
     415A      1.137203   416A      1.145167   417A      1.148556  
     418A      1.152296   419A      1.152531   420A      1.167550  
     421A      1.169322   422A      1.170109   423A      1.178715  
     424A      1.186203   425A      1.186860   426A      1.189362  
     427A      1.199782   428A      1.250391   429A      1.257986  
     430A      1.259044   431A      1.260906   432A      1.264370  
     433A      1.267562   434A      1.267944   435A      1.277656  
     436A      1.293038   437A      1.293807   438A      1.315960  
     439A      1.316047   440A      1.322525   441A      1.335238  
     442A      1.344954   443A      1.382172   444A      1.396604  
     445A      1.398881   446A      1.402305   447A      1.403348  
     448A      1.403666   449A      1.412485   450A      1.414737  
     451A      1.415249   452A      1.421365   453A      1.429288  
     454A      1.438775   455A      1.457061   456A      1.471172  
     457A      1.471589   458A      1.530859   459A      1.556309  
     460A      1.558297   461A      1.569168   462A      1.569434  
     463A      1.574790   464A      1.578044   465A      1.586903  
     466A      1.587317   467A      1.605396   468A      1.619023  
     469A      1.654615   470A      1.659652   471A      1.662600  
     472A      1.669684   473A      1.674307   474A      1.680075  
     475A      1.687193   476A      1.690600   477A      1.691163  
     478A      1.729420   479A      1.739084   480A      1.739944  
     481A      1.758449   482A      1.763708   483A      1.770419  
     484A      1.771854   485A      1.781702   486A      1.791211  
     487A      1.793126   488A      1.799747   489A      1.806006  
     490A      1.815792   491A      1.829373   492A      1.836220  
     493A      1.838806   494A      1.840545   495A      1.842116  
     496A      1.844492   497A      1.849432   498A      1.852858  
     499A      1.863009   500A      1.865314   501A      1.871234  
     502A      1.874322   503A      1.884118   504A      1.884988  
     505A      1.886279   506A      1.890738   507A      1.891925  
     508A      1.915834   509A      1.917054   510A      1.917566  
     511A      1.917758   512A      1.921770   513A      1.922598  
     514A      1.927150   515A      1.927605   516A      1.934046  
     517A      1.934168   518A      1.936268   519A      1.937081  
     520A      1.940659   521A      1.941084   522A      1.944399  
     523A      1.951555   524A      1.953508   525A      1.965760  
     526A      1.971690   527A      1.977546   528A      1.978938  
     529A      1.982188   530A      1.982371   531A      1.983060  
     532A      1.988131   533A      1.990983   534A      1.997979  
     535A      2.002437   536A      2.007987   537A      2.010881  
     538A      2.012722   539A      2.014214   540A      2.019406  
     541A      2.020323   542A      2.022759   543A      2.024982  
     544A      2.026189   545A      2.032194   546A      2.034624  
     547A      2.035948   548A      2.038218   549A      2.043788  
     550A      2.048747   551A      2.053780   552A      2.058995  
     553A      2.066176   554A      2.066358   555A      2.071309  
     556A      2.073800   557A      2.077295   558A      2.078097  
     559A      2.083963   560A      2.087342   561A      2.088833  
     562A      2.091871   563A      2.092470   564A      2.094016  
     565A      2.097712   566A      2.101599   567A      2.106034  
     568A      2.110228   569A      2.113053   570A      2.117781  
     571A      2.118640   572A      2.127635   573A      2.132725  
     574A      2.150181   575A      2.163676   576A      2.165985  
     577A      2.167338   578A      2.171938   579A      2.176476  
     580A      2.180244   581A      2.181492   582A      2.184038  
     583A      2.184615   584A      2.187983   585A      2.192603  
     586A      2.193030   587A      2.197517   588A      2.199425  
     589A      2.205570   590A      2.208480   591A      2.215579  
     592A      2.217927   593A      2.222755   594A      2.224627  
     595A      2.226041   596A      2.227508   597A      2.229503  
     598A      2.231515   599A      2.233169   600A      2.233953  
     601A      2.236598   602A      2.237471   603A      2.239463  
     604A      2.241199   605A      2.246383   606A      2.247657  
     607A      2.248547   608A      2.248548   609A      2.249467  
     610A      2.252285   611A      2.252546   612A      2.253657  
     613A      2.254037   614A      2.254412   615A      2.257061  
     616A      2.258689   617A      2.262565   618A      2.265364  
     619A      2.266732   620A      2.267746   621A      2.269422  
     622A      2.272461   623A      2.275796   624A      2.280453  
     625A      2.281974   626A      2.285019   627A      2.287489  
     628A      2.287784   629A      2.288652   630A      2.289664  
     631A      2.295671   632A      2.297646   633A      2.301803  
     634A      2.304903   635A      2.308877   636A      2.326461  
     637A      2.326552   638A      2.330678   639A      2.341033  
     640A      2.342486   641A      2.344735   642A      2.344983  
     643A      2.347075   644A      2.352414   645A      2.355517  
     646A      2.357266   647A      2.361104   648A      2.363891  
     649A      2.366683   650A      2.370045   651A      2.370969  
     652A      2.372354   653A      2.374407   654A      2.376894  
     655A      2.378797   656A      2.379874   657A      2.390364  
     658A      2.393153   659A      2.395573   660A      2.397463  
     661A      2.398782   662A      2.403010   663A      2.405341  
     664A      2.409245   665A      2.420877   666A      2.422734  
     667A      2.429807   668A      2.430152   669A      2.432486  
     670A      2.441133   671A      2.443256   672A      2.454149  
     673A      2.456269   674A      2.456544   675A      2.461119  
     676A      2.462693   677A      2.465687   678A      2.467880  
     679A      2.472262   680A      2.472718   681A      2.473437  
     682A      2.474848   683A      2.475303   684A      2.481257  
     685A      2.482593   686A      2.484331   687A      2.494935  
     688A      2.496313   689A      2.499050   690A      2.503679  
     691A      2.504589   692A      2.504714   693A      2.510724  
     694A      2.517032   695A      2.519906   696A      2.520415  
     697A      2.521680   698A      2.526147   699A      2.540434  
     700A      2.540582   701A      2.555086   702A      2.558885  
     703A      2.560949   704A      2.565404   705A      2.566579  
     706A      2.568992   707A      2.571077   708A      2.574698  
     709A      2.578376   710A      2.580679   711A      2.585423  
     712A      2.586387   713A      2.590263   714A      2.596515  
     715A      2.598701   716A      2.601267   717A      2.602387  
     718A      2.605940   719A      2.607568   720A      2.618768  
     721A      2.620916   722A      2.623124   723A      2.625096  
     724A      2.634044   725A      2.636635   726A      2.641700  
     727A      2.650076   728A      2.651786   729A      2.652795  
     730A      2.658280   731A      2.660084   732A      2.661810  
     733A      2.665537   734A      2.665801   735A      2.673308  
     736A      2.678153   737A      2.679279   738A      2.681628  
     739A      2.688123   740A      2.700612   741A      2.704661  
     742A      2.718554   743A      2.720316   744A      2.720830  
     745A      2.726479   746A      2.727134   747A      2.729327  
     748A      2.729418   749A      2.736277   750A      2.737077  
     751A      2.745044   752A      2.748162   753A      2.751898  
     754A      2.752699   755A      2.754618   756A      2.755502  
     757A      2.760773   758A      2.772437   759A      2.773370  
     760A      2.775036   761A      2.783470   762A      2.785441  
     763A      2.793409   764A      2.793521   765A      2.796457  
     766A      2.803360   767A      2.804892   768A      2.809322  
     769A      2.810683   770A      2.817657   771A      2.818323  
     772A      2.821709   773A      2.823266   774A      2.834171  
     775A      2.835956   776A      2.842261   777A      2.845964  
     778A      2.851841   779A      2.853019   780A      2.855861  
     781A      2.858355   782A      2.864169   783A      2.874151  
[...]
     730A      1.463604   731A      1.465071   732A      1.473386  
     733A      1.474544   734A      1.485248   735A      1.493117  
     736A      1.493745   737A      1.515737   738A      1.526181  
     739A      1.529514   740A      1.532194   741A      1.537318  
     742A      1.552551   743A      1.564667   744A      1.594949  
     745A      1.605866   746A      1.607485   747A      1.609424  
     748A      1.613758   749A      1.615206   750A      1.616944  
     751A      1.625178   752A      1.627508   753A      1.629381  
     754A      1.633607   755A      1.636244   756A      1.640316  
     757A      1.641922   758A      1.643715   759A      1.644999  
     760A      1.649523   761A      1.657864   762A      1.659361  
     763A      1.662143   764A      1.665226   765A      1.668196  
     766A      1.668354   767A      1.674774   768A      1.676133  
     769A      1.680853   770A      1.681553   771A      1.684123  
     772A      1.689035   773A      1.689985   774A      1.692426  
     775A      1.696094   776A      1.697111   777A      1.700266  
     778A      1.700518   779A      1.702515   780A      1.708574  
     781A      1.709863   782A      1.719752   783A      1.726307  
     784A      1.736168   785A      1.748032   786A      1.755544  
     787A      1.757792   788A      1.758966   789A      1.760993  
     790A      1.761329   791A      1.763882   792A      1.768401  
     793A      1.779212   794A      1.785485   795A      1.793164  
     796A      1.797566   797A      1.815444   798A      1.817513  
     799A      1.822550   800A      1.823045   801A      1.825530  
     802A      1.832672   803A      1.835822   804A      1.840523  
     805A      1.844512   806A      1.846060   807A      1.848691  
     808A      1.852151   809A      1.853999   810A      1.859955  
     811A      1.871281   812A      1.871812   813A      1.874780  
     814A      1.876289   815A      1.884907   816A      1.885775  
     817A      1.889627   818A      1.896558   819A      1.896666  
     820A      1.898596   821A      1.900897   822A      1.901849  
     823A      1.907203   824A      1.909090   825A      1.911509  
     826A      1.914017   827A      1.918181   828A      1.918422  
     829A      1.920275   830A      1.921861   831A      1.924074  
     832A      1.926311   833A      1.927797   834A      1.931910  
     835A      1.941920   836A      1.946638   837A      1.946858  
     838A      1.948905   839A      1.949200   840A      1.952147  
     841A      1.956033   842A      1.958559   843A      1.963184  
     844A      1.970490   845A      1.972032   846A      1.985404  
     847A      1.991704   848A      1.995794   849A      1.997550  
     850A      2.000034   851A      2.001104   852A      2.012092  
     853A      2.013578   854A      2.019142   855A      2.019640  
     856A      2.020982   857A      2.030699   858A      2.031772  
     859A      2.033846   860A      2.035117   861A      2.036251  
     862A      2.040768   863A      2.050882   864A      2.051753  
     865A      2.055795   866A      2.057888   867A      2.061078  
     868A      2.066296   869A      2.068623   870A      2.070801  
     871A      2.076852   872A      2.079475   873A      2.081882  
     874A      2.082462   875A      2.086363   876A      2.090116  
     877A      2.094387   878A      2.096653   879A      2.096720  
     880A      2.098834   881A      2.100290   882A      2.102340  
     883A      2.106964   884A      2.107581   885A      2.109205  
     886A      2.110809   887A      2.111028   888A      2.114730  
     889A      2.118886   890A      2.119575   891A      2.121772  
     892A      2.122002   893A      2.123849   894A      2.125965  
     895A      2.127912   896A      2.132125   897A      2.134789  
     898A      2.135709   899A      2.137214   900A      2.139424  
     901A      2.142663   902A      2.144264   903A      2.152489  
     904A      2.153399   905A      2.165130   906A      2.167225  
     907A      2.169299   908A      2.174367   909A      2.177262  
     910A      2.178679   911A      2.180523   912A      2.183034  
     913A      2.193623   914A      2.194444   915A      2.196271  
     916A      2.198642   917A      2.203447   918A      2.203778  
     919A      2.208708   920A      2.219944   921A      2.223458  
     922A      2.232195   923A      2.235557   924A      2.240241  
     925A      2.243221   926A      2.244264   927A      2.244966  
     928A      2.246015   929A      2.248294   930A      2.252031  
     931A      2.261090   932A      2.262572   933A      2.264282  
     934A      2.270751   935A      2.270872   936A      2.272884  
     937A      2.276597   938A      2.281467   939A      2.301112  
     940A      2.307905   941A      2.317762   942A      2.319552  
     943A      2.332837   944A      2.334374   945A      2.336553  
     946A      2.340791   947A      2.343950   948A      2.351249  
     949A      2.352323   950A      2.354176   951A      2.359284  
     952A      2.363191   953A      2.371926   954A      2.372782  
     955A      2.387836   956A      2.393540   957A      2.416010  
     958A      2.424622   959A      2.424956   960A      2.425150  
     961A      2.429531   962A      2.436631   963A      2.442885  
     964A      2.447895   965A      2.472382   966A      2.475680  
     967A      2.484892   968A      2.488231   969A      2.491659  
     970A      2.508257   971A      2.523418   972A      2.530879  
     973A      2.543182   974A      2.547738   975A      2.549145  
     976A      2.551991   977A      2.555116   978A      2.555268  
     979A      2.556154   980A      2.560482   981A      2.560745  
     982A      2.573418   983A      2.573444   984A      2.577140  
     985A      2.577995   986A      2.586877   987A      2.590733  
     988A      2.592862   989A      2.597418   990A      2.598275  
     991A      2.610220   992A      2.624730   993A      2.630252  
     994A      2.635630   995A      2.635928   996A      2.639625  
     997A      2.643044   998A      2.644515   999A      2.654633  
    1000A      2.657219  1001A      2.665682  1002A      2.685303  
    1003A      2.686160  1004A      2.688670  1005A      2.698212  
    1006A      2.711941  1007A      2.713361  1008A      2.713478  
    1009A      2.715785  1010A      2.719371  1011A      2.721374  
    1012A      2.726656  1013A      2.735996  1014A      2.755316  
    1015A      2.756793  1016A      2.769731  1017A      2.780671  
    1018A      2.797325  1019A      2.798265  1020A      2.824372  
    1021A      2.828506  1022A      2.829258  1023A      2.845525  
    1024A      2.855543  1025A      2.856501  1026A      2.858670  
    1027A      2.860367  1028A      2.862065  1029A      2.868466  
    1030A      2.884134  1031A      2.918691  1032A      2.919295  
    1033A      2.927433  1034A      2.934266  1035A      2.937148  
    1036A      2.943000  1037A      2.954003  1038A      2.956351  
    1039A      2.963595  1040A      3.001078  1041A      3.010325  
    1042A      3.016744  1043A      3.037506  1044A      3.050371  
    1045A      3.064731  1046A      3.065914  1047A      3.073633  
    1048A      3.080474  1049A      3.118552  1050A      3.121014  
    1051A      3.134325  1052A      3.136326  1053A      3.141978  
    1054A      3.146898  1055A      3.148092  1056A      3.148131  
    1057A      3.150392  1058A      3.153952  1059A      3.158727  
    1060A      3.163125  1061A      3.167057  1062A      3.168014  
    1063A      3.171942  1064A      3.192159  1065A      3.211557  
    1066A      3.223925  1067A      3.248995  1068A      3.278544  
    1069A      3.281681  1070A      3.288772  1071A      3.293012  
    1072A      3.298397  1073A      3.419653  1074A      3.425554  
    1075A      3.487344  1076A      3.491939  1077A      3.547623  
    1078A      3.584396  1079A      3.586543  1080A      3.627580  
    1081A      3.629148  1082A      3.631996  1083A      3.648854  
    1084A      3.667268  1085A      3.735305  1086A      3.788976  
    1087A      3.792711  1088A      3.843768  1089A      3.871702  
    1090A      3.872095  1091A      3.914663  1092A      3.916084  
    1093A      3.980751  1094A      4.011703  1095A      4.069984  
    1096A      4.079170  1097A      4.137012  1098A      4.303473  
    1099A      4.479885  1100A      4.589819  1101A      4.642334  
    1102A      5.760574  1103A      5.762581  1104A      5.772606  
    1105A      5.780314  1106A      5.785817  1107A      5.790472  
    1108A      5.823287  1109A      5.837005  1110A      5.840600  
    1111A      5.849883  1112A      5.868110  1113A      6.039672  
    1114A      6.050555  1115A      6.070799  1116A      6.221242  
    1117A      6.339676  1118A      6.343544  1119A      6.399240  
    1120A      6.400641  1121A      6.402048  1122A      7.280282  
    1123A      7.322737  1124A      7.351485  1125A      7.362917  
    1126A      7.521464  1127A      7.566528  1128A      7.578430  
    1129A      7.590140  1130A      7.622917  1131A      7.642098  
    1132A      7.827201  1133A      7.906493  1134A     12.812951  
    1135A     42.933731  1136A     42.962879  1137A     42.988665  
    1138A     42.991110  

    Final Occupation by Irrep:
              A 
    DOCC [   171 ]
    NA   [   171 ]
    NB   [   171 ]

  @DF-RHF Final Energy: -2055.89416848331166

   => Energetics <=

    Nuclear Repulsion Energy =           6452.5568002797781446
    One-Electron Energy =              -15636.4925179879828647
    Two-Electron Energy =                7128.0415492248939699
    Total Energy =                      -2055.8941684833116597

Computation Completed


Properties will be evaluated at   0.000000,   0.000000,   0.000000 [a0]

Properties computed using the SCF density matrix


 Multipole Moments:

 ------------------------------------------------------------------------------------
     Multipole            Electronic (a.u.)      Nuclear  (a.u.)        Total (a.u.)
 ------------------------------------------------------------------------------------

 L = 1.  Multiply by 2.5417464519 to convert [e a0] to [Debye]
 Dipole X            :          0.0000540            0.0000112            0.0000652
 Dipole Y            :          0.0002060           -0.0000531            0.0001528
 Dipole Z            :        231.4433029         -231.4422049            0.0010980
 Magnitude           :                                                    0.0011105

 ------------------------------------------------------------------------------------

*** tstop() called on n2cn0596 at Wed Feb  7 16:21:25 2024
Module time:
	user time   =    3517.55 seconds =      58.63 minutes
	system time =     120.30 seconds =       2.01 minutes
	total time  =        354 seconds =       5.90 minutes
Total time:
	user time   =    9725.01 seconds =     162.08 minutes
	system time =     299.04 seconds =       4.98 minutes
	total time  =        854 seconds =      14.23 minutes
  Constructing Basis Sets for SAPT...

   => Loading Basis Set <=

    Name: (JUN-CC-PVDZ AUX)
    Role: RIFIT
    Keyword: DF_BASIS_SAPT
    atoms 1     entry B          line    56 file /opt/software/pc2/EB-SW/software/PSI4/1.9-foss-2022a/share/psi4/basis/jun-cc-pvdz-ri.gbs 
    atoms 2-5   entry F          line   232 file /opt/software/pc2/EB-SW/software/PSI4/1.9-foss-2022a/share/psi4/basis/jun-cc-pvdz-ri.gbs 
    atoms 6-59  entry C          line   100 file /opt/software/pc2/EB-SW/software/PSI4/1.9-foss-2022a/share/psi4/basis/jun-cc-pvdz-ri.gbs 
    atoms 60-77 entry H          line    30 file /opt/software/pc2/EB-SW/software/PSI4/1.9-foss-2022a/share/psi4/basis/jun-cc-pvdz-ri.gbs 

   => Loading Basis Set <=

    Name: (JUN-CC-PVDZ AUX)
    Role: JKFIT
    Keyword: DF_BASIS_ELST
    atoms 1     entry B          line    90 file /opt/software/pc2/EB-SW/software/PSI4/1.9-foss-2022a/share/psi4/basis/jun-cc-pvdz-jkfit.gbs 
    atoms 2-5   entry F          line   314 file /opt/software/pc2/EB-SW/software/PSI4/1.9-foss-2022a/share/psi4/basis/jun-cc-pvdz-jkfit.gbs 
    atoms 6-59  entry C          line   146 file /opt/software/pc2/EB-SW/software/PSI4/1.9-foss-2022a/share/psi4/basis/jun-cc-pvdz-jkfit.gbs 
    atoms 60-77 entry H          line    70 file /opt/software/pc2/EB-SW/software/PSI4/1.9-foss-2022a/share/psi4/basis/jun-cc-pvdz-jkfit.gbs 


  //>>>>>>>>>>>>>>>>>>>>>>>>>>>>>>>>>>>//
  //               SSAPT0              //
  //<<<<<<<<<<<<<<<<<<<<<<<<<<<<<<<<<<<//


*** tstart() called on n2cn0596
*** at Wed Feb  7 16:21:26 2024

        SAPT0  
    Ed Hohenstein
     6 June 2009

      Orbital Information
  --------------------------
    NSO        =      1152
    NMO        =      1138
    NRI        =      4087
    NRI (Elst) =      5075
    NOCC A     =        21
    NOCC B     =       171
    FOCC A     =         5
    FOCC B     =        54
    NVIR A     =      1117
    NVIR B     =       967

    Elst10,r            =    -0.027812848575 [Eh]
    Exch10              =     0.097094572360 [Eh]
    Exch10 (S^2)        =     0.095616812555 [Eh]

    Iter     Energy [mEh]          dE [mEh]         Residual      Time [s]
       1     -12.15689352      12.156893523      22.735786514            22
       2     -15.13704034       2.980146815      10.332242048            41
       3     -15.72165729       0.584616952       1.613383547            58
       4     -15.67149783      -0.050159463       0.515300950            75
       5     -15.66414700      -0.007350827       0.116606890            93
       6     -15.66537897       0.001231975       0.035648804           112
       7     -15.66611207       0.000733098       0.006780046           133
       8     -15.66596784      -0.000144233       0.001099474           150
       9     -15.66597976       0.000011922       0.000195472           169
      10     -15.66597937      -0.000000394       0.000034290           188
      11     -15.66597912      -0.000000247       0.000006884           206
      12     -15.66597917       0.000000052       0.000002049           229
      13     -15.66597918       0.000000007       0.000000606           247

    CHF Iterations converged


    Iter     Energy [mEh]          dE [mEh]         Residual      Time [s]
       1     -56.24920028      56.249200281     100.178869625            19
       2     -46.42559603      -9.823604247      16.335759339            32
       3     -48.37104891       1.945452877       7.223280775            44
       4     -49.50448903       1.133440121       1.537577114            55
       5     -49.46855146      -0.035937573       0.570578265            66
       6     -49.41496844      -0.053583015       0.193468635            78
       7     -49.41802164       0.003053194       0.103346750            89
       8     -49.42524694       0.007225299       0.048960404           101
       9     -49.42515268      -0.000094256       0.026531174           112
      10     -49.42343268      -0.001719999       0.013992865           123
      11     -49.42364523       0.000212552       0.008704059           135
      12     -49.42398167       0.000336440       0.004604649           146
      13     -49.42392474      -0.000056932       0.002270404           157
      14     -49.42384691      -0.000077830       0.001411306           169
      15     -49.42386720       0.000020286       0.000623848           180
      16     -49.42388057       0.000013377       0.000279719           191
      17     -49.42387994      -0.000000631       0.000103044           203
      18     -49.42387687      -0.000003074       0.000043925           214
      19     -49.42387689       0.000000019       0.000021704           226
      20     -49.42387730       0.000000408       0.000010141           237
      21     -49.42387743       0.000000136       0.000003979           249
      22     -49.42387735      -0.000000078       0.000001656           260
      23     -49.42387733      -0.000000029       0.000000772           271

    CHF Iterations converged

    Ind20,r (A<-B)      =    -0.015665979179 [Eh]
    Ind20,r (B<-A)      =    -0.049423877326 [Eh]
    Ind20,r             =    -0.065089856505 [Eh]
    Exch-Ind20,r (A<-B) =     0.014007553296 [Eh]
    Exch-Ind20,r (B<-A) =     0.028998502854 [Eh]
    Exch-Ind20,r        =     0.043006056150 [Eh]
    Disp20              =    -0.032912054883 [Eh]
    Disp20 (SS)         =    -0.016456027442 [Eh]
    Disp20 (OS)         =    -0.016456027442 [Eh]
    Exch-Disp20         =     0.008589780010 [Eh]
    Exch-Disp20 (SS)    =     0.004598361845 [Eh]
    Exch-Disp20 (OS)    =     0.003991418166 [Eh]

    SAPT Results 
  --------------------------------------------------------------------------------------------------------
    Electrostatics                -27.81284857 [mEh]     -17.45282597 [kcal/mol]     -73.02262387 [kJ/mol]
      Elst10,r                    -27.81284857 [mEh]     -17.45282597 [kcal/mol]     -73.02262387 [kJ/mol]

    Exchange                       97.09457236 [mEh]      60.92776401 [kcal/mol]     254.92176461 [kJ/mol]
      Exch10                       97.09457236 [mEh]      60.92776401 [kcal/mol]     254.92176461 [kJ/mol]
      Exch10(S^2)                  95.61681256 [mEh]      60.00045573 [kcal/mol]     251.04190678 [kJ/mol]

    Induction                     -28.58255466 [mEh]     -17.93582383 [kcal/mol]     -75.04348691 [kJ/mol]
      Ind20,r                     -65.08985651 [mEh]     -40.84450160 [kcal/mol]    -170.89339471 [kJ/mol]
      Exch-Ind20,r                 43.00605615 [mEh]      26.98670766 [kcal/mol]     112.91238487 [kJ/mol]
      delta HF,r (2)               -6.49875430 [mEh]      -4.07802989 [kcal/mol]     -17.06247707 [kJ/mol]

    Dispersion                    -24.32227487 [mEh]     -15.26245791 [kcal/mol]     -63.85812388 [kJ/mol]
      Disp20                      -32.91205488 [mEh]     -20.65262624 [kcal/mol]     -86.41058819 [kJ/mol]
      Exch-Disp20                   8.58978001 [mEh]       5.39016833 [kcal/mol]      22.55246431 [kJ/mol]
      Disp20 (SS)                 -16.45602744 [mEh]     -10.32631312 [kcal/mol]     -43.20529410 [kJ/mol]
      Disp20 (OS)                 -16.45602744 [mEh]     -10.32631312 [kcal/mol]     -43.20529410 [kJ/mol]
      Exch-Disp20 (SS)              4.59836184 [mEh]       2.88551562 [kcal/mol]      12.07299736 [kJ/mol]
      Exch-Disp20 (OS)              3.99141817 [mEh]       2.50465271 [kcal/mol]      10.47946695 [kJ/mol]

  Total HF                         40.69916913 [mEh]      25.53911420 [kcal/mol]     106.85565382 [kJ/mol]
  Total SAPT0                      16.37689425 [mEh]      10.27665630 [kcal/mol]      42.99752994 [kJ/mol]

  Special recipe for scaled SAPT0 (see Manual):
    Electrostatics sSAPT0         -27.81284857 [mEh]     -17.45282597 [kcal/mol]     -73.02262387 [kJ/mol]
    Exchange sSAPT0                97.09457236 [mEh]      60.92776401 [kcal/mol]     254.92176461 [kJ/mol]
    Induction sSAPT0              -26.55760047 [mEh]     -16.66514590 [kcal/mol]     -69.72697044 [kJ/mol]
    Dispersion sSAPT0             -23.91782228 [mEh]     -15.00866007 [kcal/mol]     -62.79623374 [kJ/mol]
  Total sSAPT0                     18.80630103 [mEh]      11.80113207 [kcal/mol]      49.37593656 [kJ/mol]
  --------------------------------------------------------------------------------------------------------

*** tstop() called on n2cn0596 at Wed Feb  7 16:46:12 2024
Module time:
	user time   =    9813.01 seconds =     163.55 minutes
	system time =     636.67 seconds =      10.61 minutes
	total time  =       1486 seconds =      24.77 minutes
Total time:
	user time   =   19538.78 seconds =     325.65 minutes
	system time =     935.71 seconds =      15.60 minutes
	total time  =       2341 seconds =      39.02 minutes

    Psi4 stopped on: Wednesday, 07 February 2024 04:46PM
    Psi4 wall time for execution: 0:39:03.40

*** Psi4 exiting successfully. Buy a developer a beer!
