
    -----------------------------------------------------------------------
          Psi4: An Open-Source Ab Initio Electronic Structure Package
                               Psi4 1.9 release

                         Git: Rev {} zzzzzzz 


    D. G. A. Smith, L. A. Burns, A. C. Simmonett, R. M. Parrish,
    M. C. Schieber, R. Galvelis, P. Kraus, H. Kruse, R. Di Remigio,
    A. Alenaizan, A. M. James, S. Lehtola, J. P. Misiewicz, M. Scheurer,
    R. A. Shaw, J. B. Schriber, Y. Xie, Z. L. Glick, D. A. Sirianni,
    J. S. O'Brien, J. M. Waldrop, A. Kumar, E. G. Hohenstein,
    B. P. Pritchard, B. R. Brooks, H. F. Schaefer III, A. Yu. Sokolov,
    K. Patkowski, A. E. DePrince III, U. Bozkaya, R. A. King,
    F. A. Evangelista, J. M. Turney, T. D. Crawford, C. D. Sherrill,
    J. Chem. Phys. 152(18) 184108 (2020). https://doi.org/10.1063/5.0006002

                            Additional Code Authors
    E. T. Seidl, C. L. Janssen, E. F. Valeev, M. L. Leininger,
    J. F. Gonthier, R. M. Richard, H. R. McAlexander, M. Saitow, X. Wang,
    P. Verma, M. H. Lechner, A. Jiang, S. Behnle, A. G. Heide,
    M. F. Herbst, and D. L. Poole

             Previous Authors, Complete List of Code Contributors,
                       and Citations for Specific Modules
    https://github.com/psi4/psi4/blob/master/codemeta.json
    https://github.com/psi4/psi4/graphs/contributors
    http://psicode.org/psi4manual/master/introduction.html#citing-psifour

    -----------------------------------------------------------------------


    Psi4 started on: Wednesday, 24 January 2024 06:29PM

    Process ID: 2437231
    Host:       n2cn0262
    PSIDATADIR: /opt/software/pc2/EB-SW/software/PSI4/1.9-foss-2022a/share/psi4
    Memory:     500.0 MiB
    Threads:    16
    
  ==> Input File <==

--------------------------------------------------------------------------
memory 47 GB # how much memory is available ! Depends on the nodes/cores !

molecule dimer {
# monomer A
+1 1    # Charge and multiplicity
C  0.680067 1.417258 -7.615929
C -0.680504 1.419286 -7.615545
N -1.085635 1.420284 -6.297221
C  0.000108 1.423560 -5.515820
C -2.477365 1.469690 -5.829242
N  1.085222 1.420284 -6.297221
H  1.385146 1.409430 -8.433368
H -1.385302 1.419096 -8.433214
H -0.000009 1.425307 -4.434731
C  2.478117 1.403392 -5.832123
H  2.490592 1.430737 -4.741870
H  2.967028 0.489946 -6.179299
H  3.001428 2.278875 -6.223595
H -2.857359 2.491761 -5.909201
H -3.082679 0.799606 -6.442306
H -2.518128 1.142706 -4.789294
--
# monomer B
0 1     # Charge and multiplicity
C   -3.66844126402057      7.80375217008252      0.00190004133558
C   -4.84759871934653      7.13124183134024     -0.00046653359696
C   -4.89495929917518      5.69633040353158     -0.00103944469517
C   -3.65374067877320      4.98073034095895      0.00662099703436
C   -2.40942512149445      7.11398103667468      0.00209438359570
C   -2.42547734410473      5.68112195090346     -0.00491050527438
C   -1.19474401643570      7.78614419430947      0.00356656413763
C   0.03795902893699      7.09942164575698      0.00139585983271
C   0.03033258741920      5.66948955970466     -0.00408752508301
C   -1.20098450790502      4.96927034791531      0.00488220885047
C   1.27795782581485      7.77285944319479      0.00277170839332
C   2.48535808472416      7.08769688523756      0.00049722048857
C   2.48612868491717      5.65477081024076     -0.00644052849921
C   1.25408291964399      4.95607811366431      0.00518741308898
C   3.75171459140595      7.76391215098033      0.00062407186893
C   4.92356605618520      7.07878077698995     -0.00143240883900
C   4.95560727132542      5.64344746336949     -0.00159282164606
C   3.70680153420475      4.94121020833308      0.00349873852374
H   -3.65852113775815      8.89082741913536      0.00358502958574
H   -1.18921332975660      8.87412108735996      0.00753844057883
H   1.28429423888630      8.86083343548850      0.00693053253426
H   3.75354208679975      8.85103527897216      0.00214659618464
H   5.86995870320703      7.61379483465560     -0.00235777588134
H   -5.78823170750226      7.67630221293400     -0.00202638095293
C   -6.09197395869619      4.99326001364347     -0.00291168518608
C   -6.12866148031747      3.58258016879823     -0.00171050815740
C   -3.66457974004527      3.56418217974434     -0.00463560277484
C   -4.89429820469869      2.86108077590057      0.00453338221034
C   -2.43733499489796      2.84761165708481      0.00719617576166
C   -1.20922785759670      3.54788693497833     -0.00648285103018
C   1.24714157216223      3.53468075142962     -0.00729145743546
C   0.01517603956900      2.83311183930540      0.00439272578912
C   2.46764517244071      2.82128997725533      0.00449278391269
C   3.70254947457969      3.52466015442405     -0.00899517692985
C   6.14498038638375      4.92757236613191     -0.00282626685777
C   6.16658835886151      3.51658447594213     -0.00065971342101
C   4.92460995845939      2.80840792535402      0.00587903281610
H   7.08990550964105      5.46688776622306     -0.00658814770723
H   -7.03104175110130      5.54268795285765     -0.00714490013730
C   -7.33969804112295      2.85841153457957     -0.00333767559888
C   -7.36488195805880      1.47032337158330     -0.00157213747140
C   -4.90350460894690      1.44442681216000     -0.00628840166334
C   -6.13225715261081      0.73993935705394      0.00600164231964
C   -3.67687480051673      0.72669714267312      0.00433931473643
C   -2.44565658606518      1.42964113326212     -0.00597039546461
C   -1.22360068130162      0.71532450163492      0.00545886906656
C   0.00763786931376      1.41738314923765      0.00392452278437
C   1.23121980774686      0.70211669058719     -0.01490206287210
C   2.46082110053113      1.40329203612573      0.00460244601878
C   3.68443025419614      0.68719842821222      0.00377365974158
C   4.91870890153864      1.39173456118907     -0.00862816189375
C   7.36980207796101      2.77948220318441     -0.00242013321349
C   7.38016266612146      1.39121750785509     -0.00087345036788
C   6.13979953912259      0.67411862320065      0.00545489144369
H   -8.27919079934664      3.40711804112415     -0.00763522772059
H   8.31511347147953      3.31811809662368     -0.00663070901292
C   -8.59175593758115      0.72483255304480     -0.00123170985383
C   -8.59902460370342     -0.63263980622873      0.00089141472904
C   -6.13981313911873     -0.67413663715361     -0.00609792660607
C   -7.38018411213749     -1.39126618958160      0.00131813493501
C   -4.91868448025621     -1.39175501803000      0.00624257154343
C   -3.68443829568458     -0.68723731573599     -0.00478966852105
C   -2.46081704024768     -1.40334517882457      0.00575341766833
C   -1.23116201232071     -0.70217386488055     -0.00636696112346
C   -0.00756962538737     -1.41741884941102      0.00108956317991
C   1.22364771588843     -0.71527537726392      0.01109518512883
C   2.44567064933149     -1.42964328900682     -0.00065482763106
C   3.67686670284649     -0.72670743155550     -0.00479541202602
C   6.13224884641929     -0.73997883984993     -0.00632338623858
C   4.90351914550401     -1.44445752054090      0.00751768830159
C   8.59901484869081      0.63260386666793     -0.00101133422380
C   8.59174548810050     -0.72485086719319      0.00072504603735
C   7.36486276438985     -1.47033266560598      0.00049486934466
H   -9.52830597181814      1.27684744919284     -0.00270163681798
H   9.54141097460619      1.17457248844457     -0.00206336648518
C   -7.36983790976868     -2.77954514593389      0.00312634335708
C   -4.92459910905015     -2.80843725734101     -0.00460528907921
C   -6.16662249566744     -3.51665219282533      0.00169655107992
C   -3.70251035970491     -3.52468154912026      0.00571878010666
C   -2.46764698511392     -2.82132596280400     -0.00632585824990
C   -0.01513347410770     -2.83314164539971     -0.00604426974092
C   -1.24712184122656     -3.53473217556300      0.00551968366725
C   1.20924506964357     -3.54791467864352      0.00805871345849
C   2.43733602215464     -2.84764173817541     -0.00608104485234
C   4.89430234377080     -2.86112296828604     -0.00526030478103
C   3.66461525504104     -3.56421984553201      0.00761911515957
C   6.12863901474565     -3.58258405771778      0.00096495711699
C   7.33967266469532     -2.85841330737039      0.00248018319869
H   -9.54144911125902     -1.17456346666430      0.00226083090216
H   9.52826186807155     -1.27691907390448      0.00197485379837
H   -8.31516504384864     -3.31814985321231      0.00729857188773
H   8.27915514249207     -3.40714078989363      0.00681973918158
C   -6.14499418870218     -4.92764727278338      0.00302254913999
C   -3.70678334799751     -4.94126171411716     -0.00679841894792
C   -4.95559005800169     -5.64349397349412      0.00116871569699
C   -2.48612132622665     -5.65478557440947      0.00614125209662
C   -1.25405833548005     -4.95612205000132     -0.00503435388927
C   1.20101257386816     -4.96928038819302     -0.00385322963129
C   -0.03033667441341     -5.66952030313900      0.00398997003238
C   3.65375010132847     -4.98074377541453     -0.00309522988330
C   2.42549269587528     -5.68117463552727      0.00628170066869
C   6.09196561781097     -4.99325796338655      0.00325918379042
C   4.89497644461045     -5.69634842095790      0.00202298796027
H   -7.08989238804069     -5.46699984223871      0.00742531082125
H   7.03105520920009     -5.54265853633254      0.00683896355417
C   -4.92354532219813     -7.07882109967734      0.00061394679214
C   -2.48534208823777     -7.08772807792913     -0.00189594564379
C   -3.75168589177895     -7.76394715763627     -0.00170126671874
C   -0.03794895698805     -7.09946487446944     -0.00168022049625
C   -1.27795610040136     -7.77290438466689     -0.00366491325785
C   2.40944432072629     -7.11402201200282     -0.00081701968533
C   1.19474993715296     -7.78618536556242     -0.00296931056689
C   4.84762105249800     -7.13126211057943      0.00168979497423
C   3.66847160587561     -7.80378799294376     -0.00065863938960
H   -5.86994035041618     -7.61383059804164      0.00215798365757
H   5.78824962538815     -7.67633218931421      0.00281691445618
H   -3.75352693944918     -8.85107156923607     -0.00353718114765
H   -1.28430440589466     -8.86087539249706     -0.00809229711623
H   1.18922157469537     -8.87416062058945     -0.00706194725726
H   3.65854661482387     -8.89086063405326     -0.00231318081200

    units angstrom      # Angstroms are the default
    no_reorient         # Geometry fixed, default
    symmetry c1         # C1 symmetry, default
}

set {
    scf_type DF         # Density fitting, faster than exact integrals
    freeze_core True    # Freeze core electrons
    basis jun-cc-pVDZ   # Jun-cc-pVDZ basis set, recommended for sSAPT0 in https://doi.org/10.1063/1.4867135
}

energy('ssapt0')        # Compute sSAPT0 energy, includes also SAPT0
--------------------------------------------------------------------------

  Memory set to  43.772 GiB by Python driver.

Scratch directory: /tmp/
   => Loading Basis Set <=

    Name: JUN-CC-PVDZ
    Role: ORBITAL
    Keyword: BASIS
    atoms 1-2, 4-5, 10, 17-34, 41-53, 56-70, 73-89, 92-104, 109-119, 122-130 entry C          line   164 file /opt/software/pc2/EB-SW/software/PSI4/1.9-foss-2022a/share/psi4/basis/jun-cc-pvdz.gbs 
    atoms 3, 6                                                               entry N          line   198 file /opt/software/pc2/EB-SW/software/PSI4/1.9-foss-2022a/share/psi4/basis/jun-cc-pvdz.gbs 
    atoms 7-9, 11-16, 35-40, 54-55, 71-72, 90-91, 105-108, 120-121, 131-136  entry H          line    36 file /opt/software/pc2/EB-SW/software/PSI4/1.9-foss-2022a/share/psi4/basis/jun-cc-pvdz.gbs 

   => Loading Basis Set <=

    Name: JUN-CC-PVDZ
    Role: ORBITAL
    Keyword: BASIS
    atoms 1-2, 4-5, 10, 17-34, 41-53, 56-70, 73-89, 92-104, 109-119, 122-130 entry C          line   164 file /opt/software/pc2/EB-SW/software/PSI4/1.9-foss-2022a/share/psi4/basis/jun-cc-pvdz.gbs 
    atoms 3, 6                                                               entry N          line   198 file /opt/software/pc2/EB-SW/software/PSI4/1.9-foss-2022a/share/psi4/basis/jun-cc-pvdz.gbs 
    atoms 7-9, 11-16, 35-40, 54-55, 71-72, 90-91, 105-108, 120-121, 131-136  entry H          line    36 file /opt/software/pc2/EB-SW/software/PSI4/1.9-foss-2022a/share/psi4/basis/jun-cc-pvdz.gbs 


  //>>>>>>>>>>>>>>>>>>>>>>>>>>>>>>>>>>>//
  //              Dimer HF             //
  //<<<<<<<<<<<<<<<<<<<<<<<<<<<<<<<<<<<//

   => Libint2 <=

    Primary   basis highest AM E, G, H:  5, 4, 3
    Auxiliary basis highest AM E, G, H:  6, 5, 4
    Onebody   basis highest AM E, G, H:  6, 5, 4
    Solid Harmonics ordering:            gaussian

*** tstart() called on n2cn0262
*** at Wed Jan 24 18:29:10 2024

   => Loading Basis Set <=

    Name: JUN-CC-PVDZ
    Role: ORBITAL
    Keyword: BASIS
    atoms 1-2, 4-5, 10, 17-34, 41-53, 56-70, 73-89, 92-104, 109-119, 122-130 entry C          line   164 file /opt/software/pc2/EB-SW/software/PSI4/1.9-foss-2022a/share/psi4/basis/jun-cc-pvdz.gbs 
    atoms 3, 6                                                               entry N          line   198 file /opt/software/pc2/EB-SW/software/PSI4/1.9-foss-2022a/share/psi4/basis/jun-cc-pvdz.gbs 
    atoms 7-9, 11-16, 35-40, 54-55, 71-72, 90-91, 105-108, 120-121, 131-136  entry H          line    36 file /opt/software/pc2/EB-SW/software/PSI4/1.9-foss-2022a/share/psi4/basis/jun-cc-pvdz.gbs 


         ---------------------------------------------------------
                                   SCF
               by Justin Turney, Rob Parrish, Andy Simmonett
                          and Daniel G. A. Smith
                              RHF Reference
                       16 Threads,  44822 MiB Core
         ---------------------------------------------------------

  ==> Geometry <==

    Molecular point group: c1
    Full point group: C1

    Geometry (in Angstrom), charge = 1, multiplicity = 1:

       Center              X                  Y                   Z               Mass       
    ------------   -----------------  -----------------  -----------------  -----------------
         C            0.680062820275     1.308604348936    -7.127984214047    12.000000000000
         C           -0.680508179725     1.310632348936    -7.127600214047    12.000000000000
         N           -1.085639179725     1.311630348936    -5.809276214047    14.003074004430
         C            0.000103820275     1.314906348936    -5.027875214047    12.000000000000
         C           -2.477369179725     1.361036348936    -5.341297214047    12.000000000000
         N            1.085217820275     1.311630348936    -5.809276214047    14.003074004430
         H            1.385141820275     1.300776348936    -7.945423214047     1.007825032230
         H           -1.385306179725     1.310442348936    -7.945269214047     1.007825032230
         H           -0.000013179725     1.316653348936    -3.946786214047     1.007825032230
         C            2.478112820275     1.294738348936    -5.344178214047    12.000000000000
         H            2.490587820275     1.322083348936    -4.253925214047     1.007825032230
         H            2.967023820275     0.381292348936    -5.691354214047     1.007825032230
         H            3.001423820275     2.170221348936    -5.735650214047     1.007825032230
         H           -2.857363179725     2.383107348936    -5.421256214047     1.007825032230
         H           -3.082683179725     0.690952348936    -5.954361214047     1.007825032230
         H           -2.518132179725     1.034052348936    -4.301349214047     1.007825032230
         C           -3.668445443746     7.695098519018     0.489844827289    12.000000000000
         C           -4.847602899072     7.022588180276     0.487478252356    12.000000000000
         C           -4.894963478901     5.587676752467     0.486905341258    12.000000000000
         C           -3.653744858499     4.872076689895     0.494565782987    12.000000000000
         C           -2.409429301220     7.005327385610     0.490039169549    12.000000000000
         C           -2.425481523830     5.572468299839     0.483034280679    12.000000000000
         C           -1.194748196161     7.677490543245     0.491511350091    12.000000000000
         C            0.037954849212     6.990767994693     0.489340645786    12.000000000000
         C            0.030328407694     5.560835908640     0.483857260870    12.000000000000
         C           -1.200988687630     4.860616696851     0.492826994804    12.000000000000
         C            1.277953646089     7.664205792130     0.490716494346    12.000000000000
         C            2.485353904999     6.979043234173     0.488442006442    12.000000000000
         C            2.486124505192     5.546117159176     0.481504257454    12.000000000000
         C            1.254078739919     4.847424462600     0.493132199042    12.000000000000
         C            3.751710411681     7.655258499916     0.488568857822    12.000000000000
         C            4.923561876460     6.970127125926     0.486512377114    12.000000000000
         C            4.955603091600     5.534793812305     0.486351964307    12.000000000000
         C            3.706797354479     4.832556557269     0.491443524477    12.000000000000
         H           -3.658525317484     8.782173768071     0.491529815539     1.007825032230
         H           -1.189217509482     8.765467436296     0.495483226532     1.007825032230
         H            1.284290059161     8.752179784424     0.494875318487     1.007825032230
         H            3.753537907074     8.742381627908     0.490091382138     1.007825032230
         H            5.869954523482     7.505141183591     0.485587010072     1.007825032230
         H           -5.788235887228     7.567648561870     0.485918405000     1.007825032230
         C           -6.091978138422     4.884606362579     0.485033100767    12.000000000000
         C           -6.128665660043     3.473926517734     0.486234277796    12.000000000000
         C           -3.664583919771     3.455528528680     0.483309183178    12.000000000000
         C           -4.894302384424     2.752427124836     0.492478168163    12.000000000000
         C           -2.437339174623     2.738958006020     0.495140961715    12.000000000000
         C           -1.209232037322     3.439233283914     0.481461934923    12.000000000000
         C            1.247137392437     3.426027100365     0.480653328518    12.000000000000
         C            0.015171859844     2.724458188241     0.492337511742    12.000000000000
         C            2.467640992715     2.712636326191     0.492437569866    12.000000000000
         C            3.702545294854     3.416006503360     0.478949609023    12.000000000000
         C            6.144976206658     4.818918715067     0.485118519095    12.000000000000
         C            6.166584179136     3.407930824878     0.487285072532    12.000000000000
         C            4.924605778734     2.699754274290     0.493823818769    12.000000000000
         H            7.089901329916     5.358234115159     0.481356638246     1.007825032230
         H           -7.031045930827     5.434034301793     0.480799885816     1.007825032230
         C           -7.339702220848     2.749757883515     0.484607110354    12.000000000000
         C           -7.364886137784     1.361669720519     0.486372648482    12.000000000000
         C           -4.903508788672     1.335773161096     0.481656384290    12.000000000000
         C           -6.132261332336     0.631285705989     0.493946428273    12.000000000000
         C           -3.676878980242     0.618043491609     0.492284100690    12.000000000000
         C           -2.445660765791     1.320987482198     0.481974390489    12.000000000000
         C           -1.223604861027     0.606670850570     0.493403655020    12.000000000000
         C            0.007633689588     1.308729498173     0.491869308737    12.000000000000
         C            1.231215628021     0.593463039523     0.473042723081    12.000000000000
         C            2.460816920806     1.294638385061     0.492547231972    12.000000000000
         C            3.684426074471     0.578544777148     0.491718445695    12.000000000000
         C            4.918704721813     1.283080910125     0.479316624059    12.000000000000
         C            7.369797898236     2.670828552120     0.485524652740    12.000000000000
         C            7.380158486396     1.282563856791     0.487071335585    12.000000000000
         C            6.139795359397     0.565464972136     0.493399677397    12.000000000000
         H           -8.279194979072     3.298464390060     0.480309558233     1.007825032230
         H            8.315109291754     3.209464445559     0.481314076940     1.007825032230
         C           -8.591760117307     0.616178901980     0.486713076099    12.000000000000
         C           -8.599028783429    -0.741293457293     0.488836200682    12.000000000000
         C           -6.139817318844    -0.782790288218     0.481846859347    12.000000000000
         C           -7.380188291863    -1.499919840646     0.489262920888    12.000000000000
         C           -4.918688659982    -1.500408669094     0.494187357497    12.000000000000
         C           -3.684442475410    -0.795890966800     0.483155117432    12.000000000000
         C           -2.460821219973    -1.511998829889     0.493698203621    12.000000000000
         C           -1.231166192046    -0.810827515945     0.481577824830    12.000000000000
         C           -0.007573805113    -1.526072500475     0.489034349133    12.000000000000
         C            1.223643536163    -0.823929028328     0.499039971082    12.000000000000
         C            2.445666469606    -1.538296940071     0.487289958322    12.000000000000
         C            3.676862523121    -0.835361082620     0.483149373927    12.000000000000
         C            6.132244666694    -0.848632490914     0.481621399715    12.000000000000
         C            4.903514965779    -1.553111171605     0.495462474255    12.000000000000
         C            8.599010668965     0.523950215603     0.486933451729    12.000000000000
         C            8.591741308375    -0.833504518258     0.488669831990    12.000000000000
         C            7.364858584664    -1.578986316670     0.488439655298    12.000000000000
         H           -9.528310151544     1.168193798128     0.485243149135     1.007825032230
         H            9.541406794881     1.065918837380     0.485881419468     1.007825032230
         C           -7.369842089494    -2.888198796998     0.491071129310    12.000000000000
         C           -4.924603288776    -2.917090908405     0.483339496874    12.000000000000
         C           -6.166626675393    -3.625305843890     0.489641337033    12.000000000000
         C           -3.702514539430    -3.633335200185     0.493663566060    12.000000000000
         C           -2.467651164839    -2.929979613868     0.481618927703    12.000000000000
         C           -0.015137653833    -2.941795296464     0.481900516212    12.000000000000
         C           -1.247126020952    -3.643385826627     0.493464469620    12.000000000000
         C            1.209240889918    -3.656568329708     0.496003499412    12.000000000000
         C            2.437331842429    -2.956295389240     0.481863741101    12.000000000000
         C            4.894298164045    -2.969776619350     0.482684481172    12.000000000000
         C            3.664611075316    -3.672873496596     0.495563901113    12.000000000000
         C            6.128634835020    -3.691237708782     0.488909743070    12.000000000000
         C            7.339668484970    -2.967066958435     0.490424969152    12.000000000000
         H           -9.541453290984    -1.283217117729     0.490205616855     1.007825032230
         H            9.528257688346    -1.385572724969     0.489919639751     1.007825032230
         H           -8.315169223574    -3.426803504277     0.495243357841     1.007825032230
         H            8.279150962767    -3.515794440958     0.494764525135     1.007825032230
         C           -6.144998368428    -5.036300923848     0.490967335093    12.000000000000
         C           -3.706787527723    -5.049915365182     0.481146367005    12.000000000000
         C           -4.955594237727    -5.752147624559     0.489113501650    12.000000000000
         C           -2.486125505952    -5.763439225474     0.494086038050    12.000000000000
         C           -1.254062515205    -5.064775701066     0.482910432064    12.000000000000
         C            1.201008394143    -5.077934039257     0.484091556322    12.000000000000
         C           -0.030340854139    -5.778173954203     0.491934755985    12.000000000000
         C            3.653745921603    -5.089397426479     0.484849556070    12.000000000000
         C            2.425488516150    -5.789828286592     0.494226486622    12.000000000000
         C            6.091961438086    -5.101911614451     0.491203969744    12.000000000000
         C            4.894972264885    -5.805002072022     0.489967773913    12.000000000000
         H           -7.089896567766    -5.575653493303     0.495370096774     1.007825032230
         H            7.031051029475    -5.651312187397     0.494783749507     1.007825032230
         C           -4.923549501924    -7.187474750742     0.488558732745    12.000000000000
         C           -2.485346267963    -7.196381728994     0.486048840309    12.000000000000
         C           -3.751690071504    -7.872600808701     0.486243519234    12.000000000000
         C           -0.037953136713    -7.208118525534     0.486264565457    12.000000000000
         C           -1.277960280127    -7.881558035731     0.484279872695    12.000000000000
         C            2.409440141001    -7.222675663067     0.487127766268    12.000000000000
         C            1.194745757428    -7.894839016627     0.484975475386    12.000000000000
         C            4.847616872773    -7.239915761644     0.489634580927    12.000000000000
         C            3.668467426150    -7.912441644008     0.487286146564    12.000000000000
         H           -5.869944530142    -7.722484249106     0.490102769611     1.007825032230
         H            5.788245445663    -7.784985840379     0.490761700409     1.007825032230
         H           -3.753531119175    -8.959725220301     0.484407604805     1.007825032230
         H           -1.284308585620    -8.969529043562     0.479852488837     1.007825032230
         H            1.189217394970    -8.982814271654     0.480882838696     1.007825032230
         H            3.658542435098    -8.999514285118     0.485631605141     1.007825032230

  Running in c1 symmetry.

  Rotational constants: A =      0.00061  B =      0.00061  C =      0.00035 [cm^-1]
  Rotational constants: A =     18.15985  B =     18.14548  C =     10.47228 [MHz]
  Nuclear repulsion = 17819.924746757737012

  Charge       = 1
  Multiplicity = 1
  Electrons    = 652
  Nalpha       = 326
  Nbeta        = 326

  ==> Algorithm <==

  SCF Algorithm Type is DF.
  DIIS enabled.
  MOM disabled.
  Fractional occupation disabled.
  Guess Type is SAD.
  Energy threshold   = 1.00e-08
  Density threshold  = 1.00e-08
  Integral threshold = 1.00e-12

  ==> Primary Basis <==

  Basis Set: JUN-CC-PVDZ
    Blend: JUN-CC-PVDZ
    Number of shells: 923
    Number of basis functions: 2019
    Number of Cartesian functions: 2122
    Spherical Harmonics?: true
    Max angular momentum: 2

   => Loading Basis Set <=

    Name: (JUN-CC-PVDZ AUX)
    Role: JKFIT
    Keyword: DF_BASIS_SCF
    atoms 1-2, 4-5, 10, 17-34, 41-53, 56-70, 73-89, 92-104, 109-119, 122-130 entry C          line   146 file /opt/software/pc2/EB-SW/software/PSI4/1.9-foss-2022a/share/psi4/basis/jun-cc-pvdz-jkfit.gbs 
    atoms 3, 6                                                               entry N          line   202 file /opt/software/pc2/EB-SW/software/PSI4/1.9-foss-2022a/share/psi4/basis/jun-cc-pvdz-jkfit.gbs 
    atoms 7-9, 11-16, 35-40, 54-55, 71-72, 90-91, 105-108, 120-121, 131-136  entry H          line    70 file /opt/software/pc2/EB-SW/software/PSI4/1.9-foss-2022a/share/psi4/basis/jun-cc-pvdz-jkfit.gbs 

  ==> Integral Setup <==

  ==> DiskDFJK: Density-Fitted J/K Matrices <==

    J tasked:                  Yes
    K tasked:                  Yes
    wK tasked:                  No
    OpenMP threads:             16
    Integrals threads:          16
    Memory [MiB]:            33617
    Algorithm:                Disk
    Integral Cache:           SAVE
    Schwarz Cutoff:          1E-12
    Fitting Condition:       1E-10

   => Auxiliary Basis Set <=

  Basis Set: (JUN-CC-PVDZ AUX)
    Blend: JUN-CC-PVDZ-JKFIT
    Number of shells: 3078
    Number of basis functions: 8896
    Number of Cartesian functions: 10198
    Spherical Harmonics?: true
    Max angular momentum: 3

  Minimum eigenvalue in the overlap matrix is 8.9219352732E-11.
  Reciprocal condition number of the overlap matrix is 3.8989224401E-12.
    Using canonical orthogonalization.
  Overall, 38 of 2019 possible MOs eliminated.


  ==> Pre-Iterations <==

  SCF Guess: Superposition of Atomic Densities via on-the-fly atomic UHF (no occupation information).

   -------------------------
    Irrep   Nso     Nmo    
   -------------------------
     A       2019    1981 
   -------------------------
    Total    2019    1981
   -------------------------

  ==> Iterations <==

                           Total Energy        Delta E     RMS |[F,P]|

   @DF-RHF iter SAD: -3967.13854879169867   -3.96714e+03   0.00000e+00 
   @DF-RHF iter   1: -3952.10782568503782    1.50307e+01   7.15629e-04 DIIS/ADIIS
   @DF-RHF iter   2: -3953.49844724534250   -1.39062e+00   2.34327e-04 DIIS/ADIIS
   @DF-RHF iter   3: -3953.62139733938102   -1.22950e-01   1.03151e-04 DIIS/ADIIS
   @DF-RHF iter   4: -3953.64465271489189   -2.32554e-02   4.37346e-05 DIIS
   @DF-RHF iter   5: -3953.64952349696523   -4.87078e-03   1.07587e-05 DIIS
   @DF-RHF iter   6: -3953.64998789506626   -4.64398e-04   4.62157e-06 DIIS
   @DF-RHF iter   7: -3953.65017499048281   -1.87095e-04   2.21102e-06 DIIS
   @DF-RHF iter   8: -3953.65023762040209   -6.26299e-05   1.10182e-06 DIIS
   @DF-RHF iter   9: -3953.65025510115038   -1.74807e-05   3.53858e-07 DIIS
   @DF-RHF iter  10: -3953.65025627998966   -1.17884e-06   1.44422e-07 DIIS
   @DF-RHF iter  11: -3953.65025642848332   -1.48494e-07   5.87968e-08 DIIS
   @DF-RHF iter  12: -3953.65025646052300   -3.20397e-08   2.91934e-08 DIIS
   @DF-RHF iter  13: -3953.65025646689173   -6.36874e-09   9.46260e-09 DIIS
  Energy and wave function converged.


  ==> Post-Iterations <==

    Orbital Energies [Eh]
    ---------------------

    Doubly Occupied:                                                      

       1A    -15.816218     2A    -15.815707     3A    -11.510734  
       4A    -11.443215     5A    -11.441659     6A    -11.430818  
       7A    -11.430731     8A    -11.326010     9A    -11.325046  
      10A    -11.324950    11A    -11.324526    12A    -11.324100  
      13A    -11.323990    14A    -11.323538    15A    -11.323522  
      16A    -11.323275    17A    -11.323221    18A    -11.322649  
      19A    -11.322529    20A    -11.322463    21A    -11.322206  
      22A    -11.322061    23A    -11.321722    24A    -11.321684  
      25A    -11.321039    26A    -11.320826    27A    -11.320825  
      28A    -11.320806    29A    -11.320651    30A    -11.320359  
      31A    -11.320353    32A    -11.319959    33A    -11.319767  
      34A    -11.319425    35A    -11.319413    36A    -11.318949  
      37A    -11.318807    38A    -11.318790    39A    -11.318344  
      40A    -11.318331    41A    -11.318163    42A    -11.318144  
      43A    -11.318094    44A    -11.318066    45A    -11.317675  
      46A    -11.317639    47A    -11.317541    48A    -11.317022  
      49A    -11.317006    50A    -11.316976    51A    -11.316950  
      52A    -11.316939    53A    -11.316919    54A    -11.316795  
      55A    -11.316769    56A    -11.316612    57A    -11.316594  
      58A    -11.316338    59A    -11.316153    60A    -11.316085  
      61A    -11.316056    62A    -11.315772    63A    -11.315745  
      64A    -11.315504    65A    -11.315474    66A    -11.314680  
      67A    -11.314656    68A    -11.314642    69A    -11.314611  
      70A    -11.314537    71A    -11.314409    72A    -11.314390  
      73A    -11.313926    74A    -11.313904    75A    -11.313351  
      76A    -11.313336    77A    -11.313176    78A    -11.312784  
      79A    -11.312775    80A    -11.309693    81A    -11.309615  
      82A    -11.309536    83A    -11.309506    84A    -11.308476  
      85A    -11.308431    86A    -11.308363    87A    -11.308330  
      88A    -11.307702    89A    -11.307683    90A    -11.306887  
      91A    -11.306853    92A    -11.306702    93A    -11.306665  
      94A    -11.306323    95A    -11.306312    96A    -11.305996  
      97A    -11.305914    98A    -11.305157    99A    -11.305121  
     100A    -11.304376   101A    -11.304369   102A    -11.302885  
     103A    -11.302880   104A     -1.560103   105A     -1.415545  
     106A     -1.313526   107A     -1.296877   108A     -1.296600  
     109A     -1.277133   110A     -1.277125   111A     -1.273395  
     112A     -1.256772   113A     -1.251836   114A     -1.245814  
     115A     -1.245634   116A     -1.229229   117A     -1.229226  
     118A     -1.220927   119A     -1.212841   120A     -1.212810  
     121A     -1.210126   122A     -1.199887   123A     -1.199867  
     124A     -1.184884   125A     -1.171808   126A     -1.170832  
     127A     -1.169767   128A     -1.169583   129A     -1.168217  
     130A     -1.166481   131A     -1.144603   132A     -1.144557  
     133A     -1.131893   134A     -1.131882   135A     -1.124326  
     136A     -1.124263   137A     -1.122031   138A     -1.102606  
     139A     -1.102575   140A     -1.100349   141A     -1.096309  
     142A     -1.093639   143A     -1.093633   144A     -1.082472  
     145A     -1.079442   146A     -1.079361   147A     -1.063257  
     148A     -1.062482   149A     -1.059428   150A     -1.057021  
     151A     -1.057000   152A     -1.045610   153A     -1.027188  
     154A     -1.027149   155A     -1.011077   156A     -1.011055  
     157A     -1.004827   158A     -0.978576   159A     -0.963369  
     160A     -0.963261   161A     -0.962454   162A     -0.959972  
     163A     -0.959937   164A     -0.949972   165A     -0.949938  
     166A     -0.947573   167A     -0.947189   168A     -0.945674  
     169A     -0.927101   170A     -0.922765   171A     -0.907001  
     172A     -0.904777   173A     -0.904550   174A     -0.902339  
     175A     -0.899310   176A     -0.898691   177A     -0.890142  
     178A     -0.890107   179A     -0.882541   180A     -0.882529  
     181A     -0.841360   182A     -0.841246   183A     -0.839280  
     184A     -0.838638   185A     -0.838373   186A     -0.837784  
     187A     -0.837439   188A     -0.832312   189A     -0.823010  
     190A     -0.818056   191A     -0.806906   192A     -0.798716  
     193A     -0.794170   194A     -0.788207   195A     -0.782979  
     196A     -0.782820   197A     -0.781024   198A     -0.780424  
     199A     -0.780320   200A     -0.775217   201A     -0.772270  
     202A     -0.770223   203A     -0.770212   204A     -0.767848  
     205A     -0.764618   206A     -0.754641   207A     -0.754639  
     208A     -0.742733   209A     -0.741094   210A     -0.741074  
     211A     -0.737644   212A     -0.737635   213A     -0.734499  
     214A     -0.710715   215A     -0.708485   216A     -0.706913  
     217A     -0.706696   218A     -0.706657   219A     -0.705856  
     220A     -0.705787   221A     -0.704393   222A     -0.698825  
     223A     -0.697318   224A     -0.697223   225A     -0.695363  
     226A     -0.694291   227A     -0.691937   228A     -0.691920  
     229A     -0.684734   230A     -0.678037   231A     -0.669861  
     232A     -0.669845   233A     -0.664177   234A     -0.664136  
     235A     -0.657310   236A     -0.656938   237A     -0.655321  
     238A     -0.654997   239A     -0.654980   240A     -0.654312  
     241A     -0.650449   242A     -0.650284   243A     -0.650218  
     244A     -0.650035   245A     -0.646966   246A     -0.646914  
     247A     -0.644391   248A     -0.632401   249A     -0.632397  
     250A     -0.631632   251A     -0.631622   252A     -0.628699  
     253A     -0.627962   254A     -0.624745   255A     -0.624654  
     256A     -0.621852   257A     -0.621709   258A     -0.614643  
     259A     -0.614546   260A     -0.614530   261A     -0.612539  
     262A     -0.609927   263A     -0.606173   264A     -0.600965  
     265A     -0.600451   266A     -0.593020   267A     -0.592794  
     268A     -0.588767   269A     -0.588637   270A     -0.584506  
     271A     -0.582996   272A     -0.582968   273A     -0.578349  
     274A     -0.572834   275A     -0.572710   276A     -0.570613  
     277A     -0.570610   278A     -0.564272   279A     -0.564201  
     280A     -0.553441   281A     -0.552105   282A     -0.552059  
     283A     -0.551144   284A     -0.551114   285A     -0.547217  
     286A     -0.536069   287A     -0.532295   288A     -0.532273  
     289A     -0.529103   290A     -0.525876   291A     -0.522317  
     292A     -0.522208   293A     -0.515119   294A     -0.506752  
     295A     -0.503947   296A     -0.503802   297A     -0.498342  
     298A     -0.498298   299A     -0.498080   300A     -0.489187  
     301A     -0.488628   302A     -0.463595   303A     -0.463536  
     304A     -0.443478   305A     -0.443408   306A     -0.441204  
     307A     -0.440199   308A     -0.440121   309A     -0.410210  
     310A     -0.410163   311A     -0.406646   312A     -0.396901  
     313A     -0.394884   314A     -0.394794   315A     -0.387181  
     316A     -0.387109   317A     -0.364327   318A     -0.359191  
     319A     -0.359151   320A     -0.356238   321A     -0.341557  
     322A     -0.310480   323A     -0.310438   324A     -0.310036  
     325A     -0.259867   326A     -0.259791  

    Virtual:                                                              

     327A     -0.067159   328A     -0.067009   329A     -0.050255  
     330A     -0.046455   331A     -0.039031   332A     -0.030294  
     333A     -0.021895   334A     -0.021793   335A     -0.017187  
     336A     -0.014737   337A     -0.013750   338A     -0.012538  
     339A     -0.005079   340A     -0.001829   341A      0.000604  
     342A      0.001093   343A      0.002482   344A      0.004131  
     345A      0.007896   346A      0.008916   347A      0.010334  
     348A      0.010584   349A      0.010702   350A      0.012297  
     351A      0.013204   352A      0.013346   353A      0.015777  
     354A      0.016966   355A      0.017824   356A      0.018362  
     357A      0.018777   358A      0.022918   359A      0.023434  
     360A      0.023855   361A      0.026004   362A      0.028886  
     363A      0.029177   364A      0.029724   365A      0.029750  
     366A      0.033495   367A      0.038248   368A      0.039094  
     369A      0.039315   370A      0.039770   371A      0.041079  
     372A      0.041458   373A      0.044300   374A      0.047298  
     375A      0.048618   376A      0.049260   377A      0.051482  
     378A      0.052087   379A      0.052606   380A      0.054143  
     381A      0.056593   382A      0.057047   383A      0.057941  
     384A      0.059400   385A      0.060349   386A      0.060566  
     387A      0.060885   388A      0.061319   389A      0.061400  
     390A      0.063558   391A      0.065221   392A      0.067601  
     393A      0.070057   394A      0.070963   395A      0.071486  
     396A      0.072239   397A      0.075186   398A      0.076193  
     399A      0.080654   400A      0.081498   401A      0.082368  
     402A      0.083116   403A      0.084754   404A      0.085517  
     405A      0.086116   406A      0.088023   407A      0.089575  
     408A      0.090886   409A      0.091738   410A      0.091983  
     411A      0.093041   412A      0.095800   413A      0.097053  
     414A      0.097716   415A      0.098351   416A      0.101341  
     417A      0.102511   418A      0.102820   419A      0.105781  
     420A      0.109934   421A      0.110168   422A      0.110604  
     423A      0.110895   424A      0.112116   425A      0.112560  
     426A      0.113270   427A      0.115295   428A      0.115743  
     429A      0.115989   430A      0.118935   431A      0.119488  
     432A      0.119878   433A      0.121921   434A      0.122737  
     435A      0.124344   436A      0.125757   437A      0.126684  
     438A      0.128003   439A      0.131398   440A      0.131540  
     441A      0.132539   442A      0.133655   443A      0.137000  
     444A      0.137128   445A      0.139339   446A      0.140473  
     447A      0.140527   448A      0.141843   449A      0.142543  
     450A      0.145641   451A      0.148445   452A      0.149731  
     453A      0.150168   454A      0.150795   455A      0.150915  
     456A      0.151779   457A      0.152991   458A      0.153868  
     459A      0.154278   460A      0.155808   461A      0.156007  
     462A      0.156968   463A      0.157599   464A      0.158171  
     465A      0.159384   466A      0.159739   467A      0.160481  
     468A      0.161171   469A      0.162325   470A      0.162883  
     471A      0.164713   472A      0.165432   473A      0.166229  
     474A      0.166674   475A      0.168056   476A      0.168946  
     477A      0.169833   478A      0.169863   479A      0.171228  
     480A      0.171780   481A      0.172299   482A      0.173609  
     483A      0.174332   484A      0.174764   485A      0.175251  
     486A      0.177106   487A      0.179182   488A      0.179687  
     489A      0.180015   490A      0.180228   491A      0.181633  
     492A      0.184965   493A      0.186296   494A      0.186337  
     495A      0.186959   496A      0.188775   497A      0.189572  
     498A      0.190043   499A      0.191221   500A      0.191870  
     501A      0.193170   502A      0.195013   503A      0.196701  
     504A      0.196970   505A      0.197679   506A      0.199471  
     507A      0.200094   508A      0.202657   509A      0.204016  
     510A      0.204076   511A      0.205529   512A      0.207580  
     513A      0.208692   514A      0.208738   515A      0.211384  
     516A      0.212805   517A      0.213179   518A      0.214058  
     519A      0.215517   520A      0.215761   521A      0.216181  
     522A      0.217228   523A      0.217520   524A      0.218631  
     525A      0.220369   526A      0.222810   527A      0.224452  
     528A      0.225104   529A      0.225587   530A      0.226173  
     531A      0.226719   532A      0.227144   533A      0.227672  
     534A      0.228927   535A      0.231205   536A      0.231397  
     537A      0.233455   538A      0.234746   539A      0.235295  
     540A      0.235627   541A      0.238065   542A      0.239882  
     543A      0.240345   544A      0.240641   545A      0.240853  
     546A      0.242554   547A      0.243448   548A      0.244266  
     549A      0.245264   550A      0.245974   551A      0.247657  
     552A      0.249062   553A      0.251147   554A      0.251932  
     555A      0.252655   556A      0.253512   557A      0.254278  
     558A      0.254818   559A      0.255288   560A      0.256243  
     561A      0.257330   562A      0.258265   563A      0.259117  
     564A      0.261686   565A      0.261817   566A      0.263855  
     567A      0.264552   568A      0.265926   569A      0.266981  
     570A      0.267704   571A      0.267763   572A      0.268359  
     573A      0.268551   574A      0.268751   575A      0.269269  
     576A      0.270942   577A      0.271597   578A      0.273722  
     579A      0.274040   580A      0.276617   581A      0.278088  
     582A      0.279254   583A      0.279386   584A      0.279783  
     585A      0.280197   586A      0.280935   587A      0.281252  
     588A      0.281758   589A      0.283315   590A      0.283650  
     591A      0.286249   592A      0.286661   593A      0.288638  
     594A      0.289411   595A      0.289814   596A      0.291903  
     597A      0.292196   598A      0.293780   599A      0.294112  
     600A      0.294462   601A      0.294879   602A      0.295457  
     603A      0.296722   604A      0.297479   605A      0.297859  
     606A      0.298884   607A      0.300523   608A      0.301278  
     609A      0.302746   610A      0.303401   611A      0.305329  
     612A      0.307294   613A      0.308831   614A      0.309787  
     615A      0.310688   616A      0.312077   617A      0.314021  
     618A      0.314920   619A      0.315226   620A      0.316477  
     621A      0.316678   622A      0.317729   623A      0.318720  
     624A      0.321156   625A      0.323326   626A      0.324459  
     627A      0.325087   628A      0.326124   629A      0.326752  
     630A      0.327125   631A      0.328449   632A      0.328848  
     633A      0.329373   634A      0.329824   635A      0.330569  
     636A      0.332948   637A      0.333383   638A      0.337540  
     639A      0.338747   640A      0.339725   641A      0.340503  
     642A      0.340575   643A      0.341060   644A      0.341645  
     645A      0.342659   646A      0.342927   647A      0.343912  
     648A      0.343996   649A      0.344679   650A      0.344827  
     651A      0.345790   652A      0.346819   653A      0.347674  
     654A      0.348980   655A      0.349962   656A      0.350482  
     657A      0.350870   658A      0.351413   659A      0.351997  
     660A      0.352850   661A      0.353521   662A      0.355230  
     663A      0.355653   664A      0.356005   665A      0.357053  
     666A      0.357595   667A      0.358785   668A      0.360163  
     669A      0.361171   670A      0.361383   671A      0.362741  
     672A      0.362870   673A      0.363573   674A      0.365298  
     675A      0.365928   676A      0.366198   677A      0.366949  
     678A      0.368585   679A      0.371018   680A      0.373068  
     681A      0.374472   682A      0.375282   683A      0.375819  
     684A      0.376211   685A      0.376688   686A      0.377206  
     687A      0.377465   688A      0.378114   689A      0.379316  
     690A      0.381504   691A      0.382084   692A      0.383098  
     693A      0.383521   694A      0.385031   695A      0.385909  
     696A      0.387359   697A      0.387889   698A      0.388811  
     699A      0.391698   700A      0.392069   701A      0.396386  
     702A      0.397065   703A      0.398511   704A      0.399217  
     705A      0.399555   706A      0.400306   707A      0.400701  
     708A      0.401470   709A      0.401982   710A      0.402353  
     711A      0.403721   712A      0.404939   713A      0.406067  
     714A      0.406940   715A      0.408650   716A      0.409636  
     717A      0.410785   718A      0.411745   719A      0.412431  
     720A      0.412894   721A      0.414654   722A      0.414952  
     723A      0.415880   724A      0.416600   725A      0.417331  
     726A      0.418483   727A      0.419192   728A      0.420550  
     729A      0.421104   730A      0.421454   731A      0.422684  
     732A      0.423157   733A      0.423713   734A      0.425452  
     735A      0.426153   736A      0.428474   737A      0.428803  
     738A      0.430065   739A      0.432016   740A      0.432755  
     741A      0.433944   742A      0.435356   743A      0.436420  
     744A      0.439261   745A      0.439516   746A      0.439667  
     747A      0.440731   748A      0.443456   749A      0.443622  
     750A      0.445039   751A      0.447342   752A      0.448729  
     753A      0.449344   754A      0.450560   755A      0.450896  
     756A      0.451264   757A      0.452906   758A      0.453695  
     759A      0.455929   760A      0.457698   761A      0.458781  
     762A      0.461759   763A      0.462024   764A      0.462644  
     765A      0.463253   766A      0.464657   767A      0.465035  
     768A      0.465822   769A      0.467851   770A      0.468897  
     771A      0.471280   772A      0.472339   773A      0.474224  
     774A      0.476620   775A      0.478372   776A      0.478458  
     777A      0.479103   778A      0.484082   779A      0.484475  
     780A      0.484805   781A      0.486188   782A      0.486561  
     783A      0.490186   784A      0.490569   785A      0.492046  
     786A      0.493667   787A      0.501178   788A      0.502999  
     789A      0.504400   790A      0.507558   791A      0.508428  
     792A      0.509734   793A      0.510936   794A      0.512407  
     795A      0.513544   796A      0.515478   797A      0.516253  
     798A      0.517021   799A      0.517830   800A      0.518678  
     801A      0.521254   802A      0.521880   803A      0.523174  
     804A      0.524031   805A      0.524583   806A      0.524843  
     807A      0.526846   808A      0.528942   809A      0.531163  
     810A      0.532004   811A      0.533774   812A      0.535197  
     813A      0.535395   814A      0.536953   815A      0.537494  
     816A      0.537949   817A      0.541871   818A      0.542986  
     819A      0.544332   820A      0.547439   821A      0.548123  
     822A      0.549729   823A      0.550895   824A      0.551542  
     825A      0.557845   826A      0.561491   827A      0.563805  
     828A      0.564725   829A      0.565823   830A      0.566378  
     831A      0.571519   832A      0.574875   833A      0.575590  
     834A      0.576475   835A      0.578643   836A      0.583761  
     837A      0.585780   838A      0.590029   839A      0.591781  
     840A      0.597173   841A      0.600385   842A      0.601471  
     843A      0.602810   844A      0.604616   845A      0.605276  
     846A      0.605354   847A      0.610492   848A      0.610874  
     849A      0.611026   850A      0.615714   851A      0.616530  
     852A      0.624957   853A      0.630070   854A      0.630721  
     855A      0.631156   856A      0.631545   857A      0.634987  
     858A      0.636388   859A      0.636538   860A      0.638222  
     861A      0.641081   862A      0.643600   863A      0.645349  
     864A      0.645575   865A      0.646368   866A      0.650755  
     867A      0.651581   868A      0.654510   869A      0.656154  
     870A      0.664300   871A      0.666022   872A      0.669315  
     873A      0.673167   874A      0.677250   875A      0.678135  
     876A      0.685099   877A      0.685384   878A      0.685925  
     879A      0.687394   880A      0.688996   881A      0.689567  
     882A      0.690291   883A      0.692040   884A      0.695497  
     885A      0.695950   886A      0.699099   887A      0.704803  
     888A      0.713919   889A      0.716648   890A      0.719825  
     891A      0.724907   892A      0.728260   893A      0.729307  
     894A      0.730508   895A      0.733795   896A      0.734837  
     897A      0.737577   898A      0.738709   899A      0.739646  
     900A      0.740981   901A      0.745773   902A      0.747452  
     903A      0.749342   904A      0.749783   905A      0.754393  
     906A      0.754922   907A      0.756382   908A      0.757799  
     909A      0.759388   910A      0.761070   911A      0.762712  
     912A      0.764194   913A      0.764319   914A      0.767623  
     915A      0.767931   916A      0.771097   917A      0.772997  
     918A      0.774303   919A      0.777208   920A      0.778714  
     921A      0.780759   922A      0.781899   923A      0.782513  
     924A      0.784861   925A      0.786414   926A      0.787107  
     927A      0.791064   928A      0.792205   929A      0.794033  
     930A      0.794433   931A      0.799145   932A      0.800017  
     933A      0.801316   934A      0.804085   935A      0.805293  
     936A      0.807581   937A      0.808904   938A      0.809593  
     939A      0.812331   940A      0.814303   941A      0.815537  
     942A      0.816109   943A      0.816424   944A      0.817525  
     945A      0.818602   946A      0.820408   947A      0.821337  
     948A      0.822380   949A      0.824067   950A      0.824710  
     951A      0.827283   952A      0.828792   953A      0.831475  
     954A      0.832310   955A      0.832796   956A      0.835349  
     957A      0.835502   958A      0.837796   959A      0.838935  
     960A      0.839307   961A      0.843952   962A      0.846050  
     963A      0.846511   964A      0.848428   965A      0.853280  
     966A      0.853547   967A      0.854375   968A      0.858237  
     969A      0.861225   970A      0.862931   971A      0.863140  
     972A      0.865382   973A      0.865902   974A      0.867031  
     975A      0.867706   976A      0.868420   977A      0.868934  
     978A      0.869852   979A      0.873602   980A      0.873946  
     981A      0.876873   982A      0.877298   983A      0.879339  
     984A      0.879527   985A      0.880381   986A      0.883516  
     987A      0.885428   988A      0.888812   989A      0.889658  
     990A      0.890541   991A      0.891346   992A      0.893504  
     993A      0.894414   994A      0.895621   995A      0.897111  
     996A      0.898218   997A      0.898908   998A      0.899278  
     999A      0.900111  1000A      0.902414  1001A      0.902574  
    1002A      0.903221  1003A      0.903437  1004A      0.905288  
    1005A      0.907786  1006A      0.912012  1007A      0.912521  
    1008A      0.914523  1009A      0.916090  1010A      0.916912  
    1011A      0.918985  1012A      0.921520  1013A      0.925509  
    1014A      0.928865  1015A      0.929112  1016A      0.931970  
    1017A      0.932991  1018A      0.939666  1019A      0.939856  
    1020A      0.940183  1021A      0.940825  1022A      0.947254  
    1023A      0.947432  1024A      0.948724  1025A      0.950214  
    1026A      0.950986  1027A      0.951648  1028A      0.952389  
    1029A      0.956047  1030A      0.959368  1031A      0.961660  
    1032A      0.961688  1033A      0.963161  1034A      0.965271  
    1035A      0.965972  1036A      0.967383  1037A      0.968803  
    1038A      0.969918  1039A      0.974156  1040A      0.976352  
    1041A      0.978898  1042A      0.979836  1043A      0.982609  
    1044A      0.983265  1045A      0.983911  1046A      0.986824  
    1047A      0.988988  1048A      0.990481  1049A      0.991361  
    1050A      0.991633  1051A      0.992690  1052A      0.993748  
    1053A      0.993892  1054A      0.994460  1055A      0.996827  
    1056A      0.997589  1057A      0.998413  1058A      0.998884  
    1059A      0.998925  1060A      0.999346  1061A      1.003382  
    1062A      1.006278  1063A      1.006900  1064A      1.008141  
    1065A      1.009756  1066A      1.009864  1067A      1.011770  
    1068A      1.012145  1069A      1.012626  1070A      1.013965  
    1071A      1.014365  1072A      1.015738  1073A      1.016797  
    1074A      1.017168  1075A      1.017954  1076A      1.018585  
    1077A      1.019095  1078A      1.019282  1079A      1.020226  
    1080A      1.021058  1081A      1.021508  1082A      1.022439  
    1083A      1.022983  1084A      1.023229  1085A      1.024211  
    1086A      1.025432  1087A      1.026821  1088A      1.027144  
    1089A      1.027975  1090A      1.028482  1091A      1.028945  
    1092A      1.029890  1093A      1.031760  1094A      1.032427  
    1095A      1.033590  1096A      1.033991  1097A      1.034434  
    1098A      1.035522  1099A      1.035707  1100A      1.036480  
    1101A      1.040037  1102A      1.040683  1103A      1.041921  
    1104A      1.043117  1105A      1.043703  1106A      1.045251  
    1107A      1.046147  1108A      1.046811  1109A      1.048340  
    1110A      1.048588  1111A      1.050315  1112A      1.050809  
    1113A      1.056087  1114A      1.057446  1115A      1.058741  
    1116A      1.062777  1117A      1.064276  1118A      1.065002  
    1119A      1.065808  1120A      1.066691  1121A      1.072373  
    1122A      1.074828  1123A      1.075937  1124A      1.076647  
    1125A      1.078573  1126A      1.078724  1127A      1.078913  
    1128A      1.081551  1129A      1.082232  1130A      1.083648  
    1131A      1.084822  1132A      1.087854  1133A      1.089637  
    1134A      1.089786  1135A      1.091770  1136A      1.092718  
    1137A      1.094138  1138A      1.095415  1139A      1.096008  
    1140A      1.100105  1141A      1.101782  1142A      1.102442  
    1143A      1.103766  1144A      1.104031  1145A      1.107347  
    1146A      1.109415  1147A      1.112186  1148A      1.114114  
    1149A      1.115557  1150A      1.116625  1151A      1.120616  
    1152A      1.121138  1153A      1.126408  1154A      1.127053  
    1155A      1.128353  1156A      1.130292  1157A      1.131901  
    1158A      1.133151  1159A      1.136733  1160A      1.138228  
    1161A      1.138661  1162A      1.146085  1163A      1.146760  
    1164A      1.147133  1165A      1.148143  1166A      1.150605  
    1167A      1.150747  1168A      1.154021  1169A      1.156343  
    1170A      1.157412  1171A      1.160689  1172A      1.162474  
    1173A      1.163328  1174A      1.164853  1175A      1.165772  
    1176A      1.168758  1177A      1.169970  1178A      1.171265  
    1179A      1.172448  1180A      1.173052  1181A      1.173949  
    1182A      1.178674  1183A      1.180243  1184A      1.191634  
    1185A      1.191789  1186A      1.194359  1187A      1.197441  
    1188A      1.198176  1189A      1.201368  1190A      1.206582  
    1191A      1.207499  1192A      1.207966  1193A      1.208758  
    1194A      1.209315  1195A      1.215851  1196A      1.216996  
    1197A      1.218497  1198A      1.221144  1199A      1.227371  
    1200A      1.231599  1201A      1.232292  1202A      1.235850  
    1203A      1.236990  1204A      1.237936  1205A      1.239479  
    1206A      1.240783  1207A      1.242660  1208A      1.244129  
    1209A      1.248691  1210A      1.249324  1211A      1.251837  
    1212A      1.252316  1213A      1.253168  1214A      1.258930  
    1215A      1.259318  1216A      1.260565  1217A      1.261520  
    1218A      1.265140  1219A      1.265293  1220A      1.266404  
    1221A      1.266979  1222A      1.268702  1223A      1.272638  
    1224A      1.273098  1225A      1.276170  1226A      1.277520  
    1227A      1.278014  1228A      1.281883  1229A      1.282220  
    1230A      1.284830  1231A      1.285173  1232A      1.287987  
    1233A      1.290137  1234A      1.292042  1235A      1.298688  
    1236A      1.300394  1237A      1.300473  1238A      1.303205  
    1239A      1.303773  1240A      1.307138  1241A      1.309481  
    1242A      1.309660  1243A      1.312161  1244A      1.313798  
    1245A      1.316820  1246A      1.318676  1247A      1.319483  
    1248A      1.322809  1249A      1.324763  1250A      1.329928  
    1251A      1.334412  1252A      1.336096  1253A      1.336863  
    1254A      1.341020  1255A      1.341281  1256A      1.341566  
    1257A      1.345452  1258A      1.347582  1259A      1.349735  
    1260A      1.352280  1261A      1.353101  1262A      1.354286  
    1263A      1.354904  1264A      1.357801  1265A      1.359528  
    1266A      1.360004  1267A      1.364809  1268A      1.365939  
    1269A      1.366795  1270A      1.367486  1271A      1.368856  
    1272A      1.371598  1273A      1.372575  1274A      1.373098  
    1275A      1.375277  1276A      1.377868  1277A      1.378729  
    1278A      1.380525  1279A      1.382213  1280A      1.382738  
    1281A      1.385045  1282A      1.387219  1283A      1.388725  
    1284A      1.391214  1285A      1.391866  1286A      1.393258  
    1287A      1.394439  1288A      1.396437  1289A      1.397592  
    1290A      1.400588  1291A      1.401656  1292A      1.402890  
    1293A      1.408954  1294A      1.411118  1295A      1.415148  
    1296A      1.416405  1297A      1.417650  1298A      1.417730  
    1299A      1.419453  1300A      1.426897  1301A      1.429412  
    1302A      1.429953  1303A      1.431398  1304A      1.435430  
    1305A      1.439805  1306A      1.440583  1307A      1.445322  
    1308A      1.447881  1309A      1.450389  1310A      1.451087  
    1311A      1.454210  1312A      1.461677  1313A      1.463450  
    1314A      1.482098  1315A      1.485337  1316A      1.485581  
    1317A      1.489046  1318A      1.495352  1319A      1.497141  
    1320A      1.497298  1321A      1.501979  1322A      1.526004  
    1323A      1.527593  1324A      1.537044  1325A      1.539177  
    1326A      1.540698  1327A      1.544563  1328A      1.546532  
    1329A      1.547355  1330A      1.549194  1331A      1.549776  
    1332A      1.551167  1333A      1.553924  1334A      1.554422  
    1335A      1.555663  1336A      1.556596  1337A      1.557809  
    1338A      1.558075  1339A      1.558929  1340A      1.559999  
    1341A      1.560661  1342A      1.563930  1343A      1.565555  
    1344A      1.566439  1345A      1.567626  1346A      1.570277  
    1347A      1.571352  1348A      1.572113  1349A      1.574236  
    1350A      1.574661  1351A      1.579200  1352A      1.579981  
    1353A      1.580530  1354A      1.581858  1355A      1.582152  
    1356A      1.582605  1357A      1.583394  1358A      1.584195  
    1359A      1.585037  1360A      1.587645  1361A      1.588377  
    1362A      1.589853  1363A      1.591103  1364A      1.595131  
    1365A      1.596674  1366A      1.597191  1367A      1.601052  
    1368A      1.601265  1369A      1.602044  1370A      1.608519  
    1371A      1.609061  1372A      1.611605  1373A      1.611892  
    1374A      1.612331  1375A      1.613302  1376A      1.613326  
    1377A      1.614690  1378A      1.620972  1379A      1.621679  
    1380A      1.622038  1381A      1.622917  1382A      1.630516  
    1383A      1.632389  1384A      1.633713  1385A      1.637305  
    1386A      1.639689  1387A      1.639923  1388A      1.641060  
    1389A      1.641758  1390A      1.643287  1391A      1.644373  
    1392A      1.653919  1393A      1.654120  1394A      1.654313  
    1395A      1.658517  1396A      1.660557  1397A      1.660901  
    1398A      1.663688  1399A      1.665051  1400A      1.665983  
    1401A      1.666307  1402A      1.669073  1403A      1.670062  
    1404A      1.682271  1405A      1.682721  1406A      1.689311  
    1407A      1.690388  1408A      1.691690  1409A      1.692187  
    1410A      1.693960  1411A      1.694807  1412A      1.695827  
    1413A      1.707824  1414A      1.709090  1415A      1.709603  
    1416A      1.713181  1417A      1.724309  1418A      1.730547  
    1419A      1.731269  1420A      1.733384  1421A      1.733815  
    1422A      1.745495  1423A      1.745796  1424A      1.753677  
    1425A      1.758141  1426A      1.763435  1427A      1.766403  
    1428A      1.768199  1429A      1.771160  1430A      1.771747  
    1431A      1.772628  1432A      1.773349  1433A      1.774110  
    1434A      1.775985  1435A      1.776622  1436A      1.777824  
    1437A      1.779781  1438A      1.780467  1439A      1.781280  
    1440A      1.781902  1441A      1.782139  1442A      1.784311  
    1443A      1.787628  1444A      1.789219  1445A      1.801886  
    1446A      1.802072  1447A      1.804667  1448A      1.805021  
    1449A      1.806995  1450A      1.807133  1451A      1.810105  
    1452A      1.810751  1453A      1.815313  1454A      1.815644  
    1455A      1.816235  1456A      1.818797  1457A      1.819614  
    1458A      1.820672  1459A      1.826259  1460A      1.827158  
    1461A      1.827542  1462A      1.828333  1463A      1.828792  
    1464A      1.829500  1465A      1.830102  1466A      1.831414  
    1467A      1.833212  1468A      1.833419  1469A      1.833661  
    1470A      1.838407  1471A      1.845879  1472A      1.848025  
    1473A      1.849201  1474A      1.851488  1475A      1.851539  
    1476A      1.856357  1477A      1.859176  1478A      1.859576  
    1479A      1.861751  1480A      1.865130  1481A      1.865664  
    1482A      1.866245  1483A      1.868494  1484A      1.869003  
    1485A      1.869793  1486A      1.871546  1487A      1.876036  
    1488A      1.881374  1489A      1.882019  1490A      1.883657  
    1491A      1.884568  1492A      1.884709  1493A      1.884975  
    1494A      1.885810  1495A      1.886810  1496A      1.889393  
    1497A      1.889790  1498A      1.891285  1499A      1.895951  
    1500A      1.897465  1501A      1.899787  1502A      1.901471  
    1503A      1.903474  1504A      1.905193  1505A      1.905822  
    1506A      1.906204  1507A      1.908076  1508A      1.912443  
    1509A      1.913022  1510A      1.914113  1511A      1.916119  
    1512A      1.917269  1513A      1.918007  1514A      1.921304  
    1515A      1.924480  1516A      1.927445  1517A      1.928698  
    1518A      1.929697  1519A      1.934819  1520A      1.937078  
    1521A      1.937303  1522A      1.938463  1523A      1.938815  
    1524A      1.941010  1525A      1.952034  1526A      1.952932  
    1527A      1.955399  1528A      1.956100  1529A      1.957233  
    1530A      1.960718  1531A      1.961176  1532A      1.962001  
    1533A      1.962541  1534A      1.963836  1535A      1.964303  
    1536A      1.964896  1537A      1.966469  1538A      1.969318  
    1539A      1.972315  1540A      1.974755  1541A      1.977152  
    1542A      1.978786  1543A      1.979888  1544A      1.983456  
    1545A      1.984092  1546A      1.987175  1547A      1.987531  
    1548A      1.991864  1549A      1.994761  1550A      1.997313  
    1551A      1.997948  1552A      1.999228  1553A      2.000723  
    1554A      2.002919  1555A      2.003536  1556A      2.004388  
    1557A      2.004970  1558A      2.005805  1559A      2.011217  
    1560A      2.013519  1561A      2.013734  1562A      2.015276  
    1563A      2.020338  1564A      2.022892  1565A      2.024566  
    1566A      2.024970  1567A      2.025433  1568A      2.026091  
    1569A      2.027521  1570A      2.027808  1571A      2.028609  
    1572A      2.031150  1573A      2.032162  1574A      2.033386  
    1575A      2.034244  1576A      2.035633  1577A      2.035936  
    1578A      2.037200  1579A      2.038219  1580A      2.038919  
    1581A      2.040290  1582A      2.041090  1583A      2.041780  
    1584A      2.043521  1585A      2.044746  1586A      2.046596  
    1587A      2.046784  1588A      2.047596  1589A      2.052238  
    1590A      2.055335  1591A      2.057139  1592A      2.057310  
    1593A      2.057811  1594A      2.058398  1595A      2.058840  
    1596A      2.061622  1597A      2.062754  1598A      2.064226  
    1599A      2.068156  1600A      2.071322  1601A      2.071843  
    1602A      2.071991  1603A      2.072361  1604A      2.072523  
    1605A      2.073450  1606A      2.073767  1607A      2.075640  
    1608A      2.079896  1609A      2.080786  1610A      2.081615  
    1611A      2.082510  1612A      2.086224  1613A      2.088108  
    1614A      2.089183  1615A      2.089855  1616A      2.090687  
    1617A      2.092586  1618A      2.099058  1619A      2.099538  
    1620A      2.100936  1621A      2.102950  1622A      2.103040  
    1623A      2.103983  1624A      2.104184  1625A      2.105316  
    1626A      2.108858  1627A      2.109312  1628A      2.115900  
    1629A      2.116249  1630A      2.123642  1631A      2.125058  
    1632A      2.127142  1633A      2.127551  1634A      2.131530  
    1635A      2.132863  1636A      2.133772  1637A      2.134142  
    1638A      2.135446  1639A      2.136701  1640A      2.137669  
    1641A      2.140815  1642A      2.141567  1643A      2.143229  
    1644A      2.144000  1645A      2.145386  1646A      2.146054  
    1647A      2.150001  1648A      2.150945  1649A      2.151524  
    1650A      2.154287  1651A      2.158004  1652A      2.158407  
    1653A      2.161318  1654A      2.163902  1655A      2.167473  
    1656A      2.167992  1657A      2.168583  1658A      2.168919  
    1659A      2.170511  1660A      2.173423  1661A      2.177060  
    1662A      2.177337  1663A      2.178887  1664A      2.179975  
    1665A      2.181021  1666A      2.182236  1667A      2.182610  
    1668A      2.184126  1669A      2.186960  1670A      2.191714  
    1671A      2.193993  1672A      2.194462  1673A      2.195464  
    1674A      2.208200  1675A      2.208532  1676A      2.210549  
    1677A      2.211469  1678A      2.212517  1679A      2.216988  
    1680A      2.218137  1681A      2.220469  1682A      2.227922  
    1683A      2.229148  1684A      2.235710  1685A      2.237505  
    1686A      2.239896  1687A      2.242308  1688A      2.246049  
    1689A      2.248867  1690A      2.249512  1691A      2.253826  
    1692A      2.258756  1693A      2.267629  1694A      2.269420  
    1695A      2.269748  1696A      2.271798  1697A      2.273665  
    1698A      2.275264  1699A      2.275525  1700A      2.276314  
    1701A      2.276806  1702A      2.277675  1703A      2.279595  
    1704A      2.282905  1705A      2.285914  1706A      2.286536  
    1707A      2.286843  1708A      2.288774  1709A      2.289255  
    1710A      2.290101  1711A      2.292406  1712A      2.292759  
    1713A      2.310212  1714A      2.314524  1715A      2.315112  
    1716A      2.317888  1717A      2.329123  1718A      2.332318  
    1719A      2.334198  1720A      2.335258  1721A      2.336932  
    1722A      2.340254  1723A      2.353101  1724A      2.362697  
    1725A      2.363298  1726A      2.364267  1727A      2.367593  
    1728A      2.372341  1729A      2.375516  1730A      2.386354  
    1731A      2.388336  1732A      2.395959  1733A      2.396868  
    1734A      2.409251  1735A      2.409281  1736A      2.412665  
    1737A      2.412815  1738A      2.416982  1739A      2.417274  
    1740A      2.436823  1741A      2.437343  1742A      2.438296  
    1743A      2.447471  1744A      2.452608  1745A      2.453156  
    1746A      2.456944  1747A      2.462343  1748A      2.468087  
    1749A      2.482983  1750A      2.483318  1751A      2.485021  
    1752A      2.485943  1753A      2.487376  1754A      2.489009  
    1755A      2.490168  1756A      2.492118  1757A      2.493826  
    1758A      2.494947  1759A      2.496732  1760A      2.499311  
    1761A      2.499495  1762A      2.508505  1763A      2.515935  
    1764A      2.516882  1765A      2.518388  1766A      2.526639  
    1767A      2.530189  1768A      2.530453  1769A      2.531195  
    1770A      2.531478  1771A      2.535648  1772A      2.536121  
    1773A      2.538046  1774A      2.541210  1775A      2.546689  
    1776A      2.546875  1777A      2.557838  1778A      2.558267  
    1779A      2.558555  1780A      2.558984  1781A      2.562580  
    1782A      2.563049  1783A      2.577349  1784A      2.584875  
    1785A      2.586045  1786A      2.588033  1787A      2.589602  
    1788A      2.592347  1789A      2.592699  1790A      2.594173  
    1791A      2.596162  1792A      2.599773  1793A      2.601917  
    1794A      2.602280  1795A      2.608650  1796A      2.609855  
    1797A      2.613360  1798A      2.616138  1799A      2.616597  
    1800A      2.617781  1801A      2.622744  1802A      2.623908  
    1803A      2.627862  1804A      2.629426  1805A      2.630883  
    1806A      2.631568  1807A      2.635402  1808A      2.635695  
    1809A      2.636031  1810A      2.637451  1811A      2.640335  
    1812A      2.641813  1813A      2.648510  1814A      2.663847  
    1815A      2.666746  1816A      2.674936  1817A      2.675330  
    1818A      2.676122  1819A      2.678333  1820A      2.678603  
    1821A      2.685299  1822A      2.697125  1823A      2.702531  
    1824A      2.703079  1825A      2.707292  1826A      2.714488  
    1827A      2.716547  1828A      2.719167  1829A      2.719872  
    1830A      2.723807  1831A      2.724504  1832A      2.730969  
    1833A      2.742174  1834A      2.743010  1835A      2.744670  
    1836A      2.745401  1837A      2.745558  1838A      2.753254  
    1839A      2.754223  1840A      2.756747  1841A      2.757782  
    1842A      2.758355  1843A      2.760821  1844A      2.761447  
    1845A      2.769956  1846A      2.771179  1847A      2.771420  
    1848A      2.784027  1849A      2.784912  1850A      2.786397  
    1851A      2.786914  1852A      2.790564  1853A      2.804804  
    1854A      2.808957  1855A      2.809023  1856A      2.815262  
    1857A      2.816803  1858A      2.819007  1859A      2.826461  
    1860A      2.837475  1861A      2.838402  1862A      2.856110  
    1863A      2.863961  1864A      2.864192  1865A      2.873996  
    1866A      2.876240  1867A      2.880780  1868A      2.880933  
    1869A      2.908408  1870A      2.910845  1871A      2.911399  
    1872A      2.921898  1873A      2.934184  1874A      2.938098  
    1875A      2.938239  1876A      2.973298  1877A      2.974109  
    1878A      2.981400  1879A      2.984859  1880A      2.990923  
    1881A      2.992224  1882A      2.994343  1883A      2.996230  
    1884A      3.001369  1885A      3.001580  1886A      3.011420  
    1887A      3.017413  1888A      3.054673  1889A      3.059074  
    1890A      3.059402  1891A      3.066310  1892A      3.067859  
    1893A      3.071920  1894A      3.072942  1895A      3.077399  
    1896A      3.078793  1897A      3.083452  1898A      3.087868  
    1899A      3.089091  1900A      3.093665  1901A      3.093857  
    1902A      3.095593  1903A      3.096466  1904A      3.099959  
    1905A      3.108803  1906A      3.110460  1907A      3.119280  
    1908A      3.121442  1909A      3.121754  1910A      3.139350  
    1911A      3.140451  1912A      3.166722  1913A      3.197974  
    1914A      3.205083  1915A      3.205958  1916A      3.206096  
    1917A      3.206960  1918A      3.209307  1919A      3.213443  
    1920A      3.216652  1921A      3.220361  1922A      3.220858  
    1923A      3.238250  1924A      3.240818  1925A      3.242373  
    1926A      3.248485  1927A      3.304723  1928A      3.305624  
    1929A      3.313445  1930A      3.358608  1931A      3.372227  
    1932A      3.374908  1933A      3.376975  1934A      3.388355  
    1935A      3.392345  1936A      3.403378  1937A      3.407285  
    1938A      3.408421  1939A      3.414312  1940A      3.417350  
    1941A      3.424972  1942A      3.430242  1943A      3.437132  
    1944A      3.451847  1945A      3.457943  1946A      3.482317  
    1947A      3.517851  1948A      3.519193  1949A      3.526706  
    1950A      3.534647  1951A      3.546626  1952A      3.583131  
    1953A      3.586216  1954A      3.608469  1955A      3.611656  
    1956A      3.648471  1957A      3.690026  1958A      3.694125  
    1959A      3.694648  1960A      3.705832  1961A      3.721933  
    1962A      3.723856  1963A      3.786754  1964A      3.787705  
    1965A      3.816344  1966A      3.819040  1967A      3.849396  
    1968A      3.856511  1969A      3.879947  1970A      3.883301  
    1971A      3.892384  1972A      3.893593  1973A      3.901677  
    1974A      3.906296  1975A      3.913742  1976A      3.967225  
    1977A      3.969636  1978A      4.013299  1979A      4.170903  
    1980A      4.242664  1981A      4.334280  

    Final Occupation by Irrep:
              A 
    DOCC [   326 ]
    NA   [   326 ]
    NB   [   326 ]

  @DF-RHF Final Energy: -3953.65025646689173

   => Energetics <=

    Nuclear Repulsion Energy =          17819.9247467577370116
    One-Electron Energy =              -40849.7774838014374836
    Two-Electron Energy =               19076.2024805768087390
    Total Energy =                      -3953.6502564668917330

Computation Completed


Properties will be evaluated at   0.000000,   0.000000,   0.000000 [a0]

Properties computed using the SCF density matrix


 Multipole Moments:

 ------------------------------------------------------------------------------------
     Multipole            Electronic (a.u.)      Nuclear  (a.u.)        Total (a.u.)
 ------------------------------------------------------------------------------------

 L = 1.  Multiply by 2.5417464519 to convert [e a0] to [Debye]
 Dipole X            :         -0.0027323            0.0004804           -0.0022519
 Dipole Y            :         -6.9589670            8.7122315            1.7532645
 Dipole Z            :         27.4795543          -36.9822915           -9.5027372
 Magnitude           :                                                    9.6631235

 ------------------------------------------------------------------------------------

*** tstop() called on n2cn0262 at Wed Jan 24 20:08:08 2024
Module time:
	user time   =   28098.46 seconds =     468.31 minutes
	system time =    1542.79 seconds =      25.71 minutes
	total time  =       5938 seconds =      98.97 minutes
Total time:
	user time   =   28098.46 seconds =     468.31 minutes
	system time =    1542.79 seconds =      25.71 minutes
	total time  =       5938 seconds =      98.97 minutes

  //>>>>>>>>>>>>>>>>>>>>>>>>>>>>>>>>>>>//
  //            Monomer A HF           //
  //<<<<<<<<<<<<<<<<<<<<<<<<<<<<<<<<<<<//

   => Libint2 <=

    Primary   basis highest AM E, G, H:  5, 4, 3
    Auxiliary basis highest AM E, G, H:  6, 5, 4
    Onebody   basis highest AM E, G, H:  6, 5, 4
    Solid Harmonics ordering:            gaussian

*** tstart() called on n2cn0262
*** at Wed Jan 24 20:08:08 2024

   => Loading Basis Set <=

    Name: JUN-CC-PVDZ
    Role: ORBITAL
    Keyword: BASIS
    atoms 1-2, 4-5, 10, 17-34, 41-53, 56-70, 73-89, 92-104, 109-119, 122-130 entry C          line   164 file /opt/software/pc2/EB-SW/software/PSI4/1.9-foss-2022a/share/psi4/basis/jun-cc-pvdz.gbs 
    atoms 3, 6                                                               entry N          line   198 file /opt/software/pc2/EB-SW/software/PSI4/1.9-foss-2022a/share/psi4/basis/jun-cc-pvdz.gbs 
    atoms 7-9, 11-16, 35-40, 54-55, 71-72, 90-91, 105-108, 120-121, 131-136  entry H          line    36 file /opt/software/pc2/EB-SW/software/PSI4/1.9-foss-2022a/share/psi4/basis/jun-cc-pvdz.gbs 


         ---------------------------------------------------------
                                   SCF
               by Justin Turney, Rob Parrish, Andy Simmonett
                          and Daniel G. A. Smith
                              RHF Reference
                       16 Threads,  44822 MiB Core
         ---------------------------------------------------------

  ==> Geometry <==

    Molecular point group: c1
    Full point group: C1

    Geometry (in Angstrom), charge = 1, multiplicity = 1:

       Center              X                  Y                   Z               Mass       
    ------------   -----------------  -----------------  -----------------  -----------------
         C            0.680062820275     1.308604348936    -7.127984214047    12.000000000000
         C           -0.680508179725     1.310632348936    -7.127600214047    12.000000000000
         N           -1.085639179725     1.311630348936    -5.809276214047    14.003074004430
         C            0.000103820275     1.314906348936    -5.027875214047    12.000000000000
[...]
    1585A      2.181875  1586A      2.182799  1587A      2.188961  
    1588A      2.189343  1589A      2.190690  1590A      2.191786  
    1591A      2.192209  1592A      2.195177  1593A      2.197056  
    1594A      2.197806  1595A      2.198768  1596A      2.200550  
    1597A      2.200949  1598A      2.201169  1599A      2.201652  
    1600A      2.205280  1601A      2.205350  1602A      2.206260  
    1603A      2.209219  1604A      2.212231  1605A      2.213803  
    1606A      2.214117  1607A      2.220177  1608A      2.221038  
    1609A      2.222504  1610A      2.222827  1611A      2.224690  
    1612A      2.224864  1613A      2.225516  1614A      2.228833  
    1615A      2.229596  1616A      2.232239  1617A      2.232576  
    1618A      2.234895  1619A      2.238947  1620A      2.239168  
    1621A      2.239965  1622A      2.241639  1623A      2.247844  
    1624A      2.248519  1625A      2.249245  1626A      2.252289  
    1627A      2.261217  1628A      2.261892  1629A      2.264069  
    1630A      2.265189  1631A      2.266950  1632A      2.269893  
    1633A      2.272102  1634A      2.277753  1635A      2.282946  
    1636A      2.284261  1637A      2.287679  1638A      2.290613  
    1639A      2.291169  1640A      2.294005  1641A      2.296794  
    1642A      2.296881  1643A      2.303936  1644A      2.304352  
    1645A      2.309102  1646A      2.314306  1647A      2.317750  
    1648A      2.324860  1649A      2.325058  1650A      2.325398  
    1651A      2.327366  1652A      2.329667  1653A      2.330658  
    1654A      2.331269  1655A      2.333103  1656A      2.334575  
    1657A      2.334956  1658A      2.338937  1659A      2.340231  
    1660A      2.341496  1661A      2.342274  1662A      2.342443  
    1663A      2.344981  1664A      2.345859  1665A      2.346375  
    1666A      2.349131  1667A      2.349484  1668A      2.361905  
    1669A      2.363974  1670A      2.371445  1671A      2.373304  
    1672A      2.376861  1673A      2.384468  1674A      2.388201  
    1675A      2.390321  1676A      2.391867  1677A      2.394445  
    1678A      2.397298  1679A      2.407357  1680A      2.418478  
    1681A      2.419767  1682A      2.423847  1683A      2.427848  
    1684A      2.432296  1685A      2.441951  1686A      2.443606  
    1687A      2.452525  1688A      2.453128  1689A      2.460727  
    1690A      2.463966  1691A      2.464690  1692A      2.465533  
    1693A      2.467825  1694A      2.468158  1695A      2.471079  
    1696A      2.471987  1697A      2.472224  1698A      2.482044  
    1699A      2.486421  1700A      2.491653  1701A      2.491964  
    1702A      2.495127  1703A      2.502036  1704A      2.507150  
    1705A      2.507403  1706A      2.511654  1707A      2.516524  
    1708A      2.533025  1709A      2.539325  1710A      2.539409  
    1711A      2.540324  1712A      2.542441  1713A      2.543067  
    1714A      2.545614  1715A      2.547989  1716A      2.548582  
    1717A      2.549366  1718A      2.551447  1719A      2.556657  
    1720A      2.556777  1721A      2.564308  1722A      2.571227  
    1723A      2.571776  1724A      2.580052  1725A      2.583756  
    1726A      2.584337  1727A      2.585208  1728A      2.586268  
    1729A      2.587921  1730A      2.588963  1731A      2.590916  
    1732A      2.593243  1733A      2.593649  1734A      2.601537  
    1735A      2.601583  1736A      2.612976  1737A      2.613275  
    1738A      2.613671  1739A      2.613971  1740A      2.617692  
    1741A      2.618211  1742A      2.633007  1743A      2.640694  
    1744A      2.641846  1745A      2.643654  1746A      2.644167  
    1747A      2.645614  1748A      2.647541  1749A      2.648752  
    1750A      2.649311  1751A      2.652681  1752A      2.656051  
    1753A      2.656180  1754A      2.660435  1755A      2.663076  
    1756A      2.666113  1757A      2.666265  1758A      2.667640  
    1759A      2.669807  1760A      2.670743  1761A      2.672886  
    1762A      2.673799  1763A      2.677182  1764A      2.678315  
    1765A      2.684439  1766A      2.685518  1767A      2.686880  
    1768A      2.687716  1769A      2.691340  1770A      2.691602  
    1771A      2.691774  1772A      2.692699  1773A      2.696192  
    1774A      2.697381  1775A      2.704599  1776A      2.720996  
    1777A      2.730781  1778A      2.731132  1779A      2.731286  
    1780A      2.731646  1781A      2.731959  1782A      2.748175  
    1783A      2.752947  1784A      2.756464  1785A      2.760609  
    1786A      2.761208  1787A      2.772659  1788A      2.773221  
    1789A      2.776417  1790A      2.780263  1791A      2.780931  
    1792A      2.799313  1793A      2.799949  1794A      2.802094  
    1795A      2.802241  1796A      2.802266  1797A      2.809804  
    1798A      2.812894  1799A      2.815504  1800A      2.816116  
    1801A      2.816395  1802A      2.817042  1803A      2.826461  
    1804A      2.828583  1805A      2.829885  1806A      2.840203  
    1807A      2.841523  1808A      2.842066  1809A      2.843925  
    1810A      2.846233  1811A      2.850961  1812A      2.862806  
    1813A      2.865708  1814A      2.865916  1815A      2.870520  
    1816A      2.872282  1817A      2.875428  1818A      2.892291  
    1819A      2.895983  1820A      2.896873  1821A      2.903008  
    1822A      2.913877  1823A      2.917830  1824A      2.918067  
    1825A      2.927056  1826A      2.927932  1827A      2.929561  
    1828A      2.931989  1829A      2.935385  1830A      2.935602  
    1831A      2.961799  1832A      2.963479  1833A      2.965668  
    1834A      2.966151  1835A      2.976369  1836A      2.983731  
    1837A      2.993024  1838A      2.993820  1839A      3.018014  
    1840A      3.029680  1841A      3.030298  1842A      3.030984  
    1843A      3.036579  1844A      3.039485  1845A      3.047143  
    1846A      3.047823  1847A      3.048306  1848A      3.057422  
    1849A      3.057887  1850A      3.059707  1851A      3.063986  
    1852A      3.072952  1853A      3.108862  1854A      3.113119  
    1855A      3.113455  1856A      3.122913  1857A      3.127834  
    1858A      3.128662  1859A      3.132891  1860A      3.134858  
    1861A      3.142305  1862A      3.143317  1863A      3.148609  
    1864A      3.149559  1865A      3.149630  1866A      3.150473  
    1867A      3.151680  1868A      3.153789  1869A      3.162288  
    1870A      3.167930  1871A      3.173245  1872A      3.175378  
    1873A      3.175593  1874A      3.193380  1875A      3.194389  
    1876A      3.220248  1877A      3.252999  1878A      3.259745  
    1879A      3.261515  1880A      3.261895  1881A      3.262430  
    1882A      3.264615  1883A      3.268497  1884A      3.271339  
    1885A      3.274985  1886A      3.275692  1887A      3.289806  
    1888A      3.294013  1889A      3.296572  1890A      3.298584  
    1891A      3.303944  1892A      3.318991  1893A      3.336062  
    1894A      3.361751  1895A      3.362534  1896A      3.370472  
    1897A      3.415771  1898A      3.425127  1899A      3.430267  
    1900A      3.433032  1901A      3.437269  1902A      3.447189  
    1903A      3.451121  1904A      3.462063  1905A      3.464747  
    1906A      3.465984  1907A      3.471697  1908A      3.474862  
    1909A      3.482568  1910A      3.488471  1911A      3.494917  
    1912A      3.509232  1913A      3.528889  1914A      3.540440  
    1915A      3.574854  1916A      3.576244  1917A      3.580550  
    1918A      3.583993  1919A      3.590200  1920A      3.640365  
    1921A      3.643572  1922A      3.647740  1923A      3.665472  
    1924A      3.667507  1925A      3.705199  1926A      3.747991  
    1927A      3.749748  1928A      3.750725  1929A      3.759715  
    1930A      3.764052  1931A      3.778777  1932A      3.780434  
    1933A      3.819119  1934A      3.842154  1935A      3.843599  
    1936A      3.870529  1937A      3.871833  1938A      3.874755  
    1939A      3.905503  1940A      3.913298  1941A      3.938290  
    1942A      3.941569  1943A      3.948352  1944A      3.949285  
    1945A      3.958716  1946A      3.964903  1947A      3.971077  
    1948A      3.973173  1949A      4.024747  1950A      4.027513  
    1951A      4.072016  1952A      4.211343  1953A      4.215287  
    1954A      4.231339  1955A      4.303426  1956A      4.363895  
    1957A      4.368781  1958A      4.394703  1959A      4.494066  
    1960A      4.749994  1961A      4.792162  1962A      4.835653  
    1963A      4.851512  1964A      4.941717  1965A      5.057770  
    1966A      5.062694  1967A      5.071725  1968A      5.115821  
    1969A      5.153214  1970A      5.397002  1971A      5.426017  
    1972A      5.738272  1973A      5.764602  1974A      6.070483  
    1975A     18.200679  1976A     18.460785  1977A     18.478015  
    1978A     18.564688  1979A     18.835388  1980A     25.342554  
    1981A     25.378536  

    Final Occupation by Irrep:
              A 
    DOCC [   300 ]
    NA   [   300 ]
    NB   [   300 ]

  @DF-RHF Final Energy: -3650.33852033827543

   => Energetics <=

    Nuclear Repulsion Energy =          15611.4211649754306563
    One-Electron Energy =              -36072.1079095324093942
    Two-Electron Energy =               16810.3482242187055817
    Total Energy =                      -3650.3385203382749751

Computation Completed


Properties will be evaluated at   0.000000,   0.000000,   0.000000 [a0]

Properties computed using the SCF density matrix


 Multipole Moments:

 ------------------------------------------------------------------------------------
     Multipole            Electronic (a.u.)      Nuclear  (a.u.)        Total (a.u.)
 ------------------------------------------------------------------------------------

 L = 1.  Multiply by 2.5417464519 to convert [e a0] to [Debye]
 Dipole X            :         -0.0008521            0.0002112           -0.0006409
 Dipole Y            :        123.2146793         -123.2131634            0.0015159
 Dipole Z            :       -553.2432559          553.2525978            0.0093419
 Magnitude           :                                                    0.0094858

 ------------------------------------------------------------------------------------

*** tstop() called on n2cn0262 at Wed Jan 24 22:10:09 2024
Module time:
	user time   =   21147.63 seconds =     352.46 minutes
	system time =    1221.64 seconds =      20.36 minutes
	total time  =       5007 seconds =      83.45 minutes
Total time:
	user time   =   55389.25 seconds =     923.15 minutes
	system time =    3152.99 seconds =      52.55 minutes
	total time  =      13259 seconds =     220.98 minutes
  Constructing Basis Sets for SAPT...

   => Loading Basis Set <=

    Name: (JUN-CC-PVDZ AUX)
    Role: RIFIT
    Keyword: DF_BASIS_SAPT
    atoms 1-2, 4-5, 10, 17-34, 41-53, 56-70, 73-89, 92-104, 109-119, 122-130 entry C          line   100 file /opt/software/pc2/EB-SW/software/PSI4/1.9-foss-2022a/share/psi4/basis/jun-cc-pvdz-ri.gbs 
    atoms 3, 6                                                               entry N          line   144 file /opt/software/pc2/EB-SW/software/PSI4/1.9-foss-2022a/share/psi4/basis/jun-cc-pvdz-ri.gbs 
    atoms 7-9, 11-16, 35-40, 54-55, 71-72, 90-91, 105-108, 120-121, 131-136  entry H          line    30 file /opt/software/pc2/EB-SW/software/PSI4/1.9-foss-2022a/share/psi4/basis/jun-cc-pvdz-ri.gbs 

   => Loading Basis Set <=

    Name: (JUN-CC-PVDZ AUX)
    Role: JKFIT
    Keyword: DF_BASIS_ELST
    atoms 1-2, 4-5, 10, 17-34, 41-53, 56-70, 73-89, 92-104, 109-119, 122-130 entry C          line   146 file /opt/software/pc2/EB-SW/software/PSI4/1.9-foss-2022a/share/psi4/basis/jun-cc-pvdz-jkfit.gbs 
    atoms 3, 6                                                               entry N          line   202 file /opt/software/pc2/EB-SW/software/PSI4/1.9-foss-2022a/share/psi4/basis/jun-cc-pvdz-jkfit.gbs 
    atoms 7-9, 11-16, 35-40, 54-55, 71-72, 90-91, 105-108, 120-121, 131-136  entry H          line    70 file /opt/software/pc2/EB-SW/software/PSI4/1.9-foss-2022a/share/psi4/basis/jun-cc-pvdz-jkfit.gbs 


  //>>>>>>>>>>>>>>>>>>>>>>>>>>>>>>>>>>>//
  //               SSAPT0              //
  //<<<<<<<<<<<<<<<<<<<<<<<<<<<<<<<<<<<//


*** tstart() called on n2cn0262
*** at Wed Jan 24 22:10:10 2024

        SAPT0  
    Ed Hohenstein
     6 June 2009

      Orbital Information
  --------------------------
    NSO        =      2019
    NMO        =      1981
    NRI        =      7157
    NRI (Elst) =      8896
    NOCC A     =        26
    NOCC B     =       300
    FOCC A     =         7
    FOCC B     =        96
    NVIR A     =      1955
    NVIR B     =      1681

    Elst10,r            =    -0.009412220674 [Eh]
    Exch10              =     0.000008910696 [Eh]
    Exch10 (S^2)        =     0.000008910649 [Eh]

    Iter     Energy [mEh]          dE [mEh]         Residual      Time [s]
       1      -0.01866378       0.018663776       1.279438891           797
       2      -0.01765344      -0.001010340       0.326481106          1383
       3      -0.01932903       0.001675591       0.088311727          1911
       4      -0.01942619       0.000097159       0.038992884          2438
       5      -0.01935164      -0.000074551       0.012719410          2928
       6      -0.01935134      -0.000000297       0.004189685          3446
       7      -0.01935746       0.000006117       0.001331462          4050
       8      -0.01935826       0.000000800       0.000394620          4607
       9      -0.01935796      -0.000000297       0.000134419          5219
      10      -0.01935784      -0.000000117       0.000036617          7024
      11      -0.01935785       0.000000011       0.000010085          7570
      12      -0.01935786       0.000000008       0.000003031          8213
      13      -0.01935786       0.000000001       0.000001020          8725
      14      -0.01935786      -0.000000001       0.000000236          9224

    CHF Iterations converged


    Iter     Energy [mEh]          dE [mEh]         Residual      Time [s]
       1      -7.36004862       7.360048620      46.691278538           570
       2      -4.74471135      -2.615337274       5.627691744          1093
       3      -4.71983195      -0.024879401       1.903105515          1628
       4      -4.80840742       0.088575474       0.637874088          2180
       5      -4.82096136       0.012553937       0.250057651          2686
       6      -4.81886508      -0.002096277       0.168856524          3306
       7      -4.81602333      -0.002841745       0.064535641          3839
       8      -4.81620223       0.000178897       0.026423670          4428
       9      -4.81662466       0.000422429       0.009159580          4947
      10      -4.81661215      -0.000012510       0.005375657          5557
      11      -4.81656751      -0.000044640       0.002379710          6228
      12      -4.81655825      -0.000009255       0.001232691          6863
      13      -4.81656614       0.000007888       0.000635309          7453
      14      -4.81657029       0.000004151       0.000345243          7964
      15      -4.81656959      -0.000000707       0.000227634          8585
      16      -4.81656701      -0.000002575       0.000117190          9226
      17      -4.81656782       0.000000813       0.000066753          9706
      18      -4.81656843       0.000000601       0.000037055         10430
      19      -4.81656834      -0.000000089       0.000031530         10899
      20      -4.81656807      -0.000000267       0.000016040         11449
      21      -4.81656811       0.000000042       0.000007884         11868
      22      -4.81656817       0.000000055       0.000003114         12306
      23      -4.81656817       0.000000001       0.000001139         12755
      24      -4.81656816      -0.000000007       0.000000522         13164

    CHF Iterations converged

    Ind20,r (A<-B)      =    -0.000019357861 [Eh]
    Ind20,r (B<-A)      =    -0.004816568162 [Eh]
    Ind20,r             =    -0.004835926023 [Eh]
    Exch-Ind20,r (A<-B) =     0.000000267813 [Eh]
    Exch-Ind20,r (B<-A) =     0.000003307451 [Eh]
    Exch-Ind20,r        =     0.000003575264 [Eh]
    Disp20              =    -0.002892369212 [Eh]
    Disp20 (SS)         =    -0.001446184606 [Eh]
    Disp20 (OS)         =    -0.001446184606 [Eh]
    Exch-Disp20         =     0.000001919170 [Eh]
    Exch-Disp20 (SS)    =     0.000001353910 [Eh]
    Exch-Disp20 (OS)    =     0.000000565261 [Eh]

    SAPT Results 
  --------------------------------------------------------------------------------------------------------
    Electrostatics                 -9.41222067 [mEh]      -5.90625764 [kcal/mol]     -24.71178197 [kJ/mol]
      Elst10,r                     -9.41222067 [mEh]      -5.90625764 [kcal/mol]     -24.71178197 [kJ/mol]

    Exchange                        0.00891070 [mEh]       0.00559155 [kcal/mol]       0.02339503 [kJ/mol]
      Exch10                        0.00891070 [mEh]       0.00559155 [kcal/mol]       0.02339503 [kJ/mol]
      Exch10(S^2)                   0.00891065 [mEh]       0.00559152 [kcal/mol]       0.02339491 [kJ/mol]

    Induction                      -4.96751575 [mEh]      -3.11716319 [kcal/mol]     -13.04221080 [kJ/mol]
      Ind20,r                      -4.83592602 [mEh]      -3.03458939 [kcal/mol]     -12.69672202 [kJ/mol]
      Exch-Ind20,r                  0.00357526 [mEh]       0.00224351 [kcal/mol]       0.00938685 [kJ/mol]
      delta HF,r (2)               -0.13516499 [mEh]      -0.08481731 [kcal/mol]      -0.35487563 [kJ/mol]

    Dispersion                     -2.89045004 [mEh]      -1.81378478 [kcal/mol]      -7.58887554 [kJ/mol]
      Disp20                       -2.89236921 [mEh]      -1.81498908 [kcal/mol]      -7.59391432 [kJ/mol]
      Exch-Disp20                   0.00191917 [mEh]       0.00120430 [kcal/mol]       0.00503878 [kJ/mol]
      Disp20 (SS)                  -1.44618461 [mEh]      -0.90749454 [kcal/mol]      -3.79695716 [kJ/mol]
      Disp20 (OS)                  -1.44618461 [mEh]      -0.90749454 [kcal/mol]      -3.79695716 [kJ/mol]
      Exch-Disp20 (SS)              0.00135391 [mEh]       0.00084959 [kcal/mol]       0.00355469 [kJ/mol]
      Exch-Disp20 (OS)              0.00056526 [mEh]       0.00035471 [kcal/mol]       0.00148409 [kJ/mol]

  Total HF                        -14.37082573 [mEh]      -9.01782929 [kcal/mol]     -37.73059775 [kJ/mol]
  Total SAPT0                     -17.26127577 [mEh]     -10.83161407 [kcal/mol]     -45.31947328 [kJ/mol]

  Special recipe for scaled SAPT0 (see Manual):
    Electrostatics sSAPT0          -9.41222067 [mEh]      -5.90625764 [kcal/mol]     -24.71178197 [kJ/mol]
    Exchange sSAPT0                 0.00891070 [mEh]       0.00559155 [kcal/mol]       0.02339503 [kJ/mol]
    Induction sSAPT0               -4.96751575 [mEh]      -3.11716319 [kcal/mol]     -13.04221080 [kJ/mol]
    Dispersion sSAPT0              -2.89045004 [mEh]      -1.81378478 [kcal/mol]      -7.58887554 [kJ/mol]
  Total sSAPT0                    -17.26127577 [mEh]     -10.83161407 [kcal/mol]     -45.31947328 [kJ/mol]
  --------------------------------------------------------------------------------------------------------

*** tstop() called on n2cn0262 at Thu Jan 25 13:21:28 2024
Module time:
	user time   =   78632.27 seconds =    1310.54 minutes
	system time =    3649.21 seconds =      60.82 minutes
	total time  =      54678 seconds =     911.30 minutes
Total time:
	user time   =  134023.08 seconds =    2233.72 minutes
	system time =    6802.20 seconds =     113.37 minutes
	total time  =      67938 seconds =    1132.30 minutes

    Psi4 stopped on: Thursday, 25 January 2024 01:21PM
    Psi4 wall time for execution: 18:52:19.60

*** Psi4 exiting successfully. Buy a developer a beer!
