
    -----------------------------------------------------------------------
          Psi4: An Open-Source Ab Initio Electronic Structure Package
                               Psi4 1.9 release

                         Git: Rev {} zzzzzzz 


    D. G. A. Smith, L. A. Burns, A. C. Simmonett, R. M. Parrish,
    M. C. Schieber, R. Galvelis, P. Kraus, H. Kruse, R. Di Remigio,
    A. Alenaizan, A. M. James, S. Lehtola, J. P. Misiewicz, M. Scheurer,
    R. A. Shaw, J. B. Schriber, Y. Xie, Z. L. Glick, D. A. Sirianni,
    J. S. O'Brien, J. M. Waldrop, A. Kumar, E. G. Hohenstein,
    B. P. Pritchard, B. R. Brooks, H. F. Schaefer III, A. Yu. Sokolov,
    K. Patkowski, A. E. DePrince III, U. Bozkaya, R. A. King,
    F. A. Evangelista, J. M. Turney, T. D. Crawford, C. D. Sherrill,
    J. Chem. Phys. 152(18) 184108 (2020). https://doi.org/10.1063/5.0006002

                            Additional Code Authors
    E. T. Seidl, C. L. Janssen, E. F. Valeev, M. L. Leininger,
    J. F. Gonthier, R. M. Richard, H. R. McAlexander, M. Saitow, X. Wang,
    P. Verma, M. H. Lechner, A. Jiang, S. Behnle, A. G. Heide,
    M. F. Herbst, and D. L. Poole

             Previous Authors, Complete List of Code Contributors,
                       and Citations for Specific Modules
    https://github.com/psi4/psi4/blob/master/codemeta.json
    https://github.com/psi4/psi4/graphs/contributors
    http://psicode.org/psi4manual/master/introduction.html#citing-psifour

    -----------------------------------------------------------------------


    Psi4 started on: Friday, 26 January 2024 11:20PM

    Process ID: 3935948
    Host:       n2cn0683
    PSIDATADIR: /opt/software/pc2/EB-SW/software/PSI4/1.9-foss-2022a/share/psi4
    Memory:     500.0 MiB
    Threads:    16
    
  ==> Input File <==

--------------------------------------------------------------------------
memory 64 GB # how much memory is available ! Depends on the nodes/cores !

molecule dimer {
# monomer A
+1 1    # Charge and multiplicity
C  0.680067 -1.215929 7.408042
C -0.680504 -1.215545 7.406014
N -1.085635  0.102779 7.405016
C  0.000108  0.884180 7.401740
C -2.477365  0.570758 7.355610
N  1.085222  0.102779 7.405016
H  1.385146 -2.033368 7.415870
H -1.385302 -2.033214 7.406204
H -0.000009  1.965269 7.399993
C  2.478117  0.567877 7.421908
H  2.490592  1.658130 7.394563
H  2.967028  0.220701 8.335354
H  3.001428  0.176405 6.546425
H -2.857359  0.490799 6.333539
H -3.082679 -0.042306 8.025694
H -2.518128  1.610706 7.682594
--
# monomer B
0 1     # Charge and multiplicity
C   -3.66844126402057      7.80375217008252      0.00190004133558
C   -4.84759871934653      7.13124183134024     -0.00046653359696
C   -4.89495929917518      5.69633040353158     -0.00103944469517
C   -3.65374067877320      4.98073034095895      0.00662099703436
C   -2.40942512149445      7.11398103667468      0.00209438359570
C   -2.42547734410473      5.68112195090346     -0.00491050527438
C   -1.19474401643570      7.78614419430947      0.00356656413763
C   0.03795902893699      7.09942164575698      0.00139585983271
C   0.03033258741920      5.66948955970466     -0.00408752508301
C   -1.20098450790502      4.96927034791531      0.00488220885047
C   1.27795782581485      7.77285944319479      0.00277170839332
C   2.48535808472416      7.08769688523756      0.00049722048857
C   2.48612868491717      5.65477081024076     -0.00644052849921
C   1.25408291964399      4.95607811366431      0.00518741308898
C   3.75171459140595      7.76391215098033      0.00062407186893
C   4.92356605618520      7.07878077698995     -0.00143240883900
C   4.95560727132542      5.64344746336949     -0.00159282164606
C   3.70680153420475      4.94121020833308      0.00349873852374
H   -3.65852113775815      8.89082741913536      0.00358502958574
H   -1.18921332975660      8.87412108735996      0.00753844057883
H   1.28429423888630      8.86083343548850      0.00693053253426
H   3.75354208679975      8.85103527897216      0.00214659618464
H   5.86995870320703      7.61379483465560     -0.00235777588134
H   -5.78823170750226      7.67630221293400     -0.00202638095293
C   -6.09197395869619      4.99326001364347     -0.00291168518608
C   -6.12866148031747      3.58258016879823     -0.00171050815740
C   -3.66457974004527      3.56418217974434     -0.00463560277484
C   -4.89429820469869      2.86108077590057      0.00453338221034
C   -2.43733499489796      2.84761165708481      0.00719617576166
C   -1.20922785759670      3.54788693497833     -0.00648285103018
C   1.24714157216223      3.53468075142962     -0.00729145743546
C   0.01517603956900      2.83311183930540      0.00439272578912
C   2.46764517244071      2.82128997725533      0.00449278391269
C   3.70254947457969      3.52466015442405     -0.00899517692985
C   6.14498038638375      4.92757236613191     -0.00282626685777
C   6.16658835886151      3.51658447594213     -0.00065971342101
C   4.92460995845939      2.80840792535402      0.00587903281610
H   7.08990550964105      5.46688776622306     -0.00658814770723
H   -7.03104175110130      5.54268795285765     -0.00714490013730
C   -7.33969804112295      2.85841153457957     -0.00333767559888
C   -7.36488195805880      1.47032337158330     -0.00157213747140
C   -4.90350460894690      1.44442681216000     -0.00628840166334
C   -6.13225715261081      0.73993935705394      0.00600164231964
C   -3.67687480051673      0.72669714267312      0.00433931473643
C   -2.44565658606518      1.42964113326212     -0.00597039546461
C   -1.22360068130162      0.71532450163492      0.00545886906656
C   0.00763786931376      1.41738314923765      0.00392452278437
C   1.23121980774686      0.70211669058719     -0.01490206287210
C   2.46082110053113      1.40329203612573      0.00460244601878
C   3.68443025419614      0.68719842821222      0.00377365974158
C   4.91870890153864      1.39173456118907     -0.00862816189375
C   7.36980207796101      2.77948220318441     -0.00242013321349
C   7.38016266612146      1.39121750785509     -0.00087345036788
C   6.13979953912259      0.67411862320065      0.00545489144369
H   -8.27919079934664      3.40711804112415     -0.00763522772059
H   8.31511347147953      3.31811809662368     -0.00663070901292
C   -8.59175593758115      0.72483255304480     -0.00123170985383
C   -8.59902460370342     -0.63263980622873      0.00089141472904
C   -6.13981313911873     -0.67413663715361     -0.00609792660607
C   -7.38018411213749     -1.39126618958160      0.00131813493501
C   -4.91868448025621     -1.39175501803000      0.00624257154343
C   -3.68443829568458     -0.68723731573599     -0.00478966852105
C   -2.46081704024768     -1.40334517882457      0.00575341766833
C   -1.23116201232071     -0.70217386488055     -0.00636696112346
C   -0.00756962538737     -1.41741884941102      0.00108956317991
C   1.22364771588843     -0.71527537726392      0.01109518512883
C   2.44567064933149     -1.42964328900682     -0.00065482763106
C   3.67686670284649     -0.72670743155550     -0.00479541202602
C   6.13224884641929     -0.73997883984993     -0.00632338623858
C   4.90351914550401     -1.44445752054090      0.00751768830159
C   8.59901484869081      0.63260386666793     -0.00101133422380
C   8.59174548810050     -0.72485086719319      0.00072504603735
C   7.36486276438985     -1.47033266560598      0.00049486934466
H   -9.52830597181814      1.27684744919284     -0.00270163681798
H   9.54141097460619      1.17457248844457     -0.00206336648518
C   -7.36983790976868     -2.77954514593389      0.00312634335708
C   -4.92459910905015     -2.80843725734101     -0.00460528907921
C   -6.16662249566744     -3.51665219282533      0.00169655107992
C   -3.70251035970491     -3.52468154912026      0.00571878010666
C   -2.46764698511392     -2.82132596280400     -0.00632585824990
C   -0.01513347410770     -2.83314164539971     -0.00604426974092
C   -1.24712184122656     -3.53473217556300      0.00551968366725
C   1.20924506964357     -3.54791467864352      0.00805871345849
C   2.43733602215464     -2.84764173817541     -0.00608104485234
C   4.89430234377080     -2.86112296828604     -0.00526030478103
C   3.66461525504104     -3.56421984553201      0.00761911515957
C   6.12863901474565     -3.58258405771778      0.00096495711699
C   7.33967266469532     -2.85841330737039      0.00248018319869
H   -9.54144911125902     -1.17456346666430      0.00226083090216
H   9.52826186807155     -1.27691907390448      0.00197485379837
H   -8.31516504384864     -3.31814985321231      0.00729857188773
H   8.27915514249207     -3.40714078989363      0.00681973918158
C   -6.14499418870218     -4.92764727278338      0.00302254913999
C   -3.70678334799751     -4.94126171411716     -0.00679841894792
C   -4.95559005800169     -5.64349397349412      0.00116871569699
C   -2.48612132622665     -5.65478557440947      0.00614125209662
C   -1.25405833548005     -4.95612205000132     -0.00503435388927
C   1.20101257386816     -4.96928038819302     -0.00385322963129
C   -0.03033667441341     -5.66952030313900      0.00398997003238
C   3.65375010132847     -4.98074377541453     -0.00309522988330
C   2.42549269587528     -5.68117463552727      0.00628170066869
C   6.09196561781097     -4.99325796338655      0.00325918379042
C   4.89497644461045     -5.69634842095790      0.00202298796027
H   -7.08989238804069     -5.46699984223871      0.00742531082125
H   7.03105520920009     -5.54265853633254      0.00683896355417
C   -4.92354532219813     -7.07882109967734      0.00061394679214
C   -2.48534208823777     -7.08772807792913     -0.00189594564379
C   -3.75168589177895     -7.76394715763627     -0.00170126671874
C   -0.03794895698805     -7.09946487446944     -0.00168022049625
C   -1.27795610040136     -7.77290438466689     -0.00366491325785
C   2.40944432072629     -7.11402201200282     -0.00081701968533
C   1.19474993715296     -7.78618536556242     -0.00296931056689
C   4.84762105249800     -7.13126211057943      0.00168979497423
C   3.66847160587561     -7.80378799294376     -0.00065863938960
H   -5.86994035041618     -7.61383059804164      0.00215798365757
H   5.78824962538815     -7.67633218931421      0.00281691445618
H   -3.75352693944918     -8.85107156923607     -0.00353718114765
H   -1.28430440589466     -8.86087539249706     -0.00809229711623
H   1.18922157469537     -8.87416062058945     -0.00706194725726
H   3.65854661482387     -8.89086063405326     -0.00231318081200

    units angstrom      # Angstroms are the default
    no_reorient         # Geometry fixed, default
    symmetry c1         # C1 symmetry, default
}

set {
    scf_type DF         # Density fitting, faster than exact integrals
    freeze_core True    # Freeze core electrons
    basis jun-cc-pVDZ   # Jun-cc-pVDZ basis set, recommended for sSAPT0 in https://doi.org/10.1063/1.4867135
}

energy('ssapt0')        # Compute sSAPT0 energy, includes also SAPT0
--------------------------------------------------------------------------

  Memory set to  59.605 GiB by Python driver.

Scratch directory: /tmp/
   => Loading Basis Set <=

    Name: JUN-CC-PVDZ
    Role: ORBITAL
    Keyword: BASIS
    atoms 1-2, 4-5, 10, 17-34, 41-53, 56-70, 73-89, 92-104, 109-119, 122-130 entry C          line   164 file /opt/software/pc2/EB-SW/software/PSI4/1.9-foss-2022a/share/psi4/basis/jun-cc-pvdz.gbs 
    atoms 3, 6                                                               entry N          line   198 file /opt/software/pc2/EB-SW/software/PSI4/1.9-foss-2022a/share/psi4/basis/jun-cc-pvdz.gbs 
    atoms 7-9, 11-16, 35-40, 54-55, 71-72, 90-91, 105-108, 120-121, 131-136  entry H          line    36 file /opt/software/pc2/EB-SW/software/PSI4/1.9-foss-2022a/share/psi4/basis/jun-cc-pvdz.gbs 

   => Loading Basis Set <=

    Name: JUN-CC-PVDZ
    Role: ORBITAL
    Keyword: BASIS
    atoms 1-2, 4-5, 10, 17-34, 41-53, 56-70, 73-89, 92-104, 109-119, 122-130 entry C          line   164 file /opt/software/pc2/EB-SW/software/PSI4/1.9-foss-2022a/share/psi4/basis/jun-cc-pvdz.gbs 
    atoms 3, 6                                                               entry N          line   198 file /opt/software/pc2/EB-SW/software/PSI4/1.9-foss-2022a/share/psi4/basis/jun-cc-pvdz.gbs 
    atoms 7-9, 11-16, 35-40, 54-55, 71-72, 90-91, 105-108, 120-121, 131-136  entry H          line    36 file /opt/software/pc2/EB-SW/software/PSI4/1.9-foss-2022a/share/psi4/basis/jun-cc-pvdz.gbs 


  //>>>>>>>>>>>>>>>>>>>>>>>>>>>>>>>>>>>//
  //              Dimer HF             //
  //<<<<<<<<<<<<<<<<<<<<<<<<<<<<<<<<<<<//

   => Libint2 <=

    Primary   basis highest AM E, G, H:  5, 4, 3
    Auxiliary basis highest AM E, G, H:  6, 5, 4
    Onebody   basis highest AM E, G, H:  6, 5, 4
    Solid Harmonics ordering:            gaussian

*** tstart() called on n2cn0683
*** at Fri Jan 26 23:20:41 2024

   => Loading Basis Set <=

    Name: JUN-CC-PVDZ
    Role: ORBITAL
    Keyword: BASIS
    atoms 1-2, 4-5, 10, 17-34, 41-53, 56-70, 73-89, 92-104, 109-119, 122-130 entry C          line   164 file /opt/software/pc2/EB-SW/software/PSI4/1.9-foss-2022a/share/psi4/basis/jun-cc-pvdz.gbs 
    atoms 3, 6                                                               entry N          line   198 file /opt/software/pc2/EB-SW/software/PSI4/1.9-foss-2022a/share/psi4/basis/jun-cc-pvdz.gbs 
    atoms 7-9, 11-16, 35-40, 54-55, 71-72, 90-91, 105-108, 120-121, 131-136  entry H          line    36 file /opt/software/pc2/EB-SW/software/PSI4/1.9-foss-2022a/share/psi4/basis/jun-cc-pvdz.gbs 


         ---------------------------------------------------------
                                   SCF
               by Justin Turney, Rob Parrish, Andy Simmonett
                          and Daniel G. A. Smith
                              RHF Reference
                       16 Threads,  61035 MiB Core
         ---------------------------------------------------------

  ==> Geometry <==

    Molecular point group: c1
    Full point group: C1

    Geometry (in Angstrom), charge = 1, multiplicity = 1:

       Center              X                  Y                   Z               Mass       
    ------------   -----------------  -----------------  -----------------  -----------------
         C            0.680062820275    -1.215917226251     6.843846049624    12.000000000000
         C           -0.680508179725    -1.215533226251     6.841818049624    12.000000000000
         N           -1.085639179725     0.102790773749     6.840820049624    14.003074004430
         C            0.000103820275     0.884191773749     6.837544049624    12.000000000000
         C           -2.477369179725     0.570769773749     6.791414049624    12.000000000000
         N            1.085217820275     0.102790773749     6.840820049624    14.003074004430
         H            1.385141820275    -2.033356226251     6.851674049624     1.007825032230
         H           -1.385306179725    -2.033202226251     6.842008049624     1.007825032230
         H           -0.000013179725     1.965280773749     6.835797049624     1.007825032230
         C            2.478112820275     0.567888773749     6.857712049624    12.000000000000
         H            2.490587820275     1.658141773750     6.830367049624     1.007825032230
         H            2.967023820275     0.220712773749     7.771158049624     1.007825032230
         H            3.001423820275     0.176416773749     5.982229049624     1.007825032230
         H           -2.857363179725     0.490810773749     5.769343049624     1.007825032230
         H           -3.082683179725    -0.042294226251     7.461498049624     1.007825032230
         H           -2.518132179725     1.610717773749     7.118398049624     1.007825032230
         C           -3.668445443746     7.803763943832    -0.562295909040    12.000000000000
         C           -4.847602899072     7.131253605090    -0.564662483973    12.000000000000
         C           -4.894963478901     5.696342177281    -0.565235395071    12.000000000000
         C           -3.653744858499     4.980742114708    -0.557574953341    12.000000000000
         C           -2.409429301220     7.113992810424    -0.562101566780    12.000000000000
         C           -2.425481523830     5.681133724653    -0.569106455650    12.000000000000
         C           -1.194748196161     7.786155968059    -0.560629386238    12.000000000000
         C            0.037954849212     7.099433419506    -0.562800090543    12.000000000000
         C            0.030328407694     5.669501333454    -0.568283475459    12.000000000000
         C           -1.200988687630     4.969282121665    -0.559313741525    12.000000000000
         C            1.277953646089     7.772871216944    -0.561424241982    12.000000000000
         C            2.485353904999     7.087708658987    -0.563698729887    12.000000000000
         C            2.486124505192     5.654782583990    -0.570636478875    12.000000000000
         C            1.254078739919     4.956089887414    -0.559008537287    12.000000000000
         C            3.751710411681     7.763923924730    -0.563571878507    12.000000000000
         C            4.923561876460     7.078792550739    -0.565628359215    12.000000000000
         C            4.955603091600     5.643459237119    -0.565788772022    12.000000000000
         C            3.706797354479     4.941221982083    -0.560697211852    12.000000000000
         H           -3.658525317484     8.890839192885    -0.560610920790     1.007825032230
         H           -1.189217509482     8.874132861109    -0.556657509797     1.007825032230
         H            1.284290059161     8.860845209238    -0.557265417841     1.007825032230
         H            3.753537907074     8.851047052722    -0.562049354191     1.007825032230
         H            5.869954523482     7.613806608405    -0.566553726257     1.007825032230
         H           -5.788235887228     7.676313986684    -0.566222331329     1.007825032230
         C           -6.091978138422     4.993271787393    -0.567107635562    12.000000000000
         C           -6.128665660043     3.582591942548    -0.565906458533    12.000000000000
         C           -3.664583919771     3.564193953494    -0.568831553150    12.000000000000
         C           -4.894302384424     2.861092549650    -0.559662568165    12.000000000000
         C           -2.437339174623     2.847623430834    -0.556999774614    12.000000000000
         C           -1.209232037322     3.547898708728    -0.570678801406    12.000000000000
         C            1.247137392437     3.534692525179    -0.571487407811    12.000000000000
         C            0.015171859844     2.833123613055    -0.559803224586    12.000000000000
         C            2.467640992715     2.821301751005    -0.559703166463    12.000000000000
         C            3.702545294854     3.524671928174    -0.573191127305    12.000000000000
         C            6.144976206658     4.927584139881    -0.567022217233    12.000000000000
         C            6.166584179136     3.516596249692    -0.564855663797    12.000000000000
         C            4.924605778734     2.808419699104    -0.558316917559    12.000000000000
         H            7.089901329916     5.466899539973    -0.570784098083     1.007825032230
         H           -7.031045930827     5.542699726607    -0.571340850513     1.007825032230
         C           -7.339702220848     2.858423308329    -0.567533625974    12.000000000000
         C           -7.364886137784     1.470335145333    -0.565768087847    12.000000000000
         C           -4.903508788672     1.444438585909    -0.570484352039    12.000000000000
         C           -6.132261332336     0.739951130803    -0.558194308056    12.000000000000
         C           -3.676878980242     0.726708916423    -0.559856635639    12.000000000000
         C           -2.445660765791     1.429652907012    -0.570166345840    12.000000000000
         C           -1.223604861027     0.715336275384    -0.558737081309    12.000000000000
         C            0.007633689588     1.417394922987    -0.560271427591    12.000000000000
         C            1.231215628021     0.702128464337    -0.579098013248    12.000000000000
         C            2.460816920806     1.403303809875    -0.559593504357    12.000000000000
         C            3.684426074471     0.687210201962    -0.560422290634    12.000000000000
         C            4.918704721813     1.391746334939    -0.572824112269    12.000000000000
         C            7.369797898236     2.779493976934    -0.566616083589    12.000000000000
         C            7.380158486396     1.391229281605    -0.565069400743    12.000000000000
         C            6.139795359397     0.674130396950    -0.558741058932    12.000000000000
         H           -8.279194979072     3.407129814874    -0.571831178096     1.007825032230
         H            8.315109291754     3.318129870373    -0.570826659389     1.007825032230
         C           -8.591760117307     0.724844326794    -0.565427660229    12.000000000000
         C           -8.599028783429    -0.632628032479    -0.563304535647    12.000000000000
         C           -6.139817318844    -0.674124863404    -0.570293876982    12.000000000000
         C           -7.380188291863    -1.391254415832    -0.562877815441    12.000000000000
         C           -4.918688659982    -1.391743244281    -0.557953378832    12.000000000000
         C           -3.684442475410    -0.687225541986    -0.568985618897    12.000000000000
         C           -2.460821219973    -1.403333405075    -0.558442532707    12.000000000000
         C           -1.231166192046    -0.702162091131    -0.570562911499    12.000000000000
         C           -0.007573805113    -1.417407075662    -0.563106387196    12.000000000000
         C            1.223643536163    -0.715263603514    -0.553100765247    12.000000000000
         C            2.445666469606    -1.429631515257    -0.564850778007    12.000000000000
         C            3.676862523121    -0.726695657806    -0.568991362402    12.000000000000
         C            6.132244666694    -0.739967066100    -0.570519336614    12.000000000000
         C            4.903514965779    -1.444445746791    -0.556678262074    12.000000000000
         C            8.599010668965     0.632615640417    -0.565207284599    12.000000000000
         C            8.591741308375    -0.724839093444    -0.563470904338    12.000000000000
         C            7.364858584664    -1.470320891856    -0.563701081031    12.000000000000
         H           -9.528310151544     1.276859222942    -0.566897587194     1.007825032230
         H            9.541406794881     1.174584262194    -0.566259316861     1.007825032230
         C           -7.369842089494    -2.779533372184    -0.561069607019    12.000000000000
         C           -4.924603288776    -2.808425483592    -0.568801239455    12.000000000000
         C           -6.166626675393    -3.516640419076    -0.562499399296    12.000000000000
         C           -3.702514539430    -3.524669775371    -0.558477170269    12.000000000000
         C           -2.467651164839    -2.821314189055    -0.570521808625    12.000000000000
         C           -0.015137653833    -2.833129871650    -0.570240220117    12.000000000000
         C           -1.247126020952    -3.534720401814    -0.558676266708    12.000000000000
         C            1.209240889918    -3.547902904894    -0.556137236917    12.000000000000
         C            2.437331842429    -2.847629964426    -0.570276995228    12.000000000000
         C            4.894298164045    -2.861111194537    -0.569456255157    12.000000000000
         C            3.664611075316    -3.564208071783    -0.556576835216    12.000000000000
         C            6.128634835020    -3.582572283968    -0.563230993259    12.000000000000
         C            7.339668484970    -2.858401533621    -0.561715767177    12.000000000000
         H           -9.541453290984    -1.174551692915    -0.561935119473     1.007825032230
         H            9.528257688346    -1.276907300155    -0.562221096577     1.007825032230
         H           -8.315169223574    -3.318138079463    -0.556897378488     1.007825032230
         H            8.279150962767    -3.407129016144    -0.557376211194     1.007825032230
         C           -6.144998368428    -4.927635499034    -0.561173401236    12.000000000000
         C           -3.706787527723    -4.941249940368    -0.570994369324    12.000000000000
         C           -4.955594237727    -5.643482199745    -0.563027234679    12.000000000000
         C           -2.486125505952    -5.654773800660    -0.558054698279    12.000000000000
         C           -1.254062515205    -4.956110276252    -0.569230304265    12.000000000000
         C            1.201008394143    -4.969268614444    -0.568049180007    12.000000000000
         C           -0.030340854139    -5.669508529390    -0.560205980343    12.000000000000
         C            3.653745921603    -4.980732001665    -0.567291180259    12.000000000000
         C            2.425488516150    -5.681162861778    -0.557914249707    12.000000000000
         C            6.091961438086    -4.993246189637    -0.560936766585    12.000000000000
         C            4.894972264885    -5.696336647208    -0.562172962415    12.000000000000
         H           -7.089896567766    -5.466988068489    -0.556770639554     1.007825032230
         H            7.031051029475    -5.542646762583    -0.557356986821     1.007825032230
         C           -4.923549501924    -7.078809325928    -0.563582003583    12.000000000000
         C           -2.485346267963    -7.087716304180    -0.566091896019    12.000000000000
         C           -3.751690071504    -7.763935383887    -0.565897217094    12.000000000000
         C           -0.037953136713    -7.099453100720    -0.565876170872    12.000000000000
         C           -1.277960280127    -7.772892610917    -0.567860863633    12.000000000000
         C            2.409440141001    -7.114010238253    -0.565012970061    12.000000000000
         C            1.194745757428    -7.786173591813    -0.567165260942    12.000000000000
         C            4.847616872773    -7.131250336830    -0.562506155401    12.000000000000
         C            3.668467426150    -7.803776219194    -0.564854589765    12.000000000000
         H           -5.869944530142    -7.613818824292    -0.562037966718     1.007825032230
         H            5.788245445663    -7.676320415565    -0.561379035919     1.007825032230
         H           -3.753531119175    -8.851059795487    -0.567733131523     1.007825032230
         H           -1.284308585620    -8.860863618748    -0.572288247492     1.007825032230
         H            1.189217394970    -8.874148846840    -0.571257897633     1.007825032230
         H            3.658542435098    -8.890848860304    -0.566509131188     1.007825032230

  Running in c1 symmetry.

  Rotational constants: A =      0.00058  B =      0.00058  C =      0.00035 [cm^-1]
  Rotational constants: A =     17.49608  B =     17.39454  C =     10.50436 [MHz]
  Nuclear repulsion = 17658.657335365707695

  Charge       = 1
  Multiplicity = 1
  Electrons    = 652
  Nalpha       = 326
  Nbeta        = 326

  ==> Algorithm <==

  SCF Algorithm Type is DF.
  DIIS enabled.
  MOM disabled.
  Fractional occupation disabled.
  Guess Type is SAD.
  Energy threshold   = 1.00e-08
  Density threshold  = 1.00e-08
  Integral threshold = 1.00e-12

  ==> Primary Basis <==

  Basis Set: JUN-CC-PVDZ
    Blend: JUN-CC-PVDZ
    Number of shells: 923
    Number of basis functions: 2019
    Number of Cartesian functions: 2122
    Spherical Harmonics?: true
    Max angular momentum: 2

   => Loading Basis Set <=

    Name: (JUN-CC-PVDZ AUX)
    Role: JKFIT
    Keyword: DF_BASIS_SCF
    atoms 1-2, 4-5, 10, 17-34, 41-53, 56-70, 73-89, 92-104, 109-119, 122-130 entry C          line   146 file /opt/software/pc2/EB-SW/software/PSI4/1.9-foss-2022a/share/psi4/basis/jun-cc-pvdz-jkfit.gbs 
    atoms 3, 6                                                               entry N          line   202 file /opt/software/pc2/EB-SW/software/PSI4/1.9-foss-2022a/share/psi4/basis/jun-cc-pvdz-jkfit.gbs 
    atoms 7-9, 11-16, 35-40, 54-55, 71-72, 90-91, 105-108, 120-121, 131-136  entry H          line    70 file /opt/software/pc2/EB-SW/software/PSI4/1.9-foss-2022a/share/psi4/basis/jun-cc-pvdz-jkfit.gbs 

  ==> Integral Setup <==

  ==> DiskDFJK: Density-Fitted J/K Matrices <==

    J tasked:                  Yes
    K tasked:                  Yes
    wK tasked:                  No
    OpenMP threads:             16
    Integrals threads:          16
    Memory [MiB]:            45776
    Algorithm:                Disk
    Integral Cache:           SAVE
    Schwarz Cutoff:          1E-12
    Fitting Condition:       1E-10

   => Auxiliary Basis Set <=

  Basis Set: (JUN-CC-PVDZ AUX)
    Blend: JUN-CC-PVDZ-JKFIT
    Number of shells: 3078
    Number of basis functions: 8896
    Number of Cartesian functions: 10198
    Spherical Harmonics?: true
    Max angular momentum: 3

  Minimum eigenvalue in the overlap matrix is 9.0321808763E-11.
  Reciprocal condition number of the overlap matrix is 3.9609472741E-12.
    Using canonical orthogonalization.
  Overall, 38 of 2019 possible MOs eliminated.


  ==> Pre-Iterations <==

  SCF Guess: Superposition of Atomic Densities via on-the-fly atomic UHF (no occupation information).

   -------------------------
    Irrep   Nso     Nmo    
   -------------------------
     A       2019    1981 
   -------------------------
    Total    2019    1981
   -------------------------

  ==> Iterations <==

                           Total Energy        Delta E     RMS |[F,P]|

   @DF-RHF iter SAD: -3967.13328779746507   -3.96713e+03   0.00000e+00 
   @DF-RHF iter   1: -3952.09740082658709    1.50359e+01   7.16476e-04 ADIIS/DIIS
   @DF-RHF iter   2: -3953.49247573928778   -1.39507e+00   2.33906e-04 ADIIS/DIIS
   @DF-RHF iter   3: -3953.61749340118286   -1.25018e-01   9.93318e-05 DIIS
   @DF-RHF iter   4: -3953.63978976410635   -2.22964e-02   4.05310e-05 DIIS
   @DF-RHF iter   5: -3953.64392031199395   -4.13055e-03   1.00860e-05 DIIS
   @DF-RHF iter   6: -3953.64434175329779   -4.21441e-04   4.57323e-06 DIIS
   @DF-RHF iter   7: -3953.64452209929732   -1.80346e-04   2.20207e-06 DIIS
   @DF-RHF iter   8: -3953.64458262615335   -6.05269e-05   1.11724e-06 DIIS
   @DF-RHF iter   9: -3953.64460002764417   -1.74015e-05   3.57770e-07 DIIS
   @DF-RHF iter  10: -3953.64460122204673   -1.19440e-06   1.45198e-07 DIIS
   @DF-RHF iter  11: -3953.64460137307060   -1.51024e-07   6.03023e-08 DIIS
   @DF-RHF iter  12: -3953.64460140540950   -3.23389e-08   2.97170e-08 DIIS
   @DF-RHF iter  13: -3953.64460141310747   -7.69796e-09   9.95857e-09 DIIS
  Energy and wave function converged.


  ==> Post-Iterations <==

    Orbital Energies [Eh]
    ---------------------

    Doubly Occupied:                                                      

       1A    -15.822288     2A    -15.821755     3A    -11.517219  
       4A    -11.447533     5A    -11.445979     6A    -11.437603  
       7A    -11.437364     8A    -11.317444     9A    -11.317018  
      10A    -11.316966    11A    -11.316394    12A    -11.316362  
      13A    -11.316142    14A    -11.316097    15A    -11.315967  
      16A    -11.315833    17A    -11.315517    18A    -11.315463  
      19A    -11.315297    20A    -11.315129    21A    -11.315071  
      22A    -11.314927    23A    -11.314858    24A    -11.314779  
      25A    -11.314571    26A    -11.314398    27A    -11.314246  
      28A    -11.314175    29A    -11.314113    30A    -11.313923  
      31A    -11.313763    32A    -11.313120    33A    -11.313081  
      34A    -11.313015    35A    -11.312932    36A    -11.312893  
      37A    -11.312833    38A    -11.312803    39A    -11.312776  
      40A    -11.312576    41A    -11.312535    42A    -11.312463  
      43A    -11.312326    44A    -11.311840    45A    -11.311799  
      46A    -11.311794    47A    -11.311533    48A    -11.311500  
      49A    -11.311301    50A    -11.311267    51A    -11.311248  
      52A    -11.311225    53A    -11.311184    54A    -11.310927  
      55A    -11.310896    56A    -11.310845    57A    -11.310822  
      58A    -11.310813    59A    -11.310796    60A    -11.310422  
      61A    -11.310409    62A    -11.310335    63A    -11.310304  
      64A    -11.310256    65A    -11.310215    66A    -11.310181  
      67A    -11.310157    68A    -11.310120    69A    -11.309935  
      70A    -11.309908    71A    -11.309817    72A    -11.309808  
      73A    -11.309672    74A    -11.309639    75A    -11.309592  
      76A    -11.309588    77A    -11.309548    78A    -11.309184  
      79A    -11.309169    80A    -11.303151    81A    -11.303104  
      82A    -11.303072    83A    -11.303068    84A    -11.303013  
      85A    -11.303007    86A    -11.302978    87A    -11.302966  
      88A    -11.302717    89A    -11.302698    90A    -11.302594  
      91A    -11.302514    92A    -11.302316    93A    -11.302290  
      94A    -11.302254    95A    -11.302215    96A    -11.301758  
      97A    -11.301752    98A    -11.300849    99A    -11.300823  
     100A    -11.300785   101A    -11.300746   102A    -11.300290  
     103A    -11.300284   104A     -1.565823   105A     -1.421450  
     106A     -1.306576   107A     -1.290657   108A     -1.290549  
     109A     -1.271410   110A     -1.271398   111A     -1.267101  
     112A     -1.251375   113A     -1.246269   114A     -1.239621  
     115A     -1.239527   116A     -1.226316   117A     -1.223915  
     118A     -1.223906   119A     -1.206846   120A     -1.206843  
     121A     -1.203993   122A     -1.194661   123A     -1.194656  
     124A     -1.179223   125A     -1.177034   126A     -1.165877  
     127A     -1.163648   128A     -1.163582   129A     -1.163009  
     130A     -1.161396   131A     -1.138977   132A     -1.138944  
     133A     -1.126723   134A     -1.126715   135A     -1.118497  
     136A     -1.118477   137A     -1.116067   138A     -1.106671  
     139A     -1.097130   140A     -1.097117   141A     -1.090772  
     142A     -1.088492   143A     -1.088469   144A     -1.076461  
     145A     -1.073107   146A     -1.073098   147A     -1.057639  
     148A     -1.057155   149A     -1.054062   150A     -1.051248  
     151A     -1.051242   152A     -1.040544   153A     -1.021561  
     154A     -1.021556   155A     -1.010213   156A     -1.005819  
     157A     -1.005797   158A     -0.984659   159A     -0.957101  
     160A     -0.957029   161A     -0.956096   162A     -0.954942  
     163A     -0.954889   164A     -0.943911   165A     -0.943823  
     166A     -0.941456   167A     -0.941367   168A     -0.940280  
     169A     -0.921925   170A     -0.917954   171A     -0.904820  
     172A     -0.901526   173A     -0.898817   174A     -0.898736  
     175A     -0.896587   176A     -0.893734   177A     -0.884744  
     178A     -0.884722   179A     -0.877499   180A     -0.877494  
     181A     -0.838099   182A     -0.835306   183A     -0.835222  
     184A     -0.833337   185A     -0.833305   186A     -0.832910  
     187A     -0.832594   188A     -0.832569   189A     -0.817459  
     190A     -0.812018   191A     -0.804049   192A     -0.801185  
     193A     -0.800902   194A     -0.783003   195A     -0.777873  
     196A     -0.777429   197A     -0.777355   198A     -0.775414  
     199A     -0.774905   200A     -0.774858   201A     -0.773943  
     202A     -0.769551   203A     -0.769376   204A     -0.764500  
     205A     -0.764466   206A     -0.749352   207A     -0.749342  
     208A     -0.736874   209A     -0.735811   210A     -0.735793  
     211A     -0.732278   212A     -0.732270   213A     -0.728954  
     214A     -0.717631   215A     -0.713742   216A     -0.704790  
     217A     -0.703233   218A     -0.700762   219A     -0.700738  
     220A     -0.700538   221A     -0.700474   222A     -0.699311  
     223A     -0.691490   224A     -0.691458   225A     -0.690060  
     226A     -0.689013   227A     -0.686369   228A     -0.686353  
     229A     -0.679298   230A     -0.670577   231A     -0.664735  
     232A     -0.664712   233A     -0.658829   234A     -0.658807  
     235A     -0.650923   236A     -0.650801   237A     -0.649288  
     238A     -0.649253   239A     -0.648941   240A     -0.648751  
     241A     -0.645065   242A     -0.644953   243A     -0.644937  
     244A     -0.644597   245A     -0.641836   246A     -0.641819  
     247A     -0.638442   248A     -0.626766   249A     -0.626732  
     250A     -0.626676   251A     -0.626656   252A     -0.623238  
     253A     -0.621355   254A     -0.618878   255A     -0.618861  
     256A     -0.616549   257A     -0.616496   258A     -0.609792  
     259A     -0.609074   260A     -0.609008   261A     -0.607652  
     262A     -0.604581   263A     -0.600847   264A     -0.596111  
     265A     -0.594936   266A     -0.586590   267A     -0.586486  
     268A     -0.583922   269A     -0.583395   270A     -0.583344  
     271A     -0.578675   272A     -0.577803   273A     -0.577793  
     274A     -0.567270   275A     -0.567163   276A     -0.565402  
     277A     -0.565391   278A     -0.559121   279A     -0.559114  
     280A     -0.548145   281A     -0.546692   282A     -0.546644  
     283A     -0.545067   284A     -0.545055   285A     -0.540835  
     286A     -0.530901   287A     -0.527193   288A     -0.527188  
     289A     -0.523808   290A     -0.520242   291A     -0.516820  
     292A     -0.516791   293A     -0.511412   294A     -0.509447  
     295A     -0.498021   296A     -0.497922   297A     -0.492271  
     298A     -0.492057   299A     -0.491935   300A     -0.484232  
     301A     -0.483544   302A     -0.457926   303A     -0.457894  
     304A     -0.437532   305A     -0.437512   306A     -0.435209  
     307A     -0.435205   308A     -0.435034   309A     -0.404728  
     310A     -0.404707   311A     -0.401067   312A     -0.390304  
     313A     -0.388024   314A     -0.388001   315A     -0.382238  
     316A     -0.382172   317A     -0.358484   318A     -0.353135  
     319A     -0.353125   320A     -0.350905   321A     -0.336317  
     322A     -0.305304   323A     -0.304566   324A     -0.304551  
     325A     -0.254442   326A     -0.254427  

    Virtual:                                                              

     327A     -0.061676   328A     -0.061523   329A     -0.057243  
     330A     -0.053169   331A     -0.044429   332A     -0.038382  
     333A     -0.021096   334A     -0.019540   335A     -0.016090  
     336A     -0.015890   337A     -0.015789   338A     -0.014825  
     339A     -0.009115   340A     -0.004613   341A      0.001316  
     342A      0.001514   343A      0.003846   344A      0.005603  
     345A      0.005957   346A      0.008029   347A      0.009125  
     348A      0.009640   349A      0.010506   350A      0.013416  
     351A      0.015437   352A      0.016105   353A      0.019264  
     354A      0.019360   355A      0.020896   356A      0.020951  
     357A      0.023752   358A      0.025781   359A      0.028694  
     360A      0.028934   361A      0.029360   362A      0.030175  
     363A      0.031156   364A      0.032229   365A      0.032237  
     366A      0.034068   367A      0.034199   368A      0.034820  
     369A      0.039918   370A      0.042124   371A      0.042824  
     372A      0.043440   373A      0.043640   374A      0.047220  
     375A      0.049615   376A      0.053765   377A      0.055107  
     378A      0.055401   379A      0.055537   380A      0.055954  
     381A      0.057216   382A      0.059313   383A      0.059463  
     384A      0.061900   385A      0.062685   386A      0.062929  
     387A      0.064797   388A      0.065166   389A      0.065190  
     390A      0.065254   391A      0.065525   392A      0.070908  
     393A      0.070985   394A      0.072463   395A      0.073262  
     396A      0.073653   397A      0.075275   398A      0.075727  
     399A      0.077616   400A      0.078431   401A      0.082277  
     402A      0.083147   403A      0.085953   404A      0.086403  
     405A      0.086664   406A      0.088412   407A      0.089912  
     408A      0.090347   409A      0.091767   410A      0.094675  
     411A      0.095152   412A      0.095521   413A      0.098555  
     414A      0.099979   415A      0.101914   416A      0.102107  
     417A      0.103083   418A      0.106156   419A      0.106287  
     420A      0.106563   421A      0.106691   422A      0.107441  
     423A      0.108122   424A      0.109938   425A      0.113246  
     426A      0.113605   427A      0.114526   428A      0.115711  
     429A      0.116206   430A      0.119554   431A      0.120937  
     432A      0.121281   433A      0.122308   434A      0.122806  
     435A      0.123570   436A      0.127432   437A      0.128344  
     438A      0.129407   439A      0.129603   440A      0.131056  
     441A      0.131982   442A      0.132395   443A      0.134015  
     444A      0.134127   445A      0.138449   446A      0.141963  
     447A      0.142503   448A      0.143117   449A      0.143746  
     450A      0.144047   451A      0.144444   452A      0.146627  
     453A      0.147233   454A      0.150221   455A      0.151555  
     456A      0.153350   457A      0.153858   458A      0.154615  
     459A      0.156539   460A      0.156803   461A      0.157700  
     462A      0.158831   463A      0.159592   464A      0.160133  
     465A      0.160508   466A      0.160711   467A      0.161151  
     468A      0.161682   469A      0.162549   470A      0.162633  
     471A      0.162798   472A      0.163210   473A      0.165670  
     474A      0.167324   475A      0.167770   476A      0.168646  
     477A      0.169661   478A      0.170214   479A      0.170537  
     480A      0.174055   481A      0.174525   482A      0.174767  
     483A      0.176156   484A      0.177894   485A      0.177986  
     486A      0.178462   487A      0.178806   488A      0.182172  
     489A      0.182338   490A      0.182969   491A      0.183076  
     492A      0.184922   493A      0.186086   494A      0.186487  
     495A      0.186871   496A      0.188316   497A      0.189772  
     498A      0.192096   499A      0.192271   500A      0.192635  
     501A      0.193231   502A      0.195147   503A      0.195336  
     504A      0.195528   505A      0.199617   506A      0.199865  
     507A      0.200075   508A      0.200535   509A      0.203096  
     510A      0.203458   511A      0.207762   512A      0.208628  
     513A      0.209113   514A      0.209540   515A      0.210685  
     516A      0.212399   517A      0.212634   518A      0.213394  
     519A      0.215326   520A      0.215820   521A      0.216442  
     522A      0.216943   523A      0.218224   524A      0.219383  
     525A      0.219605   526A      0.220127   527A      0.220498  
     528A      0.220745   529A      0.224066   530A      0.225541  
     531A      0.228778   532A      0.229344   533A      0.229905  
     534A      0.230395   535A      0.230818   536A      0.231320  
     537A      0.232146   538A      0.232657   539A      0.233931  
     540A      0.237374   541A      0.237623   542A      0.238040  
     543A      0.239246   544A      0.239383   545A      0.240002  
     546A      0.243839   547A      0.244063   548A      0.244266  
     549A      0.245971   550A      0.246435   551A      0.246751  
     552A      0.249991   553A      0.250680   554A      0.253288  
     555A      0.253963   556A      0.254200   557A      0.254924  
     558A      0.256753   559A      0.258043   560A      0.258877  
     561A      0.259276   562A      0.259995   563A      0.260367  
     564A      0.261160   565A      0.262993   566A      0.265802  
     567A      0.265917   568A      0.266281   569A      0.267029  
     570A      0.268410   571A      0.268721   572A      0.268996  
     573A      0.270701   574A      0.271764   575A      0.272522  
     576A      0.272766   577A      0.273904   578A      0.274291  
     579A      0.276104   580A      0.277299   581A      0.277910  
     582A      0.279022   583A      0.279914   584A      0.280905  
     585A      0.281357   586A      0.282487   587A      0.283257  
     588A      0.284509   589A      0.284846   590A      0.285714  
     591A      0.287172   592A      0.287538   593A      0.288002  
     594A      0.289312   595A      0.290549   596A      0.291890  
     597A      0.293200   598A      0.293427   599A      0.295833  
     600A      0.296000   601A      0.296515   602A      0.297166  
     603A      0.298373   604A      0.298804   605A      0.299936  
     606A      0.301145   607A      0.301465   608A      0.302048  
     609A      0.303044   610A      0.304070   611A      0.304611  
     612A      0.306181   613A      0.308072   614A      0.310111  
     615A      0.314121   616A      0.314275   617A      0.314433  
     618A      0.315444   619A      0.316625   620A      0.318608  
     621A      0.319458   622A      0.320565   623A      0.320936  
     624A      0.321507   625A      0.322193   626A      0.325080  
     627A      0.327251   628A      0.327901   629A      0.329492  
     630A      0.330901   631A      0.331203   632A      0.332153  
     633A      0.332562   634A      0.334185   635A      0.334245  
     636A      0.335061   637A      0.335553   638A      0.336836  
     639A      0.337742   640A      0.339345   641A      0.342423  
     642A      0.343610   643A      0.344723   644A      0.345721  
     645A      0.346893   646A      0.346941   647A      0.347265  
     648A      0.347760   649A      0.347847   650A      0.347976  
     651A      0.349892   652A      0.350489   653A      0.351426  
     654A      0.352101   655A      0.352294   656A      0.352861  
     657A      0.353602   658A      0.354128   659A      0.355114  
     660A      0.355795   661A      0.356045   662A      0.357057  
     663A      0.359440   664A      0.359822   665A      0.360440  
     666A      0.361257   667A      0.361817   668A      0.362798  
     669A      0.363760   670A      0.364177   671A      0.366150  
     672A      0.366507   673A      0.366723   674A      0.367486  
     675A      0.367730   676A      0.368970   677A      0.369814  
     678A      0.372178   679A      0.373107   680A      0.375056  
     681A      0.375476   682A      0.378129   683A      0.378518  
     684A      0.380480   685A      0.380578   686A      0.381531  
     687A      0.382104   688A      0.382608   689A      0.382980  
     690A      0.383696   691A      0.384015   692A      0.384547  
     693A      0.385984   694A      0.386713   695A      0.387953  
     696A      0.388301   697A      0.390518   698A      0.390950  
     699A      0.391528   700A      0.394244   701A      0.400885  
     702A      0.401117   703A      0.401683   704A      0.402864  
     705A      0.403191   706A      0.403535   707A      0.404645  
     708A      0.404761   709A      0.406180   710A      0.406526  
     711A      0.406712   712A      0.407408   713A      0.408543  
     714A      0.409408   715A      0.410652   716A      0.412166  
     717A      0.412354   718A      0.413622   719A      0.413955  
     720A      0.416777   721A      0.417156   722A      0.418325  
     723A      0.418762   724A      0.419646   725A      0.419924  
     726A      0.421231   727A      0.421499   728A      0.425744  
     729A      0.425865   730A      0.426243   731A      0.426464  
     732A      0.427440   733A      0.428460   734A      0.429893  
     735A      0.430324   736A      0.430884   737A      0.431147  
     738A      0.434096   739A      0.435959   740A      0.436611  
     741A      0.437430   742A      0.437824   743A      0.440629  
     744A      0.441428   745A      0.441934   746A      0.443591  
     747A      0.444551   748A      0.445160   749A      0.447409  
     750A      0.447762   751A      0.448075   752A      0.452174  
     753A      0.453580   754A      0.454561   755A      0.455104  
     756A      0.455241   757A      0.455976   758A      0.456809  
     759A      0.457725   760A      0.458556   761A      0.458973  
     762A      0.460918   763A      0.466232   764A      0.466630  
     765A      0.466728   766A      0.468191   767A      0.468275  
     768A      0.469043   769A      0.469263   770A      0.470466  
     771A      0.472808   772A      0.474868   773A      0.475130  
     774A      0.475438   775A      0.481007   776A      0.484146  
     777A      0.484294   778A      0.484346   779A      0.488274  
     780A      0.488909   781A      0.489503   782A      0.490731  
     783A      0.490907   784A      0.495123   785A      0.495892  
     786A      0.496292   787A      0.502433   788A      0.503626  
     789A      0.508972   790A      0.509370   791A      0.511505  
     792A      0.512787   793A      0.513037   794A      0.516413  
     795A      0.517344   796A      0.518342   797A      0.518884  
     798A      0.522378   799A      0.523208   800A      0.523752  
     801A      0.524370   802A      0.526117   803A      0.526231  
     804A      0.527869   805A      0.528764   806A      0.529069  
     807A      0.529251   808A      0.530223   809A      0.533545  
     810A      0.536362   811A      0.539310   812A      0.539509  
     813A      0.540302   814A      0.540743   815A      0.544654  
     816A      0.546083   817A      0.546755   818A      0.547832  
     819A      0.548552   820A      0.552215   821A      0.553815  
     822A      0.554484   823A      0.555218   824A      0.556194  
     825A      0.564436   826A      0.567821   827A      0.569518  
     828A      0.569682   829A      0.570630   830A      0.570851  
     831A      0.573588   832A      0.577804   833A      0.578980  
     834A      0.581749   835A      0.581943   836A      0.582919  
     837A      0.589454   838A      0.590558   839A      0.591144  
     840A      0.596576   841A      0.605326   842A      0.605511  
     843A      0.607285   844A      0.609111   845A      0.609181  
     846A      0.610155   847A      0.610332   848A      0.615185  
     849A      0.617734   850A      0.618083   851A      0.623064  
     852A      0.627041   853A      0.630235   854A      0.634011  
     855A      0.635517   856A      0.638243   857A      0.638273  
     858A      0.639999   859A      0.641092   860A      0.641819  
     861A      0.641973   862A      0.642852   863A      0.648103  
     864A      0.650634   865A      0.651078   866A      0.651406  
     867A      0.651826   868A      0.656036   869A      0.657427  
     870A      0.660557   871A      0.665738   872A      0.669533  
     873A      0.670464   874A      0.672255   875A      0.674515  
     876A      0.679677   877A      0.681281   878A      0.683150  
     879A      0.685500   880A      0.689839   881A      0.691728  
     882A      0.692247   883A      0.694516   884A      0.695488  
     885A      0.695782   886A      0.700009   887A      0.700618  
     888A      0.702062   889A      0.704546   890A      0.708998  
     891A      0.713148   892A      0.722035   893A      0.724854  
     894A      0.732989   895A      0.734281   896A      0.736753  
     897A      0.739002   898A      0.739128   899A      0.743091  
     900A      0.744881   901A      0.745294   902A      0.748444  
     903A      0.749978   904A      0.751523   905A      0.753150  
     906A      0.753892   907A      0.756698   908A      0.757053  
     909A      0.758543   910A      0.760977   911A      0.762892  
     912A      0.765799   913A      0.766779   914A      0.767036  
     915A      0.767886   916A      0.769253   917A      0.769406  
     918A      0.776788   919A      0.778636   920A      0.779085  
     921A      0.780945   922A      0.783578   923A      0.785221  
     924A      0.785703   925A      0.786763   926A      0.787191  
     927A      0.788277   928A      0.791470   929A      0.791638  
     930A      0.796008   931A      0.796826   932A      0.797052  
     933A      0.798437   934A      0.800134   935A      0.803334  
     936A      0.805983   937A      0.807699   938A      0.810101  
     939A      0.811048   940A      0.811862   941A      0.812579  
     942A      0.816224   943A      0.817550   944A      0.817830  
     945A      0.819211   946A      0.819767   947A      0.820256  
     948A      0.821274   949A      0.821438   950A      0.824820  
     951A      0.826473   952A      0.827070   953A      0.828209  
     954A      0.829517   955A      0.830839   956A      0.831501  
     957A      0.833120   958A      0.836970   959A      0.838494  
     960A      0.839333   961A      0.840303   962A      0.841566  
     963A      0.842156   964A      0.843131   965A      0.845736  
     966A      0.848838   967A      0.850508   968A      0.850728  
     969A      0.853821   970A      0.857913   971A      0.857953  
     972A      0.862634   973A      0.863243   974A      0.865978  
     975A      0.867509   976A      0.867720   977A      0.868852  
     978A      0.871260   979A      0.872578   980A      0.872750  
     981A      0.873190   982A      0.873362   983A      0.876581  
     984A      0.878130   985A      0.879387   986A      0.881327  
     987A      0.883492   988A      0.884280   989A      0.884668  
     990A      0.888773   991A      0.889030   992A      0.889364  
     993A      0.894924   994A      0.895177   995A      0.897646  
     996A      0.899174   997A      0.900222   998A      0.901094  
     999A      0.901437  1000A      0.903300  1001A      0.903315  
    1002A      0.904060  1003A      0.904356  1004A      0.907370  
    1005A      0.907621  1006A      0.907799  1007A      0.908341  
    1008A      0.914102  1009A      0.916296  1010A      0.916958  
    1011A      0.918881  1012A      0.919116  1013A      0.921494  
    1014A      0.924429  1015A      0.931872  1016A      0.933193  
    1017A      0.933412  1018A      0.937188  1019A      0.943703  
    1020A      0.944147  1021A      0.944427  1022A      0.944797  
    1023A      0.950260  1024A      0.950955  1025A      0.953020  
    1026A      0.954634  1027A      0.955908  1028A      0.955980  
    1029A      0.956124  1030A      0.957535  1031A      0.960369  
    1032A      0.963550  1033A      0.965649  1034A      0.966192  
    1035A      0.967409  1036A      0.970465  1037A      0.970725  
    1038A      0.970939  1039A      0.971482  1040A      0.973482  
    1041A      0.980170  1042A      0.980837  1043A      0.981225  
    1044A      0.982991  1045A      0.983909  1046A      0.985057  
    1047A      0.986600  1048A      0.987056  1049A      0.989228  
    1050A      0.995235  1051A      0.995813  1052A      0.996691  
    1053A      0.997126  1054A      0.997593  1055A      0.998197  
    1056A      0.998418  1057A      0.998880  1058A      1.002316  
    1059A      1.002992  1060A      1.003050  1061A      1.003938  
    1062A      1.004093  1063A      1.010683  1064A      1.010988  
    1065A      1.011403  1066A      1.013391  1067A      1.015025  
    1068A      1.015603  1069A      1.017279  1070A      1.017613  
    1071A      1.017857  1072A      1.018258  1073A      1.019346  
    1074A      1.020119  1075A      1.020263  1076A      1.020692  
    1077A      1.021645  1078A      1.022074  1079A      1.022632  
    1080A      1.023147  1081A      1.023750  1082A      1.024922  
    1083A      1.025598  1084A      1.026187  1085A      1.026563  
    1086A      1.027591  1087A      1.027850  1088A      1.028776  
    1089A      1.029094  1090A      1.030461  1091A      1.030803  
    1092A      1.031387  1093A      1.031564  1094A      1.032075  
    1095A      1.033004  1096A      1.033905  1097A      1.034718  
    1098A      1.035666  1099A      1.037766  1100A      1.038849  
    1101A      1.039135  1102A      1.039910  1103A      1.040035  
    1104A      1.043560  1105A      1.044767  1106A      1.046792  
    1107A      1.047443  1108A      1.047711  1109A      1.049274  
    1110A      1.050652  1111A      1.050825  1112A      1.051940  
    1113A      1.052253  1114A      1.053474  1115A      1.053975  
    1116A      1.060434  1117A      1.061734  1118A      1.062648  
    1119A      1.068807  1120A      1.070408  1121A      1.070706  
    1122A      1.071864  1123A      1.078175  1124A      1.078260  
    1125A      1.078429  1126A      1.080502  1127A      1.081558  
    1128A      1.083348  1129A      1.084182  1130A      1.084421  
    1131A      1.087648  1132A      1.087784  1133A      1.088730  
    1134A      1.092715  1135A      1.093160  1136A      1.095523  
    1137A      1.096346  1138A      1.096791  1139A      1.099851  
    1140A      1.101034  1141A      1.101590  1142A      1.102335  
    1143A      1.107281  1144A      1.107297  1145A      1.109745  
    1146A      1.112788  1147A      1.113432  1148A      1.114825  
    1149A      1.117968  1150A      1.119592  1151A      1.120474  
    1152A      1.125913  1153A      1.125980  1154A      1.130944  
    1155A      1.134297  1156A      1.135714  1157A      1.135984  
    1158A      1.136795  1159A      1.138366  1160A      1.139432  
    1161A      1.141946  1162A      1.143082  1163A      1.143220  
    1164A      1.152022  1165A      1.152282  1166A      1.152482  
    1167A      1.152610  1168A      1.155154  1169A      1.155341  
    1170A      1.156373  1171A      1.161176  1172A      1.163215  
    1173A      1.164174  1174A      1.165420  1175A      1.166235  
    1176A      1.168110  1177A      1.169155  1178A      1.172795  
    1179A      1.174075  1180A      1.174575  1181A      1.174797  
    1182A      1.177871  1183A      1.183861  1184A      1.184121  
    1185A      1.197727  1186A      1.197952  1187A      1.198640  
    1188A      1.202558  1189A      1.203352  1190A      1.205566  
    1191A      1.210553  1192A      1.212297  1193A      1.212576  
    1194A      1.214617  1195A      1.219548  1196A      1.220029  
    1197A      1.220918  1198A      1.221665  1199A      1.226594  
    1200A      1.235656  1201A      1.235771  1202A      1.239264  
    1203A      1.240975  1204A      1.241096  1205A      1.244603  
    1206A      1.245159  1207A      1.245181  1208A      1.247308  
    1209A      1.252865  1210A      1.253687  1211A      1.256090  
    1212A      1.256282  1213A      1.258663  1214A      1.260789  
    1215A      1.262232  1216A      1.262540  1217A      1.264491  
    1218A      1.270292  1219A      1.270391  1220A      1.270511  
    1221A      1.270975  1222A      1.272420  1223A      1.276971  
    1224A      1.277291  1225A      1.279250  1226A      1.281555  
    1227A      1.281710  1228A      1.286014  1229A      1.286206  
    1230A      1.289952  1231A      1.290372  1232A      1.291136  
    1233A      1.292449  1234A      1.295261  1235A      1.298272  
    1236A      1.300956  1237A      1.304820  1238A      1.306238  
    1239A      1.306304  1240A      1.307797  1241A      1.308982  
    1242A      1.311523  1243A      1.313764  1244A      1.313925  
    1245A      1.318125  1246A      1.319595  1247A      1.320966  
    1248A      1.322812  1249A      1.323974  1250A      1.324693  
    1251A      1.332102  1252A      1.337125  1253A      1.337861  
    1254A      1.340448  1255A      1.344224  1256A      1.345304  
    1257A      1.345536  1258A      1.346355  1259A      1.348813  
    1260A      1.356476  1261A      1.356933  1262A      1.358008  
    1263A      1.359203  1264A      1.359312  1265A      1.359852  
    1266A      1.361933  1267A      1.364152  1268A      1.364446  
    1269A      1.364933  1270A      1.370699  1271A      1.371979  
    1272A      1.374383  1273A      1.375543  1274A      1.376487  
    1275A      1.377160  1276A      1.377316  1277A      1.378965  
    1278A      1.380574  1279A      1.383150  1280A      1.386395  
    1281A      1.386440  1282A      1.386785  1283A      1.389503  
    1284A      1.389912  1285A      1.393131  1286A      1.397422  
    1287A      1.397527  1288A      1.399300  1289A      1.400245  
    1290A      1.400768  1291A      1.402024  1292A      1.405247  
    1293A      1.412245  1294A      1.414647  1295A      1.418247  
    1296A      1.419425  1297A      1.419886  1298A      1.420890  
    1299A      1.422037  1300A      1.427982  1301A      1.434159  
    1302A      1.434246  1303A      1.435305  1304A      1.439263  
    1305A      1.441032  1306A      1.445936  1307A      1.446298  
    1308A      1.449914  1309A      1.453861  1310A      1.455478  
    1311A      1.455654  1312A      1.466443  1313A      1.467001  
    1314A      1.478800  1315A      1.488593  1316A      1.490063  
    1317A      1.490518  1318A      1.491871  1319A      1.493237  
    1320A      1.502905  1321A      1.502978  1322A      1.515717  
    1323A      1.530711  1324A      1.533005  1325A      1.542444  
    1326A      1.543636  1327A      1.547594  1328A      1.550911  
    1329A      1.553327  1330A      1.554268  1331A      1.554991  
    1332A      1.556268  1333A      1.557203  1334A      1.560105  
    1335A      1.560369  1336A      1.560952  1337A      1.563860  
    1338A      1.564316  1339A      1.564477  1340A      1.565277  
    1341A      1.566289  1342A      1.569033  1343A      1.569934  
    1344A      1.570651  1345A      1.572515  1346A      1.575065  
    1347A      1.575483  1348A      1.576483  1349A      1.577421  
    1350A      1.579872  1351A      1.580271  1352A      1.584491  
    1353A      1.585154  1354A      1.585725  1355A      1.586605  
    1356A      1.586923  1357A      1.587627  1358A      1.588280  
    1359A      1.589273  1360A      1.590438  1361A      1.590581  
    1362A      1.592784  1363A      1.594750  1364A      1.601529  
    1365A      1.601846  1366A      1.601950  1367A      1.606051  
    1368A      1.606270  1369A      1.606602  1370A      1.613642  
    1371A      1.614395  1372A      1.617353  1373A      1.617424  
    1374A      1.617790  1375A      1.618688  1376A      1.618764  
    1377A      1.620389  1378A      1.620600  1379A      1.626494  
    1380A      1.626804  1381A      1.627557  1382A      1.628170  
    1383A      1.633208  1384A      1.637562  1385A      1.638799  
    1386A      1.642553  1387A      1.645403  1388A      1.645715  
    1389A      1.646258  1390A      1.647308  1391A      1.649270  
    1392A      1.659133  1393A      1.659338  1394A      1.659769  
    1395A      1.664300  1396A      1.665881  1397A      1.665944  
    1398A      1.668891  1399A      1.670594  1400A      1.671723  
    1401A      1.671827  1402A      1.674151  1403A      1.675116  
    1404A      1.677808  1405A      1.684259  1406A      1.686911  
    1407A      1.687955  1408A      1.695421  1409A      1.695678  
    1410A      1.697626  1411A      1.697764  1412A      1.699740  
    1413A      1.699856  1414A      1.700713  1415A      1.713361  
    1416A      1.715158  1417A      1.718140  1418A      1.729755  
    1419A      1.736631  1420A      1.737433  1421A      1.738023  
    1422A      1.743436  1423A      1.751833  1424A      1.752040  
    1425A      1.758852  1426A      1.760054  1427A      1.764787  
    1428A      1.766602  1429A      1.771839  1430A      1.772600  
    1431A      1.773527  1432A      1.776510  1433A      1.777483  
    1434A      1.777932  1435A      1.779893  1436A      1.780930  
    1437A      1.782622  1438A      1.783087  1439A      1.786259  
    1440A      1.786391  1441A      1.786700  1442A      1.787356  
    1443A      1.790902  1444A      1.793436  1445A      1.795054  
    1446A      1.806597  1447A      1.806693  1448A      1.810038  
    1449A      1.810337  1450A      1.812635  1451A      1.812845  
    1452A      1.815153  1453A      1.815261  1454A      1.818033  
    1455A      1.820114  1456A      1.820591  1457A      1.822969  
    1458A      1.823310  1459A      1.824567  1460A      1.825558  
    1461A      1.830093  1462A      1.831629  1463A      1.832389  
    1464A      1.833010  1465A      1.833639  1466A      1.834134  
    1467A      1.834469  1468A      1.835277  1469A      1.835995  
    1470A      1.838997  1471A      1.839553  1472A      1.852712  
    1473A      1.853263  1474A      1.855385  1475A      1.855710  
    1476A      1.856675  1477A      1.860881  1478A      1.864898  
    1479A      1.865404  1480A      1.866424  1481A      1.870059  
    1482A      1.871292  1483A      1.871968  1484A      1.872077  
    1485A      1.874165  1486A      1.874725  1487A      1.875452  
    1488A      1.880472  1489A      1.883110  1490A      1.886715  
    1491A      1.887463  1492A      1.888551  1493A      1.888923  
    1494A      1.889213  1495A      1.890142  1496A      1.891924  
    1497A      1.893507  1498A      1.894162  1499A      1.895814  
    1500A      1.900798  1501A      1.902956  1502A      1.904437  
    1503A      1.906481  1504A      1.908254  1505A      1.908974  
    1506A      1.909030  1507A      1.910626  1508A      1.910814  
    1509A      1.910937  1510A      1.916738  1511A      1.918084  
    1512A      1.919788  1513A      1.920916  1514A      1.922044  
    1515A      1.923117  1516A      1.930129  1517A      1.931484  
    1518A      1.934574  1519A      1.939159  1520A      1.941534  
    1521A      1.941788  1522A      1.943185  1523A      1.943618  
    1524A      1.944863  1525A      1.956131  1526A      1.956616  
    1527A      1.958517  1528A      1.960331  1529A      1.961251  
    1530A      1.962660  1531A      1.965636  1532A      1.966051  
    1533A      1.966530  1534A      1.967381  1535A      1.968925  
    1536A      1.969434  1537A      1.969829  1538A      1.970734  
    1539A      1.973946  1540A      1.977347  1541A      1.978480  
    1542A      1.980316  1543A      1.982357  1544A      1.983263  
    1545A      1.985009  1546A      1.989127  1547A      1.991472  
    1548A      1.991854  1549A      1.996739  1550A      1.999281  
    1551A      2.002001  1552A      2.002804  1553A      2.005666  
    1554A      2.005896  1555A      2.008134  1556A      2.008729  
    1557A      2.009725  1558A      2.009937  1559A      2.015731  
    1560A      2.017365  1561A      2.018719  1562A      2.018873  
    1563A      2.020246  1564A      2.025258  1565A      2.027415  
    1566A      2.029366  1567A      2.030009  1568A      2.030519  
    1569A      2.031479  1570A      2.032423  1571A      2.032645  
    1572A      2.033225  1573A      2.036137  1574A      2.037751  
    1575A      2.038454  1576A      2.039411  1577A      2.040559  
    1578A      2.041464  1579A      2.041773  1580A      2.043308  
    1581A      2.043890  1582A      2.046431  1583A      2.046573  
    1584A      2.047269  1585A      2.047685  1586A      2.050841  
    1587A      2.050964  1588A      2.051753  1589A      2.053269  
    1590A      2.056485  1591A      2.059618  1592A      2.061041  
    1593A      2.061291  1594A      2.061831  1595A      2.062743  
    1596A      2.064011  1597A      2.066550  1598A      2.067675  
    1599A      2.069401  1600A      2.074926  1601A      2.075467  
    1602A      2.076280  1603A      2.077104  1604A      2.077224  
    1605A      2.077915  1606A      2.078210  1607A      2.080036  
    1608A      2.080829  1609A      2.084545  1610A      2.085286  
    1611A      2.085914  1612A      2.087163  1613A      2.091898  
    1614A      2.092097  1615A      2.093768  1616A      2.094802  
    1617A      2.095023  1618A      2.098302  1619A      2.104000  
    1620A      2.104430  1621A      2.106242  1622A      2.106642  
    1623A      2.107732  1624A      2.108858  1625A      2.109354  
    1626A      2.109696  1627A      2.113443  1628A      2.113706  
    1629A      2.121190  1630A      2.121471  1631A      2.129535  
    1632A      2.131053  1633A      2.131099  1634A      2.132365  
    1635A      2.137706  1636A      2.138261  1637A      2.139790  
    1638A      2.139999  1639A      2.141766  1640A      2.143439  
    1641A      2.145523  1642A      2.146867  1643A      2.148020  
    1644A      2.148930  1645A      2.149169  1646A      2.150747  
    1647A      2.151179  1648A      2.152262  1649A      2.153335  
    1650A      2.154364  1651A      2.155958  1652A      2.159141  
    1653A      2.163685  1654A      2.163819  1655A      2.169368  
    1656A      2.169484  1657A      2.173113  1658A      2.173348  
    1659A      2.173729  1660A      2.173912  1661A      2.175217  
    1662A      2.178729  1663A      2.182536  1664A      2.183862  
    1665A      2.184457  1666A      2.186736  1667A      2.187905  
    1668A      2.188079  1669A      2.191717  1670A      2.196122  
    1671A      2.197153  1672A      2.198726  1673A      2.199465  
    1674A      2.211884  1675A      2.212118  1676A      2.213396  
    1677A      2.214347  1678A      2.215900  1679A      2.217325  
    1680A      2.221386  1681A      2.224441  1682A      2.233173  
    1683A      2.234377  1684A      2.235288  1685A      2.240894  
    1686A      2.241963  1687A      2.245770  1688A      2.247209  
    1689A      2.254086  1690A      2.254532  1691A      2.258773  
    1692A      2.259387  1693A      2.262812  1694A      2.273407  
    1695A      2.275060  1696A      2.275109  1697A      2.276949  
    1698A      2.279035  1699A      2.280814  1700A      2.281189  
    1701A      2.282125  1702A      2.283384  1703A      2.284545  
    1704A      2.288499  1705A      2.291342  1706A      2.291959  
    1707A      2.292243  1708A      2.294477  1709A      2.295194  
    1710A      2.295859  1711A      2.297925  1712A      2.298364  
    1713A      2.307363  1714A      2.316015  1715A      2.320427  
    1716A      2.321024  1717A      2.331750  1718A      2.334107  
    1719A      2.337702  1720A      2.339261  1721A      2.340831  
    1722A      2.341699  1723A      2.343842  1724A      2.345929  
    1725A      2.368374  1726A      2.369415  1727A      2.373018  
    1728A      2.377605  1729A      2.381144  1730A      2.391360  
    1731A      2.393148  1732A      2.401270  1733A      2.402543  
    1734A      2.414388  1735A      2.414486  1736A      2.417855  
    1737A      2.418060  1738A      2.422200  1739A      2.422497  
    1740A      2.441774  1741A      2.442220  1742A      2.443814  
    1743A      2.449345  1744A      2.452200  1745A      2.456948  
    1746A      2.458095  1747A      2.462074  1748A      2.467046  
    1749A      2.469549  1750A      2.488636  1751A      2.488878  
    1752A      2.490256  1753A      2.492198  1754A      2.492989  
    1755A      2.494240  1756A      2.497768  1757A      2.498688  
    1758A      2.500206  1759A      2.501301  1760A      2.505331  
    1761A      2.505527  1762A      2.509350  1763A      2.513908  
    1764A      2.521133  1765A      2.522883  1766A      2.531509  
    1767A      2.535332  1768A      2.535398  1769A      2.535817  
    1770A      2.536621  1771A      2.540167  1772A      2.540263  
    1773A      2.543329  1774A      2.545426  1775A      2.551753  
    1776A      2.551850  1777A      2.562995  1778A      2.563240  
    1779A      2.563530  1780A      2.564060  1781A      2.566709  
    1782A      2.567804  1783A      2.582131  1784A      2.582900  
    1785A      2.590347  1786A      2.591403  1787A      2.593582  
    1788A      2.595106  1789A      2.597679  1790A      2.598512  
    1791A      2.598944  1792A      2.603805  1793A      2.606476  
    1794A      2.606778  1795A      2.613589  1796A      2.614790  
    1797A      2.615451  1798A      2.618651  1799A      2.621401  
    1800A      2.621757  1801A      2.622609  1802A      2.627877  
    1803A      2.628681  1804A      2.634363  1805A      2.635208  
    1806A      2.636759  1807A      2.640895  1808A      2.641009  
    1809A      2.641291  1810A      2.642260  1811A      2.644782  
    1812A      2.645791  1813A      2.647106  1814A      2.653481  
    1815A      2.670721  1816A      2.671347  1817A      2.680741  
    1818A      2.680900  1819A      2.681577  1820A      2.681775  
    1821A      2.682392  1822A      2.682917  1823A      2.687271  
    1824A      2.696708  1825A      2.702728  1826A      2.708546  
    1827A      2.709273  1828A      2.715676  1829A      2.720579  
    1830A      2.724288  1831A      2.728877  1832A      2.729399  
    1833A      2.746314  1834A      2.747846  1835A      2.748814  
    1836A      2.750168  1837A      2.751192  1838A      2.751301  
    1839A      2.755961  1840A      2.757636  1841A      2.759824  
    1842A      2.763732  1843A      2.763930  1844A      2.765428  
    1845A      2.765910  1846A      2.776575  1847A      2.776822  
    1848A      2.789530  1849A      2.789636  1850A      2.791050  
    1851A      2.791275  1852A      2.794902  1853A      2.795570  
    1854A      2.809267  1855A      2.814119  1856A      2.814599  
    1857A      2.819874  1858A      2.821172  1859A      2.824016  
    1860A      2.843906  1861A      2.844817  1862A      2.861068  
    1863A      2.868806  1864A      2.868990  1865A      2.878653  
    1866A      2.880776  1867A      2.885572  1868A      2.885730  
    1869A      2.913435  1870A      2.915544  1871A      2.916190  
    1872A      2.926734  1873A      2.929394  1874A      2.942321  
    1875A      2.943019  1876A      2.978940  1877A      2.979614  
    1878A      2.985317  1879A      2.986135  1880A      2.989504  
    1881A      2.996735  1882A      2.997472  1883A      2.999031  
    1884A      3.006908  1885A      3.007076  1886A      3.015455  
    1887A      3.022676  1888A      3.053853  1889A      3.059596  
    1890A      3.063708  1891A      3.063939  1892A      3.072370  
    1893A      3.072457  1894A      3.076590  1895A      3.077441  
    1896A      3.082426  1897A      3.084117  1898A      3.092674  
    1899A      3.093857  1900A      3.098008  1901A      3.098686  
    1902A      3.100128  1903A      3.100948  1904A      3.104604  
    1905A      3.113434  1906A      3.116319  1907A      3.124194  
    1908A      3.125742  1909A      3.126218  1910A      3.144024  
    1911A      3.144573  1912A      3.171334  1913A      3.203019  
    1914A      3.209987  1915A      3.210556  1916A      3.211080  
    1917A      3.212042  1918A      3.214401  1919A      3.218355  
    1920A      3.221455  1921A      3.224729  1922A      3.225480  
    1923A      3.242757  1924A      3.244229  1925A      3.245019  
    1926A      3.252571  1927A      3.310164  1928A      3.311300  
    1929A      3.318849  1930A      3.364350  1931A      3.378320  
    1932A      3.380347  1933A      3.383774  1934A      3.393497  
    1935A      3.397066  1936A      3.408956  1937A      3.413229  
    1938A      3.413878  1939A      3.419643  1940A      3.422650  
    1941A      3.429773  1942A      3.432883  1943A      3.441929  
    1944A      3.448069  1945A      3.457849  1946A      3.487010  
    1947A      3.523299  1948A      3.524962  1949A      3.531607  
    1950A      3.537372  1951A      3.539742  1952A      3.585792  
    1953A      3.587963  1954A      3.613840  1955A      3.616238  
    1956A      3.654071  1957A      3.695767  1958A      3.699136  
    1959A      3.699922  1960A      3.711333  1961A      3.727073  
    1962A      3.728740  1963A      3.791998  1964A      3.792930  
    1965A      3.821362  1966A      3.824374  1967A      3.854066  
    1968A      3.862077  1969A      3.885833  1970A      3.887537  
    1971A      3.897809  1972A      3.898911  1973A      3.907371  
    1974A      3.912248  1975A      3.919325  1976A      3.973277  
    1977A      3.975850  1978A      4.018738  1979A      4.175817  
    1980A      4.248145  1981A      4.340123  

    Final Occupation by Irrep:
              A 
    DOCC [   326 ]
    NA   [   326 ]
    NB   [   326 ]

  @DF-RHF Final Energy: -3953.64460141310747

   => Energetics <=

    Nuclear Repulsion Energy =          17658.6573353657076950
    One-Electron Energy =              -40530.2962439260954852
    Two-Electron Energy =               18917.9943071472807787
    Total Energy =                      -3953.6446014131070115

Computation Completed


Properties will be evaluated at   0.000000,   0.000000,   0.000000 [a0]

Properties computed using the SCF density matrix


 Multipole Moments:

 ------------------------------------------------------------------------------------
     Multipole            Electronic (a.u.)      Nuclear  (a.u.)        Total (a.u.)
 ------------------------------------------------------------------------------------

 L = 1.  Multiply by 2.5417464519 to convert [e a0] to [Debye]
 Dipole X            :          0.0015887            0.0004804            0.0020691
 Dipole Y            :         -1.5310177            1.8866171            0.3555994
 Dipole Z            :        -32.9231816           44.8851214           11.9619397
 Magnitude           :                                                   11.9672243

 ------------------------------------------------------------------------------------

*** tstop() called on n2cn0683 at Sat Jan 27 00:21:31 2024
Module time:
	user time   =   28583.51 seconds =     476.39 minutes
	system time =    2460.25 seconds =      41.00 minutes
	total time  =       3650 seconds =      60.83 minutes
Total time:
	user time   =   28583.51 seconds =     476.39 minutes
	system time =    2460.25 seconds =      41.00 minutes
	total time  =       3650 seconds =      60.83 minutes

  //>>>>>>>>>>>>>>>>>>>>>>>>>>>>>>>>>>>//
  //            Monomer A HF           //
  //<<<<<<<<<<<<<<<<<<<<<<<<<<<<<<<<<<<//

   => Libint2 <=

    Primary   basis highest AM E, G, H:  5, 4, 3
    Auxiliary basis highest AM E, G, H:  6, 5, 4
    Onebody   basis highest AM E, G, H:  6, 5, 4
    Solid Harmonics ordering:            gaussian

*** tstart() called on n2cn0683
*** at Sat Jan 27 00:21:31 2024

   => Loading Basis Set <=

    Name: JUN-CC-PVDZ
    Role: ORBITAL
    Keyword: BASIS
    atoms 1-2, 4-5, 10, 17-34, 41-53, 56-70, 73-89, 92-104, 109-119, 122-130 entry C          line   164 file /opt/software/pc2/EB-SW/software/PSI4/1.9-foss-2022a/share/psi4/basis/jun-cc-pvdz.gbs 
    atoms 3, 6                                                               entry N          line   198 file /opt/software/pc2/EB-SW/software/PSI4/1.9-foss-2022a/share/psi4/basis/jun-cc-pvdz.gbs 
    atoms 7-9, 11-16, 35-40, 54-55, 71-72, 90-91, 105-108, 120-121, 131-136  entry H          line    36 file /opt/software/pc2/EB-SW/software/PSI4/1.9-foss-2022a/share/psi4/basis/jun-cc-pvdz.gbs 


         ---------------------------------------------------------
                                   SCF
               by Justin Turney, Rob Parrish, Andy Simmonett
                          and Daniel G. A. Smith
                              RHF Reference
                       16 Threads,  61035 MiB Core
         ---------------------------------------------------------

  ==> Geometry <==

    Molecular point group: c1
    Full point group: C1

    Geometry (in Angstrom), charge = 1, multiplicity = 1:

       Center              X                  Y                   Z               Mass       
    ------------   -----------------  -----------------  -----------------  -----------------
         C            0.680062820275    -1.215917226251     6.843846049624    12.000000000000
         C           -0.680508179725    -1.215533226251     6.841818049624    12.000000000000
         N           -1.085639179725     0.102790773749     6.840820049624    14.003074004430
         C            0.000103820275     0.884191773749     6.837544049624    12.000000000000
[...]
    1579A      2.162228  1580A      2.162775  1581A      2.166289  
    1582A      2.171339  1583A      2.171566  1584A      2.179586  
    1585A      2.180731  1586A      2.181228  1587A      2.182217  
    1588A      2.187789  1589A      2.188705  1590A      2.189193  
    1591A      2.191388  1592A      2.192042  1593A      2.194223  
    1594A      2.195087  1595A      2.196447  1596A      2.198031  
    1597A      2.200251  1598A      2.200543  1599A      2.200769  
    1600A      2.201036  1601A      2.202097  1602A      2.203076  
    1603A      2.205260  1604A      2.206093  1605A      2.209380  
    1606A      2.213744  1607A      2.213988  1608A      2.218728  
    1609A      2.220136  1610A      2.222244  1611A      2.222712  
    1612A      2.224322  1613A      2.224752  1614A      2.224801  
    1615A      2.228774  1616A      2.232020  1617A      2.232295  
    1618A      2.233153  1619A      2.238697  1620A      2.238867  
    1621A      2.239506  1622A      2.241284  1623A      2.247436  
    1624A      2.247755  1625A      2.248235  1626A      2.248674  
    1627A      2.254765  1628A      2.260302  1629A      2.261593  
    1630A      2.263357  1631A      2.264845  1632A      2.266463  
    1633A      2.269504  1634A      2.274179  1635A      2.275286  
    1636A      2.279288  1637A      2.282808  1638A      2.284262  
    1639A      2.290238  1640A      2.290992  1641A      2.296298  
    1642A      2.296755  1643A      2.300747  1644A      2.303724  
    1645A      2.304134  1646A      2.309036  1647A      2.314585  
    1648A      2.316948  1649A      2.324522  1650A      2.324875  
    1651A      2.325185  1652A      2.327119  1653A      2.329395  
    1654A      2.330526  1655A      2.331079  1656A      2.332943  
    1657A      2.334278  1658A      2.335045  1659A      2.337239  
    1660A      2.339796  1661A      2.341405  1662A      2.342163  
    1663A      2.342320  1664A      2.343731  1665A      2.344888  
    1666A      2.345785  1667A      2.346308  1668A      2.349045  
    1669A      2.349395  1670A      2.367999  1671A      2.372265  
    1672A      2.372873  1673A      2.383543  1674A      2.387530  
    1675A      2.387956  1676A      2.390251  1677A      2.391751  
    1678A      2.392806  1679A      2.396954  1680A      2.418294  
    1681A      2.419478  1682A      2.423528  1683A      2.427494  
    1684A      2.431897  1685A      2.441528  1686A      2.443183  
    1687A      2.447253  1688A      2.451182  1689A      2.452056  
    1690A      2.453048  1691A      2.459869  1692A      2.464280  
    1693A      2.464363  1694A      2.467711  1695A      2.467978  
    1696A      2.471891  1697A      2.472146  1698A      2.473431  
    1699A      2.481267  1700A      2.490999  1701A      2.491409  
    1702A      2.494580  1703A      2.501583  1704A      2.506154  
    1705A      2.507189  1706A      2.509374  1707A      2.511457  
    1708A      2.516225  1709A      2.539060  1710A      2.539153  
    1711A      2.540105  1712A      2.541922  1713A      2.542761  
    1714A      2.544937  1715A      2.547555  1716A      2.548502  
    1717A      2.549161  1718A      2.551084  1719A      2.556504  
    1720A      2.556659  1721A      2.564186  1722A      2.571080  
    1723A      2.571554  1724A      2.578455  1725A      2.579981  
    1726A      2.583689  1727A      2.584185  1728A      2.585061  
    1729A      2.586222  1730A      2.588530  1731A      2.588603  
    1732A      2.593187  1733A      2.593495  1734A      2.601287  
    1735A      2.601439  1736A      2.612763  1737A      2.612898  
    1738A      2.613191  1739A      2.613757  1740A      2.616408  
    1741A      2.617513  1742A      2.632567  1743A      2.636631  
    1744A      2.640521  1745A      2.641379  1746A      2.643575  
    1747A      2.645363  1748A      2.647040  1749A      2.647938  
    1750A      2.648610  1751A      2.649150  1752A      2.652734  
    1753A      2.654138  1754A      2.655797  1755A      2.656104  
    1756A      2.664430  1757A      2.665975  1758A      2.666081  
    1759A      2.667546  1760A      2.670366  1761A      2.670521  
    1762A      2.673551  1763A      2.676666  1764A      2.677530  
    1765A      2.679506  1766A      2.684315  1767A      2.685654  
    1768A      2.687008  1769A      2.691104  1770A      2.691225  
    1771A      2.691564  1772A      2.692344  1773A      2.696031  
    1774A      2.697276  1775A      2.704070  1776A      2.720645  
    1777A      2.730651  1778A      2.730745  1779A      2.730910  
    1780A      2.731166  1781A      2.731913  1782A      2.739152  
    1783A      2.751088  1784A      2.752586  1785A      2.760038  
    1786A      2.760805  1787A      2.771471  1788A      2.772595  
    1789A      2.775796  1790A      2.779617  1791A      2.780300  
    1792A      2.799098  1793A      2.799839  1794A      2.801571  
    1795A      2.802160  1796A      2.802191  1797A      2.808945  
    1798A      2.811387  1799A      2.812252  1800A      2.814942  
    1801A      2.815610  1802A      2.815912  1803A      2.816443  
    1804A      2.827960  1805A      2.828222  1806A      2.836756  
    1807A      2.840100  1808A      2.841226  1809A      2.841638  
    1810A      2.841737  1811A      2.845471  1812A      2.860128  
    1813A      2.864854  1814A      2.865377  1815A      2.869658  
    1816A      2.871227  1817A      2.874327  1818A      2.876626  
    1819A      2.893754  1820A      2.895877  1821A      2.896762  
    1822A      2.912962  1823A      2.914627  1824A      2.917669  
    1825A      2.917788  1826A      2.925527  1827A      2.927397  
    1828A      2.929600  1829A      2.934878  1830A      2.934933  
    1831A      2.948405  1832A      2.963090  1833A      2.964708  
    1834A      2.965308  1835A      2.973853  1836A      2.976219  
    1837A      2.991988  1838A      2.992563  1839A      2.997105  
    1840A      3.014154  1841A      3.029291  1842A      3.029974  
    1843A      3.035313  1844A      3.038620  1845A      3.040300  
    1846A      3.046824  1847A      3.047488  1848A      3.048026  
    1849A      3.057498  1850A      3.057615  1851A      3.063359  
    1852A      3.072832  1853A      3.108481  1854A      3.112694  
    1855A      3.113038  1856A      3.122388  1857A      3.126993  
    1858A      3.127547  1859A      3.132393  1860A      3.134169  
    1861A      3.141985  1862A      3.142789  1863A      3.146301  
    1864A      3.148356  1865A      3.148967  1866A      3.149426  
    1867A      3.150174  1868A      3.153509  1869A      3.162131  
    1870A      3.167642  1871A      3.173134  1872A      3.174684  
    1873A      3.175203  1874A      3.193075  1875A      3.193617  
    1876A      3.220047  1877A      3.252773  1878A      3.259381  
    1879A      3.260700  1880A      3.261402  1881A      3.261968  
    1882A      3.264327  1883A      3.268135  1884A      3.271127  
    1885A      3.274473  1886A      3.275321  1887A      3.287837  
    1888A      3.292647  1889A      3.294640  1890A      3.295515  
    1891A      3.302261  1892A      3.305133  1893A      3.318898  
    1894A      3.361154  1895A      3.362262  1896A      3.370043  
    1897A      3.393802  1898A      3.415540  1899A      3.429713  
    1900A      3.432005  1901A      3.436959  1902A      3.445678  
    1903A      3.449270  1904A      3.460987  1905A      3.464549  
    1906A      3.465291  1907A      3.470883  1908A      3.473939  
    1909A      3.481038  1910A      3.484817  1911A      3.493496  
    1912A      3.509072  1913A      3.525047  1914A      3.538676  
    1915A      3.571318  1916A      3.574381  1917A      3.575993  
    1918A      3.582557  1919A      3.589899  1920A      3.636905  
    1921A      3.639145  1922A      3.645250  1923A      3.664606  
    1924A      3.666786  1925A      3.704996  1926A      3.747380  
    1927A      3.749147  1928A      3.750416  1929A      3.758258  
    1930A      3.763081  1931A      3.778596  1932A      3.778815  
    1933A      3.816833  1934A      3.841892  1935A      3.843178  
    1936A      3.868361  1937A      3.871430  1938A      3.874568  
    1939A      3.904533  1940A      3.912908  1941A      3.937637  
    1942A      3.939497  1943A      3.948174  1944A      3.949165  
    1945A      3.958235  1946A      3.958735  1947A      3.964407  
    1948A      3.970879  1949A      4.024608  1950A      4.027402  
    1951A      4.070870  1952A      4.207262  1953A      4.208976  
    1954A      4.228809  1955A      4.301407  1956A      4.348939  
    1957A      4.366506  1958A      4.393369  1959A      4.483019  
    1960A      4.735322  1961A      4.774547  1962A      4.829744  
    1963A      4.847266  1964A      4.936942  1965A      5.049201  
    1966A      5.057090  1967A      5.066021  1968A      5.110968  
    1969A      5.125587  1970A      5.390806  1971A      5.422143  
    1972A      5.733804  1973A      5.750740  1974A      6.067532  
    1975A     18.200996  1976A     18.453252  1977A     18.471172  
    1978A     18.558853  1979A     18.833237  1980A     25.341555  
    1981A     25.375756  

    Final Occupation by Irrep:
              A 
    DOCC [   300 ]
    NA   [   300 ]
    NB   [   300 ]

  @DF-RHF Final Energy: -3650.33758891807520

   => Energetics <=

    Nuclear Repulsion Energy =          15611.4211649754324753
    One-Electron Energy =              -36072.0744981726966216
    Two-Electron Energy =               16810.3157442791889480
    Total Energy =                      -3650.3375889180751983

Computation Completed


Properties will be evaluated at   0.000000,   0.000000,   0.000000 [a0]

Properties computed using the SCF density matrix


 Multipole Moments:

 ------------------------------------------------------------------------------------
     Multipole            Electronic (a.u.)      Nuclear  (a.u.)        Total (a.u.)
 ------------------------------------------------------------------------------------

 L = 1.  Multiply by 2.5417464519 to convert [e a0] to [Debye]
 Dipole X            :         -0.0009130            0.0002112           -0.0007018
 Dipole Y            :          0.0041783           -0.0044281           -0.0002498
 Dipole Z            :        639.7001397         -639.7021045           -0.0019647
 Magnitude           :                                                    0.0021012

 ------------------------------------------------------------------------------------

*** tstop() called on n2cn0683 at Sat Jan 27 01:43:53 2024
Module time:
	user time   =   19892.23 seconds =     331.54 minutes
	system time =    1842.20 seconds =      30.70 minutes
	total time  =       3150 seconds =      52.50 minutes
Total time:
	user time   =   54621.44 seconds =     910.36 minutes
	system time =    4790.30 seconds =      79.84 minutes
	total time  =       8592 seconds =     143.20 minutes
  Constructing Basis Sets for SAPT...

   => Loading Basis Set <=

    Name: (JUN-CC-PVDZ AUX)
    Role: RIFIT
    Keyword: DF_BASIS_SAPT
    atoms 1-2, 4-5, 10, 17-34, 41-53, 56-70, 73-89, 92-104, 109-119, 122-130 entry C          line   100 file /opt/software/pc2/EB-SW/software/PSI4/1.9-foss-2022a/share/psi4/basis/jun-cc-pvdz-ri.gbs 
    atoms 3, 6                                                               entry N          line   144 file /opt/software/pc2/EB-SW/software/PSI4/1.9-foss-2022a/share/psi4/basis/jun-cc-pvdz-ri.gbs 
    atoms 7-9, 11-16, 35-40, 54-55, 71-72, 90-91, 105-108, 120-121, 131-136  entry H          line    30 file /opt/software/pc2/EB-SW/software/PSI4/1.9-foss-2022a/share/psi4/basis/jun-cc-pvdz-ri.gbs 

   => Loading Basis Set <=

    Name: (JUN-CC-PVDZ AUX)
    Role: JKFIT
    Keyword: DF_BASIS_ELST
    atoms 1-2, 4-5, 10, 17-34, 41-53, 56-70, 73-89, 92-104, 109-119, 122-130 entry C          line   146 file /opt/software/pc2/EB-SW/software/PSI4/1.9-foss-2022a/share/psi4/basis/jun-cc-pvdz-jkfit.gbs 
    atoms 3, 6                                                               entry N          line   202 file /opt/software/pc2/EB-SW/software/PSI4/1.9-foss-2022a/share/psi4/basis/jun-cc-pvdz-jkfit.gbs 
    atoms 7-9, 11-16, 35-40, 54-55, 71-72, 90-91, 105-108, 120-121, 131-136  entry H          line    70 file /opt/software/pc2/EB-SW/software/PSI4/1.9-foss-2022a/share/psi4/basis/jun-cc-pvdz-jkfit.gbs 


  //>>>>>>>>>>>>>>>>>>>>>>>>>>>>>>>>>>>//
  //               SSAPT0              //
  //<<<<<<<<<<<<<<<<<<<<<<<<<<<<<<<<<<<//


*** tstart() called on n2cn0683
*** at Sat Jan 27 01:43:54 2024

        SAPT0  
    Ed Hohenstein
     6 June 2009

      Orbital Information
  --------------------------
    NSO        =      2019
    NMO        =      1981
    NRI        =      7157
    NRI (Elst) =      8896
    NOCC A     =        26
    NOCC B     =       300
    FOCC A     =         7
    FOCC B     =        96
    NVIR A     =      1955
    NVIR B     =      1681

    Elst10,r            =    -0.007505224662 [Eh]
    Exch10              =    -0.000000216124 [Eh]
    Exch10 (S^2)        =    -0.000000216124 [Eh]

    Iter     Energy [mEh]          dE [mEh]         Residual      Time [s]
       1      -0.01000054       0.010000541       0.867948149           231
       2      -0.00908959      -0.000910951       0.178626157           441
       3      -0.00981762       0.000728033       0.033647042           670
       4      -0.00981565      -0.000001972       0.012966121           901
       5      -0.00980105      -0.000014599       0.002747876          1113
       6      -0.00980145       0.000000402       0.001409231          1316
       7      -0.00980205       0.000000592       0.000600616          1533
       8      -0.00980204      -0.000000007       0.000228112          1733
       9      -0.00980197      -0.000000069       0.000071506          1963
      10      -0.00980196      -0.000000011       0.000015778          2146
      11      -0.00980196       0.000000006       0.000005513          2312
      12      -0.00980197       0.000000001       0.000001787          2578
      13      -0.00980196      -0.000000001       0.000000705          2769

    CHF Iterations converged


    Iter     Energy [mEh]          dE [mEh]         Residual      Time [s]
       1      -3.40997962       3.409979615      31.988055126           217
       2      -2.21161728      -1.198362334       3.649595883           436
       3      -2.20549092      -0.006126359       1.279082908           668
       4      -2.24639844       0.040907515       0.386264110           922
       5      -2.25134510       0.004946662       0.131440392          1270
       6      -2.25090453      -0.000440568       0.085636063          1499
       7      -2.24974914      -0.001155392       0.041146675          1738
       8      -2.24988288       0.000133741       0.025410979          1964
       9      -2.25019910       0.000316223       0.015287544          2234
      10      -2.25009526      -0.000103847       0.011319221          2512
      11      -2.25004826      -0.000046997       0.004796529          2791
      12      -2.25005477       0.000006511       0.002279374          3102
      13      -2.25006587       0.000011096       0.000991635          3370
      14      -2.25006832       0.000002451       0.000536190          3660
      15      -2.25006621      -0.000002103       0.000364083          3945
      16      -2.25006438      -0.000001829       0.000157059          4250
      17      -2.25006554       0.000001156       0.000058291          4527
      18      -2.25006568       0.000000141       0.000025060          4770
      19      -2.25006556      -0.000000118       0.000015914          5051
      20      -2.25006551      -0.000000056       0.000007290          5337
      21      -2.25006553       0.000000027       0.000003492          5612
      22      -2.25006555       0.000000011       0.000001471          5893
      23      -2.25006554      -0.000000003       0.000000511          6238

    CHF Iterations converged

    Ind20,r (A<-B)      =    -0.000009801965 [Eh]
    Ind20,r (B<-A)      =    -0.002250065543 [Eh]
    Ind20,r             =    -0.002259867508 [Eh]
    Exch-Ind20,r (A<-B) =     0.000000030257 [Eh]
    Exch-Ind20,r (B<-A) =     0.000000176327 [Eh]
    Exch-Ind20,r        =     0.000000206584 [Eh]
    Disp20              =    -0.001148390607 [Eh]
    Disp20 (SS)         =    -0.000574195304 [Eh]
    Disp20 (OS)         =    -0.000574195304 [Eh]
    Exch-Disp20         =     0.000000062847 [Eh]
    Exch-Disp20 (SS)    =     0.000000047179 [Eh]
    Exch-Disp20 (OS)    =     0.000000015667 [Eh]

    SAPT Results 
  --------------------------------------------------------------------------------------------------------
    Electrostatics                 -7.50522466 [mEh]      -4.70959958 [kcal/mol]     -19.70496464 [kJ/mol]
      Elst10,r                     -7.50522466 [mEh]      -4.70959958 [kcal/mol]     -19.70496464 [kJ/mol]

    Exchange                       -0.00021612 [mEh]      -0.00013562 [kcal/mol]      -0.00056743 [kJ/mol]
      Exch10                       -0.00021612 [mEh]      -0.00013562 [kcal/mol]      -0.00056743 [kJ/mol]
      Exch10(S^2)                  -0.00021612 [mEh]      -0.00013562 [kcal/mol]      -0.00056743 [kJ/mol]

    Induction                      -2.28430181 [mEh]      -1.43342102 [kcal/mol]      -5.99743357 [kJ/mol]
      Ind20,r                      -2.25986751 [mEh]      -1.41808827 [kcal/mol]      -5.93328132 [kJ/mol]
      Exch-Ind20,r                  0.00020658 [mEh]       0.00012963 [kcal/mol]       0.00054239 [kJ/mol]
      delta HF,r (2)               -0.02464088 [mEh]      -0.01546239 [kcal/mol]      -0.06469463 [kJ/mol]

    Dispersion                     -1.14832776 [mEh]      -0.72058655 [kcal/mol]      -3.01493412 [kJ/mol]
      Disp20                       -1.14839061 [mEh]      -0.72062599 [kcal/mol]      -3.01509912 [kJ/mol]
      Exch-Disp20                   0.00006285 [mEh]       0.00003944 [kcal/mol]       0.00016500 [kJ/mol]
      Disp20 (SS)                  -0.57419530 [mEh]      -0.36031299 [kcal/mol]      -1.50754956 [kJ/mol]
      Disp20 (OS)                  -0.57419530 [mEh]      -0.36031299 [kcal/mol]      -1.50754956 [kJ/mol]
      Exch-Disp20 (SS)              0.00004718 [mEh]       0.00002961 [kcal/mol]       0.00012387 [kJ/mol]
      Exch-Disp20 (OS)              0.00001567 [mEh]       0.00000983 [kcal/mol]       0.00004113 [kJ/mol]

  Total HF                         -9.78974259 [mEh]      -6.14315622 [kcal/mol]     -25.70296564 [kJ/mol]
  Total SAPT0                     -10.93807035 [mEh]      -6.86374277 [kcal/mol]     -28.71789976 [kJ/mol]

  Special recipe for scaled SAPT0 (see Manual):
    Electrostatics sSAPT0          -7.50522466 [mEh]      -4.70959958 [kcal/mol]     -19.70496464 [kJ/mol]
    Exchange sSAPT0                -0.00021612 [mEh]      -0.00013562 [kcal/mol]      -0.00056743 [kJ/mol]
    Induction sSAPT0               -2.28430181 [mEh]      -1.43342102 [kcal/mol]      -5.99743357 [kJ/mol]
    Dispersion sSAPT0              -1.14832776 [mEh]      -0.72058655 [kcal/mol]      -3.01493412 [kJ/mol]
  Total sSAPT0                    -10.93807035 [mEh]      -6.86374277 [kcal/mol]     -28.71789976 [kJ/mol]
  --------------------------------------------------------------------------------------------------------

*** tstop() called on n2cn0683 at Sat Jan 27 08:55:11 2024
Module time:
	user time   =   78451.48 seconds =    1307.52 minutes
	system time =    3836.63 seconds =      63.94 minutes
	total time  =      25877 seconds =     431.28 minutes
Total time:
	user time   =  133074.43 seconds =    2217.91 minutes
	system time =    8626.94 seconds =     143.78 minutes
	total time  =      34470 seconds =     574.50 minutes

    Psi4 stopped on: Saturday, 27 January 2024 08:55AM
    Psi4 wall time for execution: 9:34:31.57

*** Psi4 exiting successfully. Buy a developer a beer!
