
    -----------------------------------------------------------------------
          Psi4: An Open-Source Ab Initio Electronic Structure Package
                               Psi4 1.9 release

                         Git: Rev {} zzzzzzz 


    D. G. A. Smith, L. A. Burns, A. C. Simmonett, R. M. Parrish,
    M. C. Schieber, R. Galvelis, P. Kraus, H. Kruse, R. Di Remigio,
    A. Alenaizan, A. M. James, S. Lehtola, J. P. Misiewicz, M. Scheurer,
    R. A. Shaw, J. B. Schriber, Y. Xie, Z. L. Glick, D. A. Sirianni,
    J. S. O'Brien, J. M. Waldrop, A. Kumar, E. G. Hohenstein,
    B. P. Pritchard, B. R. Brooks, H. F. Schaefer III, A. Yu. Sokolov,
    K. Patkowski, A. E. DePrince III, U. Bozkaya, R. A. King,
    F. A. Evangelista, J. M. Turney, T. D. Crawford, C. D. Sherrill,
    J. Chem. Phys. 152(18) 184108 (2020). https://doi.org/10.1063/5.0006002

                            Additional Code Authors
    E. T. Seidl, C. L. Janssen, E. F. Valeev, M. L. Leininger,
    J. F. Gonthier, R. M. Richard, H. R. McAlexander, M. Saitow, X. Wang,
    P. Verma, M. H. Lechner, A. Jiang, S. Behnle, A. G. Heide,
    M. F. Herbst, and D. L. Poole

             Previous Authors, Complete List of Code Contributors,
                       and Citations for Specific Modules
    https://github.com/psi4/psi4/blob/master/codemeta.json
    https://github.com/psi4/psi4/graphs/contributors
    http://psicode.org/psi4manual/master/introduction.html#citing-psifour

    -----------------------------------------------------------------------


    Psi4 started on: Saturday, 27 January 2024 11:25AM

    Process ID: 2284919
    Host:       n2cn0537
    PSIDATADIR: /opt/software/pc2/EB-SW/software/PSI4/1.9-foss-2022a/share/psi4
    Memory:     500.0 MiB
    Threads:    16
    
  ==> Input File <==

--------------------------------------------------------------------------
memory 64 GB # how much memory is available ! Depends on the nodes/cores !

molecule dimer {
# monomer A
-1 1    # Charge and multiplicity
B -0.000046  0.000337 6.199994
F -1.153597  0.000048 7.015641
F  1.153661 -0.000581 7.015641
F -0.000019 -1.153637 5.384360
F -0.000019  1.153978 5.384360
--
# monomer B
0 1     # Charge and multiplicity
C   -3.66844126402057      7.80375217008252      0.00190004133558
C   -4.84759871934653      7.13124183134024     -0.00046653359696
C   -4.89495929917518      5.69633040353158     -0.00103944469517
C   -3.65374067877320      4.98073034095895      0.00662099703436
C   -2.40942512149445      7.11398103667468      0.00209438359570
C   -2.42547734410473      5.68112195090346     -0.00491050527438
C   -1.19474401643570      7.78614419430947      0.00356656413763
C   0.03795902893699      7.09942164575698      0.00139585983271
C   0.03033258741920      5.66948955970466     -0.00408752508301
C   -1.20098450790502      4.96927034791531      0.00488220885047
C   1.27795782581485      7.77285944319479      0.00277170839332
C   2.48535808472416      7.08769688523756      0.00049722048857
C   2.48612868491717      5.65477081024076     -0.00644052849921
C   1.25408291964399      4.95607811366431      0.00518741308898
C   3.75171459140595      7.76391215098033      0.00062407186893
C   4.92356605618520      7.07878077698995     -0.00143240883900
C   4.95560727132542      5.64344746336949     -0.00159282164606
C   3.70680153420475      4.94121020833308      0.00349873852374
H   -3.65852113775815      8.89082741913536      0.00358502958574
H   -1.18921332975660      8.87412108735996      0.00753844057883
H   1.28429423888630      8.86083343548850      0.00693053253426
H   3.75354208679975      8.85103527897216      0.00214659618464
H   5.86995870320703      7.61379483465560     -0.00235777588134
H   -5.78823170750226      7.67630221293400     -0.00202638095293
C   -6.09197395869619      4.99326001364347     -0.00291168518608
C   -6.12866148031747      3.58258016879823     -0.00171050815740
C   -3.66457974004527      3.56418217974434     -0.00463560277484
C   -4.89429820469869      2.86108077590057      0.00453338221034
C   -2.43733499489796      2.84761165708481      0.00719617576166
C   -1.20922785759670      3.54788693497833     -0.00648285103018
C   1.24714157216223      3.53468075142962     -0.00729145743546
C   0.01517603956900      2.83311183930540      0.00439272578912
C   2.46764517244071      2.82128997725533      0.00449278391269
C   3.70254947457969      3.52466015442405     -0.00899517692985
C   6.14498038638375      4.92757236613191     -0.00282626685777
C   6.16658835886151      3.51658447594213     -0.00065971342101
C   4.92460995845939      2.80840792535402      0.00587903281610
H   7.08990550964105      5.46688776622306     -0.00658814770723
H   -7.03104175110130      5.54268795285765     -0.00714490013730
C   -7.33969804112295      2.85841153457957     -0.00333767559888
C   -7.36488195805880      1.47032337158330     -0.00157213747140
C   -4.90350460894690      1.44442681216000     -0.00628840166334
C   -6.13225715261081      0.73993935705394      0.00600164231964
C   -3.67687480051673      0.72669714267312      0.00433931473643
C   -2.44565658606518      1.42964113326212     -0.00597039546461
C   -1.22360068130162      0.71532450163492      0.00545886906656
C   0.00763786931376      1.41738314923765      0.00392452278437
C   1.23121980774686      0.70211669058719     -0.01490206287210
C   2.46082110053113      1.40329203612573      0.00460244601878
C   3.68443025419614      0.68719842821222      0.00377365974158
C   4.91870890153864      1.39173456118907     -0.00862816189375
C   7.36980207796101      2.77948220318441     -0.00242013321349
C   7.38016266612146      1.39121750785509     -0.00087345036788
C   6.13979953912259      0.67411862320065      0.00545489144369
H   -8.27919079934664      3.40711804112415     -0.00763522772059
H   8.31511347147953      3.31811809662368     -0.00663070901292
C   -8.59175593758115      0.72483255304480     -0.00123170985383
C   -8.59902460370342     -0.63263980622873      0.00089141472904
C   -6.13981313911873     -0.67413663715361     -0.00609792660607
C   -7.38018411213749     -1.39126618958160      0.00131813493501
C   -4.91868448025621     -1.39175501803000      0.00624257154343
C   -3.68443829568458     -0.68723731573599     -0.00478966852105
C   -2.46081704024768     -1.40334517882457      0.00575341766833
C   -1.23116201232071     -0.70217386488055     -0.00636696112346
C   -0.00756962538737     -1.41741884941102      0.00108956317991
C   1.22364771588843     -0.71527537726392      0.01109518512883
C   2.44567064933149     -1.42964328900682     -0.00065482763106
C   3.67686670284649     -0.72670743155550     -0.00479541202602
C   6.13224884641929     -0.73997883984993     -0.00632338623858
C   4.90351914550401     -1.44445752054090      0.00751768830159
C   8.59901484869081      0.63260386666793     -0.00101133422380
C   8.59174548810050     -0.72485086719319      0.00072504603735
C   7.36486276438985     -1.47033266560598      0.00049486934466
H   -9.52830597181814      1.27684744919284     -0.00270163681798
H   9.54141097460619      1.17457248844457     -0.00206336648518
C   -7.36983790976868     -2.77954514593389      0.00312634335708
C   -4.92459910905015     -2.80843725734101     -0.00460528907921
C   -6.16662249566744     -3.51665219282533      0.00169655107992
C   -3.70251035970491     -3.52468154912026      0.00571878010666
C   -2.46764698511392     -2.82132596280400     -0.00632585824990
C   -0.01513347410770     -2.83314164539971     -0.00604426974092
C   -1.24712184122656     -3.53473217556300      0.00551968366725
C   1.20924506964357     -3.54791467864352      0.00805871345849
C   2.43733602215464     -2.84764173817541     -0.00608104485234
C   4.89430234377080     -2.86112296828604     -0.00526030478103
C   3.66461525504104     -3.56421984553201      0.00761911515957
C   6.12863901474565     -3.58258405771778      0.00096495711699
C   7.33967266469532     -2.85841330737039      0.00248018319869
H   -9.54144911125902     -1.17456346666430      0.00226083090216
H   9.52826186807155     -1.27691907390448      0.00197485379837
H   -8.31516504384864     -3.31814985321231      0.00729857188773
H   8.27915514249207     -3.40714078989363      0.00681973918158
C   -6.14499418870218     -4.92764727278338      0.00302254913999
C   -3.70678334799751     -4.94126171411716     -0.00679841894792
C   -4.95559005800169     -5.64349397349412      0.00116871569699
C   -2.48612132622665     -5.65478557440947      0.00614125209662
C   -1.25405833548005     -4.95612205000132     -0.00503435388927
C   1.20101257386816     -4.96928038819302     -0.00385322963129
C   -0.03033667441341     -5.66952030313900      0.00398997003238
C   3.65375010132847     -4.98074377541453     -0.00309522988330
C   2.42549269587528     -5.68117463552727      0.00628170066869
C   6.09196561781097     -4.99325796338655      0.00325918379042
C   4.89497644461045     -5.69634842095790      0.00202298796027
H   -7.08989238804069     -5.46699984223871      0.00742531082125
H   7.03105520920009     -5.54265853633254      0.00683896355417
C   -4.92354532219813     -7.07882109967734      0.00061394679214
C   -2.48534208823777     -7.08772807792913     -0.00189594564379
C   -3.75168589177895     -7.76394715763627     -0.00170126671874
C   -0.03794895698805     -7.09946487446944     -0.00168022049625
C   -1.27795610040136     -7.77290438466689     -0.00366491325785
C   2.40944432072629     -7.11402201200282     -0.00081701968533
C   1.19474993715296     -7.78618536556242     -0.00296931056689
C   4.84762105249800     -7.13126211057943      0.00168979497423
C   3.66847160587561     -7.80378799294376     -0.00065863938960
H   -5.86994035041618     -7.61383059804164      0.00215798365757
H   5.78824962538815     -7.67633218931421      0.00281691445618
H   -3.75352693944918     -8.85107156923607     -0.00353718114765
H   -1.28430440589466     -8.86087539249706     -0.00809229711623
H   1.18922157469537     -8.87416062058945     -0.00706194725726
H   3.65854661482387     -8.89086063405326     -0.00231318081200

    units angstrom      # Angstroms are the default
    no_reorient         # Geometry fixed, default
    symmetry c1         # C1 symmetry, default
}

set {
    scf_type DF         # Density fitting, faster than exact integrals
    freeze_core True    # Freeze core electrons
    basis jun-cc-pVDZ   # Jun-cc-pVDZ basis set, recommended for sSAPT0 in https://doi.org/10.1063/1.4867135
}

energy('ssapt0')        # Compute sSAPT0 energy, includes also SAPT0
--------------------------------------------------------------------------

  Memory set to  59.605 GiB by Python driver.

Scratch directory: /tmp/
   => Loading Basis Set <=

    Name: JUN-CC-PVDZ
    Role: ORBITAL
    Keyword: BASIS
    atoms 1                                                   entry B          line   130 file /opt/software/pc2/EB-SW/software/PSI4/1.9-foss-2022a/share/psi4/basis/jun-cc-pvdz.gbs 
    atoms 2-5                                                 entry F          line   266 file /opt/software/pc2/EB-SW/software/PSI4/1.9-foss-2022a/share/psi4/basis/jun-cc-pvdz.gbs 
    atoms 6-23, 30-42, 45-59, 62-78, 81-93, 98-108, 111-119   entry C          line   164 file /opt/software/pc2/EB-SW/software/PSI4/1.9-foss-2022a/share/psi4/basis/jun-cc-pvdz.gbs 
    atoms 24-29, 43-44, 60-61, 79-80, 94-97, 109-110, 120-125 entry H          line    36 file /opt/software/pc2/EB-SW/software/PSI4/1.9-foss-2022a/share/psi4/basis/jun-cc-pvdz.gbs 

   => Loading Basis Set <=

    Name: JUN-CC-PVDZ
    Role: ORBITAL
    Keyword: BASIS
    atoms 1                                                   entry B          line   130 file /opt/software/pc2/EB-SW/software/PSI4/1.9-foss-2022a/share/psi4/basis/jun-cc-pvdz.gbs 
    atoms 2-5                                                 entry F          line   266 file /opt/software/pc2/EB-SW/software/PSI4/1.9-foss-2022a/share/psi4/basis/jun-cc-pvdz.gbs 
    atoms 6-23, 30-42, 45-59, 62-78, 81-93, 98-108, 111-119   entry C          line   164 file /opt/software/pc2/EB-SW/software/PSI4/1.9-foss-2022a/share/psi4/basis/jun-cc-pvdz.gbs 
    atoms 24-29, 43-44, 60-61, 79-80, 94-97, 109-110, 120-125 entry H          line    36 file /opt/software/pc2/EB-SW/software/PSI4/1.9-foss-2022a/share/psi4/basis/jun-cc-pvdz.gbs 


  //>>>>>>>>>>>>>>>>>>>>>>>>>>>>>>>>>>>//
  //              Dimer HF             //
  //<<<<<<<<<<<<<<<<<<<<<<<<<<<<<<<<<<<//

   => Libint2 <=

    Primary   basis highest AM E, G, H:  5, 4, 3
    Auxiliary basis highest AM E, G, H:  6, 5, 4
    Onebody   basis highest AM E, G, H:  6, 5, 4
    Solid Harmonics ordering:            gaussian

*** tstart() called on n2cn0537
*** at Sat Jan 27 11:25:35 2024

   => Loading Basis Set <=

    Name: JUN-CC-PVDZ
    Role: ORBITAL
    Keyword: BASIS
    atoms 1                                                   entry B          line   130 file /opt/software/pc2/EB-SW/software/PSI4/1.9-foss-2022a/share/psi4/basis/jun-cc-pvdz.gbs 
    atoms 2-5                                                 entry F          line   266 file /opt/software/pc2/EB-SW/software/PSI4/1.9-foss-2022a/share/psi4/basis/jun-cc-pvdz.gbs 
    atoms 6-23, 30-42, 45-59, 62-78, 81-93, 98-108, 111-119   entry C          line   164 file /opt/software/pc2/EB-SW/software/PSI4/1.9-foss-2022a/share/psi4/basis/jun-cc-pvdz.gbs 
    atoms 24-29, 43-44, 60-61, 79-80, 94-97, 109-110, 120-125 entry H          line    36 file /opt/software/pc2/EB-SW/software/PSI4/1.9-foss-2022a/share/psi4/basis/jun-cc-pvdz.gbs 


         ---------------------------------------------------------
                                   SCF
               by Justin Turney, Rob Parrish, Andy Simmonett
                          and Daniel G. A. Smith
                              RHF Reference
                       16 Threads,  61035 MiB Core
         ---------------------------------------------------------

  ==> Geometry <==

    Molecular point group: c1
    Full point group: C1

    Geometry (in Angstrom), charge = -1, multiplicity = 1:

       Center              X                  Y                   Z               Mass       
    ------------   -----------------  -----------------  -----------------  -----------------
         B           -0.000050191042     0.000351518223     5.772962672425    11.009305360000
         F           -1.153601191042     0.000062518223     6.588609672425    18.998403162730
         F            1.153656808958    -0.000566481777     6.588609672425    18.998403162730
         F           -0.000023191042    -1.153622481777     4.957328672425    18.998403162730
         F           -0.000023191042     1.153992518223     4.957328672425    18.998403162730
         C           -3.668445455062     7.803766688305    -0.425131286239    12.000000000000
         C           -4.847602910388     7.131256349563    -0.427497861172    12.000000000000
         C           -4.894963490217     5.696344921754    -0.428070772270    12.000000000000
         C           -3.653744869815     4.980744859182    -0.420410330540    12.000000000000
         C           -2.409429312536     7.113995554897    -0.424936943979    12.000000000000
         C           -2.425481535146     5.681136469126    -0.431941832849    12.000000000000
         C           -1.194748207477     7.786158712532    -0.423464763437    12.000000000000
         C            0.037954837895     7.099436163980    -0.425635467742    12.000000000000
         C            0.030328396378     5.669504077927    -0.431118852658    12.000000000000
         C           -1.200988698947     4.969284866138    -0.422149118724    12.000000000000
         C            1.277953634773     7.772873961417    -0.424259619181    12.000000000000
         C            2.485353893683     7.087711403460    -0.426534107086    12.000000000000
         C            2.486124493876     5.654785328463    -0.433471856074    12.000000000000
         C            1.254078728602     4.956092631887    -0.421843914486    12.000000000000
         C            3.751710400364     7.763926669203    -0.426407255706    12.000000000000
         C            4.923561865144     7.078795295213    -0.428463736414    12.000000000000
         C            4.955603080284     5.643461981592    -0.428624149221    12.000000000000
         C            3.706797343163     4.941224726556    -0.423532589051    12.000000000000
         H           -3.658525328800     8.890841937358    -0.423446297989     1.007825032230
         H           -1.189217520798     8.874135605583    -0.419492886996     1.007825032230
         H            1.284290047845     8.860847953711    -0.420100795040     1.007825032230
         H            3.753537895758     8.851049797195    -0.424884731390     1.007825032230
         H            5.869954512165     7.613809352878    -0.429389103456     1.007825032230
         H           -5.788235898544     7.676316731157    -0.429057708528     1.007825032230
         C           -6.091978149738     4.993274531866    -0.429943012761    12.000000000000
         C           -6.128665671359     3.582594687021    -0.428741835732    12.000000000000
         C           -3.664583931087     3.564196697967    -0.431666930350    12.000000000000
         C           -4.894302395740     2.861095294123    -0.422497945364    12.000000000000
         C           -2.437339185940     2.847626175307    -0.419835151813    12.000000000000
         C           -1.209232048638     3.547901453201    -0.433514178605    12.000000000000
         C            1.247137381121     3.534695269652    -0.434322785010    12.000000000000
         C            0.015171848527     2.833126357528    -0.422638601786    12.000000000000
         C            2.467640981399     2.821304495478    -0.422538543662    12.000000000000
         C            3.702545283538     3.524674672647    -0.436026504505    12.000000000000
         C            6.144976195342     4.927586884354    -0.429857594432    12.000000000000
         C            6.166584167820     3.516598994165    -0.427691040996    12.000000000000
         C            4.924605767418     2.808422443577    -0.421152294759    12.000000000000
         H            7.089901318599     5.466902284446    -0.433619475282     1.007825032230
         H           -7.031045942143     5.542702471080    -0.434176227712     1.007825032230
         C           -7.339702232165     2.858426052802    -0.430369003174    12.000000000000
         C           -7.364886149100     1.470337889806    -0.428603465046    12.000000000000
         C           -4.903508799989     1.444441330383    -0.433319729238    12.000000000000
         C           -6.132261343652     0.739953875277    -0.421029685255    12.000000000000
         C           -3.676878991558     0.726711660896    -0.422692012838    12.000000000000
         C           -2.445660777107     1.429655651485    -0.433001723039    12.000000000000
         C           -1.223604872343     0.715339019858    -0.421572458508    12.000000000000
         C            0.007633678272     1.417397667460    -0.423106804790    12.000000000000
         C            1.231215616705     0.702131208810    -0.441933390447    12.000000000000
         C            2.460816909489     1.403306554348    -0.422428881556    12.000000000000
         C            3.684426063155     0.687212946435    -0.423257667833    12.000000000000
         C            4.918704710497     1.391749079412    -0.435659489468    12.000000000000
         C            7.369797886919     2.779496721407    -0.429451460788    12.000000000000
         C            7.380158475080     1.391232026078    -0.427904777943    12.000000000000
         C            6.139795348081     0.674133141423    -0.421576436131    12.000000000000
         H           -8.279194990388     3.407132559347    -0.434666555295     1.007825032230
         H            8.315109280438     3.318132614846    -0.433662036588     1.007825032230
         C           -8.591760128623     0.724847071267    -0.428263037429    12.000000000000
         C           -8.599028794745    -0.632625288006    -0.426139912846    12.000000000000
         C           -6.139817330160    -0.674122118931    -0.433129254181    12.000000000000
         C           -7.380188303179    -1.391251671359    -0.425713192640    12.000000000000
         C           -4.918688671298    -1.391740499807    -0.420788756031    12.000000000000
         C           -3.684442486726    -0.687222797513    -0.431820996096    12.000000000000
         C           -2.460821231289    -1.403330660602    -0.421277909906    12.000000000000
         C           -1.231166203362    -0.702159346658    -0.433398288698    12.000000000000
         C           -0.007573816429    -1.417404331188    -0.425941764395    12.000000000000
         C            1.223643524847    -0.715260859041    -0.415936142446    12.000000000000
         C            2.445666458290    -1.429628770784    -0.427686155206    12.000000000000
         C            3.676862511805    -0.726692913333    -0.431826739601    12.000000000000
         C            6.132244655378    -0.739964321627    -0.433354713813    12.000000000000
         C            4.903514954462    -1.444443002318    -0.419513639273    12.000000000000
         C            8.599010657649     0.632618384891    -0.428042661799    12.000000000000
         C            8.591741297059    -0.724836348971    -0.426306281537    12.000000000000
         C            7.364858573348    -1.470318147383    -0.426536458230    12.000000000000
         H           -9.528310162860     1.276861967415    -0.429732964393     1.007825032230
         H            9.541406783565     1.174587006667    -0.429094694060     1.007825032230
         C           -7.369842100810    -2.779530627711    -0.423904984218    12.000000000000
         C           -4.924603300092    -2.808422739118    -0.431636616654    12.000000000000
         C           -6.166626686709    -3.516637674603    -0.425334776495    12.000000000000
         C           -3.702514550747    -3.524667030898    -0.421312547468    12.000000000000
         C           -2.467651176156    -2.821311444581    -0.433357185825    12.000000000000
         C           -0.015137665149    -2.833127127177    -0.433075597316    12.000000000000
         C           -1.247126032268    -3.534717657340    -0.421511643907    12.000000000000
         C            1.209240878602    -3.547900160421    -0.418972614116    12.000000000000
         C            2.437331831113    -2.847627219953    -0.433112372427    12.000000000000
         C            4.894298152729    -2.861108450063    -0.432291632356    12.000000000000
         C            3.664611063999    -3.564205327309    -0.419412212415    12.000000000000
         C            6.128634823704    -3.582569539495    -0.426066370458    12.000000000000
         C            7.339668473654    -2.858398789148    -0.424551144376    12.000000000000
         H           -9.541453302301    -1.174548948442    -0.424770496673     1.007825032230
         H            9.528257677030    -1.276904555682    -0.425056473776     1.007825032230
         H           -8.315169234890    -3.318135334990    -0.419732755687     1.007825032230
         H            8.279150951450    -3.407126271671    -0.420211588393     1.007825032230
         C           -6.144998379744    -4.927632754561    -0.424008778435    12.000000000000
         C           -3.706787539039    -4.941247195895    -0.433829746523    12.000000000000
         C           -4.955594249043    -5.643479455272    -0.425862611878    12.000000000000
         C           -2.486125517268    -5.654771056187    -0.420890075478    12.000000000000
         C           -1.254062526522    -4.956107531779    -0.432065681464    12.000000000000
         C            1.201008382827    -4.969265869970    -0.430884557206    12.000000000000
         C           -0.030340865455    -5.669505784916    -0.423041357542    12.000000000000
         C            3.653745910287    -4.980729257192    -0.430126557458    12.000000000000
         C            2.425488504834    -5.681160117305    -0.420749626906    12.000000000000
         C            6.091961426769    -4.993243445164    -0.423772143784    12.000000000000
         C            4.894972253569    -5.696333902735    -0.425008339614    12.000000000000
         H           -7.089896579082    -5.466985324016    -0.419606016753     1.007825032230
         H            7.031051018158    -5.542644018110    -0.420192364021     1.007825032230
         C           -4.923549513240    -7.078806581455    -0.426417380783    12.000000000000
         C           -2.485346279279    -7.087713559707    -0.428927273219    12.000000000000
         C           -3.751690082821    -7.763932639414    -0.428732594293    12.000000000000
         C           -0.037953148030    -7.099450356247    -0.428711548071    12.000000000000
         C           -1.277960291443    -7.772889866444    -0.430696240833    12.000000000000
         C            2.409440129685    -7.114007493780    -0.427848347260    12.000000000000
         C            1.194745746111    -7.786170847340    -0.430000638142    12.000000000000
         C            4.847616861456    -7.131247592357    -0.425341532600    12.000000000000
         C            3.668467414834    -7.803773474721    -0.427689966964    12.000000000000
         H           -5.869944541458    -7.613816079819    -0.424873343917     1.007825032230
         H            5.788245434347    -7.676317671092    -0.424214413119     1.007825032230
         H           -3.753531130491    -8.851057051013    -0.430568508722     1.007825032230
         H           -1.284308596936    -8.860860874274    -0.435123624691     1.007825032230
         H            1.189217383654    -8.874146102367    -0.434093274832     1.007825032230
         H            3.658542423782    -8.890846115831    -0.429344508387     1.007825032230

  Running in c1 symmetry.

  Rotational constants: A =      0.00062  B =      0.00062  C =      0.00035 [cm^-1]
  Rotational constants: A =     18.64081  B =     18.63785  C =     10.55117 [MHz]
  Nuclear repulsion = 17302.013609510388051

  Charge       = -1
  Multiplicity = 1
  Electrons    = 642
  Nalpha       = 321
  Nbeta        = 321

  ==> Algorithm <==

  SCF Algorithm Type is DF.
  DIIS enabled.
  MOM disabled.
  Fractional occupation disabled.
  Guess Type is SAD.
  Energy threshold   = 1.00e-08
  Density threshold  = 1.00e-08
  Integral threshold = 1.00e-12

  ==> Primary Basis <==

  Basis Set: JUN-CC-PVDZ
    Blend: JUN-CC-PVDZ
    Number of shells: 880
    Number of basis functions: 1938
    Number of Cartesian functions: 2039
    Spherical Harmonics?: true
    Max angular momentum: 2

   => Loading Basis Set <=

    Name: (JUN-CC-PVDZ AUX)
    Role: JKFIT
    Keyword: DF_BASIS_SCF
    atoms 1                                                   entry B          line    90 file /opt/software/pc2/EB-SW/software/PSI4/1.9-foss-2022a/share/psi4/basis/jun-cc-pvdz-jkfit.gbs 
    atoms 2-5                                                 entry F          line   314 file /opt/software/pc2/EB-SW/software/PSI4/1.9-foss-2022a/share/psi4/basis/jun-cc-pvdz-jkfit.gbs 
    atoms 6-23, 30-42, 45-59, 62-78, 81-93, 98-108, 111-119   entry C          line   146 file /opt/software/pc2/EB-SW/software/PSI4/1.9-foss-2022a/share/psi4/basis/jun-cc-pvdz-jkfit.gbs 
    atoms 24-29, 43-44, 60-61, 79-80, 94-97, 109-110, 120-125 entry H          line    70 file /opt/software/pc2/EB-SW/software/PSI4/1.9-foss-2022a/share/psi4/basis/jun-cc-pvdz-jkfit.gbs 

  ==> Integral Setup <==

  ==> DiskDFJK: Density-Fitted J/K Matrices <==

    J tasked:                  Yes
    K tasked:                  Yes
    wK tasked:                  No
    OpenMP threads:             16
    Integrals threads:          16
    Memory [MiB]:            45776
    Algorithm:                Disk
    Integral Cache:           SAVE
    Schwarz Cutoff:          1E-12
    Fitting Condition:       1E-10

   => Auxiliary Basis Set <=

  Basis Set: (JUN-CC-PVDZ AUX)
    Blend: JUN-CC-PVDZ-JKFIT
    Number of shells: 2943
    Number of basis functions: 8531
    Number of Cartesian functions: 9791
    Spherical Harmonics?: true
    Max angular momentum: 3

  Minimum eigenvalue in the overlap matrix is 9.0239210935E-11.
  Reciprocal condition number of the overlap matrix is 3.9476273991E-12.
    Using canonical orthogonalization.
  Overall, 38 of 1938 possible MOs eliminated.


  ==> Pre-Iterations <==

  SCF Guess: Superposition of Atomic Densities via on-the-fly atomic UHF (no occupation information).

   -------------------------
    Irrep   Nso     Nmo    
   -------------------------
     A       1938    1900 
   -------------------------
    Total    1938    1900
   -------------------------

  ==> Iterations <==

                           Total Energy        Delta E     RMS |[F,P]|

   @DF-RHF iter SAD: -4085.00069302712473   -4.08500e+03   0.00000e+00 
   @DF-RHF iter   1: -4071.52031324094196    1.34804e+01   7.89095e-04 ADIIS/DIIS
   @DF-RHF iter   2: -4072.91582948005180   -1.39552e+00   3.08225e-04 ADIIS/DIIS
   @DF-RHF iter   3: -4073.07898597749181   -1.63156e-01   1.01868e-04 ADIIS/DIIS
   @DF-RHF iter   4: -4073.10067275384336   -2.16868e-02   3.68422e-05 DIIS
   @DF-RHF iter   5: -4073.10388838288054   -3.21563e-03   1.05800e-05 DIIS
   @DF-RHF iter   6: -4073.10430804654698   -4.19664e-04   4.15586e-06 DIIS
   @DF-RHF iter   7: -4073.10448463849298   -1.76592e-04   2.06018e-06 DIIS
   @DF-RHF iter   8: -4073.10453637780029   -5.17393e-05   1.11331e-06 DIIS
   @DF-RHF iter   9: -4073.10455056276987   -1.41850e-05   3.07463e-07 DIIS
   @DF-RHF iter  10: -4073.10455140593876   -8.43169e-07   1.51367e-07 DIIS
   @DF-RHF iter  11: -4073.10455153335488   -1.27416e-07   5.96081e-08 DIIS
   @DF-RHF iter  12: -4073.10455156434091   -3.09860e-08   3.08046e-08 DIIS
   @DF-RHF iter  13: -4073.10455157045089   -6.10999e-09   1.08316e-08 DIIS
   @DF-RHF iter  14: -4073.10455157117303   -7.22139e-10   4.86180e-09 DIIS
  Energy and wave function converged.


  ==> Post-Iterations <==

    Orbital Energies [Eh]
    ---------------------

    Doubly Occupied:                                                      

       1A    -26.067246     2A    -26.067066     3A    -26.066444  
       4A    -26.066409     5A    -11.207592     6A    -11.207584  
       7A    -11.207572     8A    -11.207568     9A    -11.207536  
      10A    -11.207535    11A    -11.207529    12A    -11.207524  
      13A    -11.207508    14A    -11.207500    15A    -11.207497  
      16A    -11.207488    17A    -11.207241    18A    -11.207234  
      19A    -11.207229    20A    -11.207222    21A    -11.207177  
      22A    -11.207165    23A    -11.205620    24A    -11.205610  
      25A    -11.205554    26A    -11.205535    27A    -11.205488  
      28A    -11.205451    29A    -11.205393    30A    -11.205332  
      31A    -11.205330    32A    -11.205277    33A    -11.205211  
      34A    -11.205190    35A    -11.204404    36A    -11.204394  
      37A    -11.204317    38A    -11.204299    39A    -11.204264  
      40A    -11.204249    41A    -11.204125    42A    -11.204088  
      43A    -11.204022    44A    -11.203887    45A    -11.203873  
      46A    -11.203681    47A    -11.203576    48A    -11.203456  
      49A    -11.203439    50A    -11.203385    51A    -11.203351  
      52A    -11.203330    53A    -11.203317    54A    -11.203313  
      55A    -11.203236    56A    -11.203229    57A    -11.203165  
      58A    -11.203155    59A    -11.203064    60A    -11.203049  
      61A    -11.203047    62A    -11.203043    63A    -11.203028  
      64A    -11.202991    65A    -11.202990    66A    -11.202988  
      67A    -11.202986    68A    -11.202984    69A    -11.202976  
      70A    -11.202968    71A    -11.202756    72A    -11.202611  
      73A    -11.202585    74A    -11.202187    75A    -11.202128  
      76A    -11.202048    77A    -11.201944    78A    -11.201776  
      79A    -11.201737    80A    -11.201591    81A    -11.201585  
      82A    -11.201533    83A    -11.201531    84A    -11.201529  
      85A    -11.201528    86A    -11.201086    87A    -11.201050  
      88A    -11.200608    89A    -11.199864    90A    -11.199848  
      91A    -11.199806    92A    -11.199793    93A    -11.199784  
      94A    -11.199758    95A    -11.199746    96A    -11.199740  
      97A    -11.199714    98A    -11.199686    99A    -11.199680  
     100A    -11.199648   101A     -7.539036   102A     -1.410732  
     103A     -1.351322   104A     -1.350922   105A     -1.350592  
     106A     -1.195346   107A     -1.182050   108A     -1.181965  
     109A     -1.164448   110A     -1.164444   111A     -1.157965  
     112A     -1.145893   113A     -1.139969   114A     -1.131146  
     115A     -1.131072   116A     -1.118848   117A     -1.118838  
     118A     -1.099010   119A     -1.098999   120A     -1.095910  
     121A     -1.090066   122A     -1.090064   123A     -1.072794  
     124A     -1.058550   125A     -1.058221   126A     -1.057210  
     127A     -1.055938   128A     -1.055897   129A     -1.032817  
     130A     -1.032807   131A     -1.022494   132A     -1.022486  
     133A     -1.011499   134A     -1.011488   135A     -1.008442  
     136A     -0.991518   137A     -0.991508   138A     -0.985170  
     139A     -0.984261   140A     -0.984249   141A     -0.968782  
     142A     -0.963883   143A     -0.963874   144A     -0.952321  
     145A     -0.950858   146A     -0.948378   147A     -0.944489  
     148A     -0.944453   149A     -0.936961   150A     -0.915199  
     151A     -0.915174   152A     -0.901038   153A     -0.900995  
     154A     -0.851626   155A     -0.851585   156A     -0.848755  
     157A     -0.848705   158A     -0.846950   159A     -0.835336  
     160A     -0.835269   161A     -0.833823   162A     -0.833741  
     163A     -0.833445   164A     -0.817776   165A     -0.815837  
     166A     -0.796990   167A     -0.791765   168A     -0.791714  
     169A     -0.789119   170A     -0.787170   171A     -0.779490  
     172A     -0.779472   173A     -0.774120   174A     -0.774110  
     175A     -0.730581   176A     -0.730572   177A     -0.727301  
     178A     -0.727238   179A     -0.726924   180A     -0.726899  
     181A     -0.725919   182A     -0.711714   183A     -0.704284  
     184A     -0.694683   185A     -0.679464   186A     -0.671870  
     187A     -0.671836   188A     -0.669728   189A     -0.669295  
     190A     -0.669282   191A     -0.662122   192A     -0.657861  
     193A     -0.657843   194A     -0.645015   195A     -0.645007  
     196A     -0.631440   197A     -0.631433   198A     -0.630093  
     199A     -0.627252   200A     -0.627236   201A     -0.623747  
     202A     -0.602007   203A     -0.599249   204A     -0.596175  
     205A     -0.596152   206A     -0.595141   207A     -0.593930  
     208A     -0.593895   209A     -0.585371   210A     -0.585292  
     211A     -0.585279   212A     -0.584609   213A     -0.580642  
     214A     -0.580624   215A     -0.574044   216A     -0.561114  
     217A     -0.561106   218A     -0.558132   219A     -0.554191  
     220A     -0.554187   221A     -0.543758   222A     -0.542906  
     223A     -0.542862   224A     -0.542673   225A     -0.541751  
     226A     -0.541615   227A     -0.540702   228A     -0.540688  
     229A     -0.540086   230A     -0.537255   231A     -0.536562  
     232A     -0.536546   233A     -0.530951   234A     -0.528329  
     235A     -0.528148   236A     -0.528046   237A     -0.524394  
     238A     -0.524386   239A     -0.519532   240A     -0.519524  
     241A     -0.518791   242A     -0.512978   243A     -0.512952  
     244A     -0.511421   245A     -0.511279   246A     -0.511148  
     247A     -0.507505   248A     -0.504651   249A     -0.503258  
     250A     -0.503231   251A     -0.499023   252A     -0.495489  
     253A     -0.494489   254A     -0.488631   255A     -0.479022  
     256A     -0.479006   257A     -0.477401   258A     -0.477319  
     259A     -0.473491   260A     -0.473482   261A     -0.471566  
     262A     -0.462025   263A     -0.461971   264A     -0.460599  
     265A     -0.460590   266A     -0.455453   267A     -0.455431  
     268A     -0.447075   269A     -0.447034   270A     -0.442951  
     271A     -0.441111   272A     -0.441104   273A     -0.436844  
     274A     -0.436816   275A     -0.431995   276A     -0.427250  
     277A     -0.423014   278A     -0.423013   279A     -0.419282  
     280A     -0.413349   281A     -0.411117   282A     -0.411106  
     283A     -0.408280   284A     -0.408189   285A     -0.408129  
     286A     -0.402926   287A     -0.389732   288A     -0.389653  
     289A     -0.384920   290A     -0.384715   291A     -0.384514  
     292A     -0.384274   293A     -0.383734   294A     -0.383627  
     295A     -0.380643   296A     -0.379587   297A     -0.351608  
     298A     -0.351581   299A     -0.331691   300A     -0.331682  
     301A     -0.329749   302A     -0.329727   303A     -0.326679  
     304A     -0.298853   305A     -0.298838   306A     -0.295053  
     307A     -0.279700   308A     -0.278691   309A     -0.278657  
     310A     -0.276573   311A     -0.276533   312A     -0.250218  
     313A     -0.245752   314A     -0.245031   315A     -0.244970  
     316A     -0.231038   317A     -0.203245   318A     -0.196727  
     319A     -0.196696   320A     -0.148907   321A     -0.148843  

    Virtual:                                                              

     322A      0.043632   323A      0.043742   324A      0.088995  
     325A      0.089200   326A      0.089230   327A      0.091639  
     328A      0.091661   329A      0.091677   330A      0.091734  
     331A      0.092441   332A      0.097034   333A      0.099622  
     334A      0.105083   335A      0.105097   336A      0.116377  
     337A      0.116382   338A      0.121259   339A      0.122171  
     340A      0.125477   341A      0.126476   342A      0.126536  
     343A      0.128948   344A      0.129161   345A      0.130052  
     346A      0.130969   347A      0.131362   348A      0.131539  
     349A      0.131883   350A      0.136409   351A      0.136539  
     352A      0.138103   353A      0.141776   354A      0.141789  
     355A      0.142206   356A      0.143893   357A      0.143920  
     358A      0.149714   359A      0.153395   360A      0.153422  
     361A      0.154423   362A      0.157131   363A      0.157588  
     364A      0.158226   365A      0.158300   366A      0.160013  
     367A      0.160109   368A      0.162863   369A      0.164221  
     370A      0.165265   371A      0.165336   372A      0.165645  
     373A      0.165763   374A      0.171326   375A      0.172417  
     376A      0.172709   377A      0.174729   378A      0.175662  
     379A      0.177217   380A      0.179487   381A      0.179673  
     382A      0.184128   383A      0.186938   384A      0.187178  
     385A      0.191335   386A      0.191921   387A      0.191961  
     388A      0.192448   389A      0.192705   390A      0.193093  
     391A      0.197707   392A      0.197848   393A      0.202671  
     394A      0.206783   395A      0.206956   396A      0.207555  
     397A      0.208539   398A      0.208604   399A      0.208851  
     400A      0.209591   401A      0.210424   402A      0.210977  
     403A      0.213682   404A      0.214451   405A      0.216418  
     406A      0.216539   407A      0.217158   408A      0.217745  
     409A      0.217975   410A      0.219666   411A      0.220101  
     412A      0.221500   413A      0.226159   414A      0.227214  
     415A      0.229551   416A      0.229570   417A      0.234871  
     418A      0.234961   419A      0.237027   420A      0.237073  
     421A      0.237214   422A      0.239643   423A      0.243032  
     424A      0.243484   425A      0.245397   426A      0.245661  
     427A      0.245990   428A      0.247015   429A      0.250746  
     430A      0.251122   431A      0.251197   432A      0.251881  
     433A      0.252193   434A      0.252293   435A      0.252847  
     436A      0.253308   437A      0.256159   438A      0.261890  
     439A      0.261970   440A      0.262845   441A      0.262919  
     442A      0.263815   443A      0.264309   444A      0.264683  
     445A      0.265991   446A      0.266354   447A      0.266518  
     448A      0.267598   449A      0.267807   450A      0.269308  
     451A      0.269374   452A      0.270471   453A      0.270839  
     454A      0.270900   455A      0.275543   456A      0.276089  
     457A      0.277129   458A      0.277380   459A      0.278271  
     460A      0.282089   461A      0.284036   462A      0.284784  
     463A      0.284841   464A      0.285770   465A      0.285906  
     466A      0.287784   467A      0.287833   468A      0.288030  
     469A      0.289744   470A      0.290777   471A      0.295766  
     472A      0.296316   473A      0.298417   474A      0.301743  
     475A      0.304437   476A      0.304860   477A      0.306004  
     478A      0.307252   479A      0.308593   480A      0.308940  
     481A      0.309164   482A      0.309448   483A      0.310385  
     484A      0.311915   485A      0.312102   486A      0.312548  
     487A      0.312921   488A      0.312946   489A      0.317226  
     490A      0.317309   491A      0.319024   492A      0.319344  
     493A      0.319546   494A      0.322436   495A      0.322470  
     496A      0.329609   497A      0.329799   498A      0.329851  
     499A      0.331843   500A      0.332106   501A      0.334229  
     502A      0.335126   503A      0.335851   504A      0.337294  
     505A      0.337606   506A      0.339084   507A      0.339171  
     508A      0.340800   509A      0.341571   510A      0.345334  
     511A      0.346276   512A      0.348225   513A      0.349406  
     514A      0.350691   515A      0.350808   516A      0.353709  
     517A      0.354107   518A      0.355026   519A      0.356646  
     520A      0.356769   521A      0.357458   522A      0.357656  
     523A      0.359505   524A      0.359744   525A      0.360096  
     526A      0.361794   527A      0.362714   528A      0.362875  
     529A      0.364929   530A      0.365418   531A      0.366958  
     532A      0.367116   533A      0.367145   534A      0.367991  
     535A      0.371833   536A      0.371936   537A      0.372083  
     538A      0.375052   539A      0.376946   540A      0.378598  
     541A      0.378859   542A      0.379889   543A      0.380545  
     544A      0.380705   545A      0.381068   546A      0.381822  
     547A      0.381929   548A      0.382583   549A      0.383496  
     550A      0.384174   551A      0.388266   552A      0.389784  
     553A      0.390278   554A      0.390375   555A      0.392070  
     556A      0.393532   557A      0.393546   558A      0.395298  
     559A      0.397216   560A      0.397337   561A      0.398494  
     562A      0.399566   563A      0.405354   564A      0.405514  
     565A      0.406830   566A      0.407649   567A      0.408147  
     568A      0.410410   569A      0.411067   570A      0.411812  
     571A      0.412913   572A      0.413187   573A      0.413638  
     574A      0.414289   575A      0.415302   576A      0.415451  
     577A      0.416686   578A      0.418065   579A      0.419006  
     580A      0.419985   581A      0.420222   582A      0.423234  
     583A      0.423758   584A      0.425266   585A      0.429646  
     586A      0.429813   587A      0.431775   588A      0.433170  
     589A      0.433732   590A      0.434557   591A      0.434700  
     592A      0.439697   593A      0.439776   594A      0.440124  
     595A      0.440393   596A      0.440618   597A      0.443947  
     598A      0.444683   599A      0.445134   600A      0.447347  
     601A      0.447445   602A      0.448023   603A      0.449091  
     604A      0.449245   605A      0.450337   606A      0.451395  
     607A      0.451583   608A      0.452442   609A      0.453037  
     610A      0.453172   611A      0.454781   612A      0.455974  
     613A      0.456241   614A      0.456283   615A      0.457551  
     616A      0.459962   617A      0.460324   618A      0.460470  
     619A      0.461411   620A      0.461595   621A      0.463163  
     622A      0.463905   623A      0.464297   624A      0.464307  
     625A      0.465554   626A      0.467694   627A      0.467828  
     628A      0.468097   629A      0.469492   630A      0.469956  
     631A      0.470064   632A      0.471963   633A      0.472058  
     634A      0.473482   635A      0.473614   636A      0.474840  
     637A      0.475298   638A      0.475568   639A      0.477729  
     640A      0.478188   641A      0.479775   642A      0.480214  
     643A      0.480281   644A      0.482559   645A      0.483947  
     646A      0.484740   647A      0.486186   648A      0.487026  
     649A      0.487700   650A      0.487956   651A      0.488076  
     652A      0.488442   653A      0.489266   654A      0.490279  
     655A      0.491864   656A      0.492778   657A      0.494307  
     658A      0.494441   659A      0.495195   660A      0.495654  
     661A      0.496520   662A      0.499042   663A      0.500470  
     664A      0.500712   665A      0.501790   666A      0.502257  
     667A      0.506837   668A      0.506996   669A      0.507972  
     670A      0.508285   671A      0.509227   672A      0.509549  
     673A      0.509739   674A      0.512588   675A      0.514492  
     676A      0.514688   677A      0.516348   678A      0.516607  
     679A      0.518940   680A      0.519900   681A      0.520727  
     682A      0.520780   683A      0.521731   684A      0.521923  
     685A      0.522705   686A      0.527755   687A      0.528753  
     688A      0.529167   689A      0.530193   690A      0.530354  
     691A      0.531053   692A      0.531562   693A      0.534169  
     694A      0.535593   695A      0.535922   696A      0.536478  
     697A      0.537425   698A      0.537601   699A      0.538609  
     700A      0.539676   701A      0.540515   702A      0.541133  
     703A      0.542730   704A      0.543839   705A      0.544561  
     706A      0.545358   707A      0.545697   708A      0.545935  
     709A      0.548084   710A      0.548365   711A      0.550497  
     712A      0.550612   713A      0.551569   714A      0.553805  
     715A      0.554291   716A      0.554529   717A      0.556117  
     718A      0.556609   719A      0.558285   720A      0.560780  
     721A      0.561039   722A      0.563615   723A      0.564017  
     724A      0.564579   725A      0.566018   726A      0.567444  
     727A      0.570125   728A      0.571231   729A      0.571608  
     730A      0.572106   731A      0.572608   732A      0.573773  
     733A      0.575171   734A      0.578039   735A      0.578692  
     736A      0.580569   737A      0.580770   738A      0.581339  
     739A      0.581591   740A      0.586962   741A      0.587844  
     742A      0.588674   743A      0.589284   744A      0.591064  
     745A      0.591612   746A      0.591848   747A      0.592789  
     748A      0.593534   749A      0.601851   750A      0.604376  
     751A      0.605512   752A      0.606919   753A      0.614124  
     754A      0.614158   755A      0.615709   756A      0.618393  
     757A      0.619709   758A      0.619789   759A      0.620213  
     760A      0.621786   761A      0.622521   762A      0.622710  
     763A      0.627829   764A      0.628836   765A      0.629872  
     766A      0.634780   767A      0.636346   768A      0.636805  
     769A      0.639291   770A      0.640974   771A      0.641738  
     772A      0.642316   773A      0.642959   774A      0.643557  
     775A      0.643978   776A      0.644371   777A      0.646122  
     778A      0.648305   779A      0.650288   780A      0.652004  
     781A      0.654747   782A      0.657041   783A      0.660624  
     784A      0.661029   785A      0.661594   786A      0.662955  
     787A      0.663398   788A      0.663892   789A      0.665036  
     790A      0.673457   791A      0.674174   792A      0.675857  
     793A      0.676441   794A      0.676886   795A      0.677589  
     796A      0.683127   797A      0.684331   798A      0.687619  
     799A      0.688746   800A      0.692169   801A      0.696324  
     802A      0.696706   803A      0.698821   804A      0.699866  
     805A      0.701372   806A      0.704850   807A      0.709989  
     808A      0.712019   809A      0.714457   810A      0.714708  
     811A      0.716282   812A      0.717014   813A      0.717415  
     814A      0.720999   815A      0.722252   816A      0.723840  
     817A      0.730142   818A      0.730336   819A      0.733036  
     820A      0.734520   821A      0.742098   822A      0.742725  
     823A      0.745513   824A      0.745655   825A      0.747150  
     826A      0.748342   827A      0.749590   828A      0.749931  
     829A      0.750142   830A      0.752401   831A      0.757758  
     832A      0.761448   833A      0.761496   834A      0.761682  
     835A      0.768236   836A      0.768539   837A      0.770304  
     838A      0.770665   839A      0.777176   840A      0.778635  
     841A      0.781834   842A      0.787079   843A      0.788638  
     844A      0.788838   845A      0.794853   846A      0.797119  
     847A      0.798840   848A      0.801162   849A      0.804847  
     850A      0.804986   851A      0.808126   852A      0.808199  
     853A      0.810411   854A      0.828143   855A      0.828603  
     856A      0.838692   857A      0.840609   858A      0.843717  
     859A      0.843855   860A      0.847789   861A      0.849315  
     862A      0.851641   863A      0.855045   864A      0.856249  
     865A      0.857850   866A      0.860006   867A      0.860887  
     868A      0.863576   869A      0.864310   870A      0.869152  
     871A      0.869939   872A      0.870491   873A      0.870722  
     874A      0.872286   875A      0.872518   876A      0.881634  
     877A      0.882522   878A      0.883059   879A      0.889891  
     880A      0.890733   881A      0.891286   882A      0.892745  
     883A      0.894217   884A      0.896913   885A      0.898478  
     886A      0.899570   887A      0.900072   888A      0.900999  
     889A      0.903482   890A      0.905932   891A      0.910530  
     892A      0.912446   893A      0.912907   894A      0.915205  
     895A      0.915830   896A      0.916619   897A      0.919207  
     898A      0.921697   899A      0.921888   900A      0.923264  
     901A      0.923966   902A      0.926350   903A      0.927864  
     904A      0.928501   905A      0.929342   906A      0.929860  
     907A      0.931279   908A      0.932748   909A      0.933573  
     910A      0.936005   911A      0.938082   912A      0.939206  
     913A      0.941997   914A      0.944052   915A      0.946178  
     916A      0.948439   917A      0.950210   918A      0.950467  
     919A      0.951435   920A      0.952917   921A      0.955200  
     922A      0.956463   923A      0.958983   924A      0.959874  
     925A      0.961317   926A      0.965260   927A      0.967398  
     928A      0.967735   929A      0.970320   930A      0.973637  
     931A      0.975359   932A      0.975480   933A      0.975591  
     934A      0.975816   935A      0.977227   936A      0.977657  
     937A      0.981648   938A      0.982886   939A      0.985913  
     940A      0.986863   941A      0.987407   942A      0.987859  
     943A      0.988977   944A      0.990748   945A      0.992035  
     946A      0.995504   947A      0.998308   948A      0.998901  
     949A      1.003070   950A      1.003865   951A      1.004090  
     952A      1.004722   953A      1.005146   954A      1.006756  
     955A      1.008511   956A      1.009321   957A      1.010252  
     958A      1.010470   959A      1.010845   960A      1.011659  
     961A      1.015823   962A      1.018473   963A      1.019497  
     964A      1.021958   965A      1.023076   966A      1.023477  
     967A      1.028274   968A      1.031274   969A      1.036214  
     970A      1.038301   971A      1.038702   972A      1.040848  
     973A      1.046696   974A      1.047983   975A      1.048415  
     976A      1.048910   977A      1.053730   978A      1.057817  
     979A      1.058076   980A      1.059859   981A      1.059996  
     982A      1.060168   983A      1.060794   984A      1.061849  
     985A      1.068966   986A      1.069419   987A      1.071431  
     988A      1.073510   989A      1.073805   990A      1.075639  
     991A      1.076557   992A      1.077279   993A      1.083775  
     994A      1.085976   995A      1.086964   996A      1.087166  
     997A      1.091190   998A      1.091313   999A      1.099263  
    1000A      1.100175  1001A      1.100598  1002A      1.102020  
    1003A      1.102469  1004A      1.103054  1005A      1.104250  
    1006A      1.104847  1007A      1.105200  1008A      1.105750  
    1009A      1.108509  1010A      1.108763  1011A      1.112901  
    1012A      1.112993  1013A      1.116000  1014A      1.116638  
    1015A      1.116923  1016A      1.118375  1017A      1.120704  
    1018A      1.123799  1019A      1.124292  1020A      1.124589  
    1021A      1.124843  1022A      1.125974  1023A      1.126416  
    1024A      1.126884  1025A      1.128820  1026A      1.129398  
    1027A      1.129845  1028A      1.130488  1029A      1.130613  
    1030A      1.131425  1031A      1.131814  1032A      1.132706  
    1033A      1.133127  1034A      1.134447  1035A      1.135230  
    1036A      1.135512  1037A      1.136706  1038A      1.137269  
    1039A      1.137457  1040A      1.137852  1041A      1.138908  
    1042A      1.139132  1043A      1.140244  1044A      1.140718  
    1045A      1.140991  1046A      1.142913  1047A      1.143984  
    1048A      1.145119  1049A      1.146036  1050A      1.147583  
    1051A      1.150016  1052A      1.152576  1053A      1.153796  
    1054A      1.155006  1055A      1.155536  1056A      1.156586  
    1057A      1.157578  1058A      1.158065  1059A      1.158533  
    1060A      1.159489  1061A      1.160578  1062A      1.165567  
    1063A      1.166325  1064A      1.167847  1065A      1.168286  
    1066A      1.171227  1067A      1.179046  1068A      1.179371  
    1069A      1.180038  1070A      1.180979  1071A      1.186156  
    1072A      1.187542  1073A      1.187989  1074A      1.188423  
    1075A      1.189909  1076A      1.192233  1077A      1.192647  
    1078A      1.194872  1079A      1.195208  1080A      1.197809  
    1081A      1.200496  1082A      1.201608  1083A      1.202068  
    1084A      1.205283  1085A      1.206567  1086A      1.207403  
    1087A      1.207486  1088A      1.209330  1089A      1.211735  
    1090A      1.212906  1091A      1.213048  1092A      1.218475  
    1093A      1.222018  1094A      1.223836  1095A      1.225232  
    1096A      1.227052  1097A      1.227798  1098A      1.232996  
    1099A      1.234106  1100A      1.237310  1101A      1.240742  
    1102A      1.243189  1103A      1.243679  1104A      1.245652  
    1105A      1.246320  1106A      1.249390  1107A      1.250666  
    1108A      1.258819  1109A      1.258952  1110A      1.259484  
    1111A      1.260201  1112A      1.261199  1113A      1.266277  
    1114A      1.267188  1115A      1.268231  1116A      1.269277  
    1117A      1.270461  1118A      1.272343  1119A      1.273469  
    1120A      1.274176  1121A      1.275582  1122A      1.278219  
    1123A      1.280538  1124A      1.289065  1125A      1.290012  
    1126A      1.301465  1127A      1.306590  1128A      1.306665  
    1129A      1.307064  1130A      1.307711  1131A      1.307862  
    1132A      1.314231  1133A      1.316604  1134A      1.316814  
    1135A      1.320050  1136A      1.321971  1137A      1.323181  
    1138A      1.325288  1139A      1.325715  1140A      1.336327  
    1141A      1.336988  1142A      1.337180  1143A      1.342805  
    1144A      1.345482  1145A      1.346286  1146A      1.346654  
    1147A      1.348271  1148A      1.348587  1149A      1.348775  
    1150A      1.351868  1151A      1.354063  1152A      1.356576  
    1153A      1.358594  1154A      1.358731  1155A      1.359071  
    1156A      1.365964  1157A      1.367172  1158A      1.367710  
    1159A      1.369066  1160A      1.371894  1161A      1.372335  
    1162A      1.374007  1163A      1.375532  1164A      1.377289  
    1165A      1.378500  1166A      1.380826  1167A      1.381121  
    1168A      1.384356  1169A      1.384538  1170A      1.387264  
    1171A      1.389239  1172A      1.389752  1173A      1.392570  
    1174A      1.396041  1175A      1.396187  1176A      1.398035  
    1177A      1.407774  1178A      1.409335  1179A      1.411785  
    1180A      1.411878  1181A      1.414408  1182A      1.414527  
    1183A      1.416506  1184A      1.417002  1185A      1.417930  
    1186A      1.422292  1187A      1.426699  1188A      1.426905  
    1189A      1.430341  1190A      1.430669  1191A      1.432304  
    1192A      1.437334  1193A      1.442789  1194A      1.443148  
    1195A      1.443533  1196A      1.447315  1197A      1.447652  
    1198A      1.450136  1199A      1.450254  1200A      1.460199  
    1201A      1.461705  1202A      1.462986  1203A      1.463729  
    1204A      1.464501  1205A      1.465770  1206A      1.465979  
    1207A      1.466340  1208A      1.470695  1209A      1.470909  
    1210A      1.478216  1211A      1.478764  1212A      1.479163  
    1213A      1.479977  1214A      1.483474  1215A      1.483644  
    1216A      1.485491  1217A      1.486518  1218A      1.488491  
    1219A      1.489603  1220A      1.490630  1221A      1.491631  
    1222A      1.492635  1223A      1.496133  1224A      1.497629  
    1225A      1.499338  1226A      1.506801  1227A      1.507101  
    1228A      1.507642  1229A      1.508230  1230A      1.508706  
    1231A      1.510530  1232A      1.511339  1233A      1.522905  
    1234A      1.524009  1235A      1.525732  1236A      1.526511  
    1237A      1.527279  1238A      1.528352  1239A      1.529121  
    1240A      1.536258  1241A      1.539561  1242A      1.539881  
    1243A      1.540649  1244A      1.547885  1245A      1.553930  
    1246A      1.554334  1247A      1.558101  1248A      1.560735  
    1249A      1.561733  1250A      1.562769  1251A      1.573203  
    1252A      1.574332  1253A      1.593262  1254A      1.593612  
    1255A      1.595665  1256A      1.600468  1257A      1.610285  
    1258A      1.610316  1259A      1.640620  1260A      1.641287  
    1261A      1.643900  1262A      1.645987  1263A      1.650820  
    1264A      1.657300  1265A      1.658586  1266A      1.662518  
    1267A      1.663365  1268A      1.663961  1269A      1.664520  
    1270A      1.665385  1271A      1.665647  1272A      1.667283  
    1273A      1.668184  1274A      1.672094  1275A      1.672448  
    1276A      1.673209  1277A      1.673299  1278A      1.675939  
    1279A      1.676441  1280A      1.677451  1281A      1.678931  
    1282A      1.679767  1283A      1.681494  1284A      1.682942  
    1285A      1.683466  1286A      1.686956  1287A      1.688198  
    1288A      1.689505  1289A      1.691836  1290A      1.692245  
    1291A      1.692823  1292A      1.693940  1293A      1.694713  
    1294A      1.695509  1295A      1.695858  1296A      1.697021  
    1297A      1.697547  1298A      1.698145  1299A      1.699818  
    1300A      1.702939  1301A      1.706588  1302A      1.706739  
    1303A      1.711122  1304A      1.711245  1305A      1.711314  
    1306A      1.711856  1307A      1.721371  1308A      1.721770  
    1309A      1.725325  1310A      1.725476  1311A      1.725708  
    1312A      1.726151  1313A      1.726600  1314A      1.729019  
    1315A      1.730991  1316A      1.731915  1317A      1.734719  
    1318A      1.735344  1319A      1.742902  1320A      1.744576  
    1321A      1.748959  1322A      1.750022  1323A      1.752831  
    1324A      1.753017  1325A      1.753871  1326A      1.755446  
    1327A      1.763509  1328A      1.763582  1329A      1.766035  
    1330A      1.770317  1331A      1.770427  1332A      1.770952  
    1333A      1.774121  1334A      1.776015  1335A      1.779281  
    1336A      1.779852  1337A      1.780708  1338A      1.780720  
    1339A      1.786739  1340A      1.792867  1341A      1.802584  
    1342A      1.803265  1343A      1.803974  1344A      1.804173  
    1345A      1.804869  1346A      1.819713  1347A      1.821381  
    1348A      1.822821  1349A      1.835520  1350A      1.837813  
    1351A      1.839769  1352A      1.840432  1353A      1.860739  
    1354A      1.860934  1355A      1.864988  1356A      1.871957  
    1357A      1.878235  1358A      1.880112  1359A      1.881345  
    1360A      1.881429  1361A      1.882003  1362A      1.883104  
    1363A      1.887566  1364A      1.887737  1365A      1.888343  
    1366A      1.893137  1367A      1.893406  1368A      1.893751  
    1369A      1.894840  1370A      1.902433  1371A      1.903684  
    1372A      1.909001  1373A      1.909225  1374A      1.915448  
    1375A      1.916023  1376A      1.919537  1377A      1.919585  
    1378A      1.921226  1379A      1.921581  1380A      1.924854  
    1381A      1.925953  1382A      1.926544  1383A      1.926762  
    1384A      1.928209  1385A      1.934444  1386A      1.934881  
    1387A      1.935731  1388A      1.937905  1389A      1.939113  
    1390A      1.939675  1391A      1.940167  1392A      1.941960  
    1393A      1.942792  1394A      1.945632  1395A      1.947599  
    1396A      1.957863  1397A      1.958101  1398A      1.959595  
    1399A      1.959939  1400A      1.965624  1401A      1.966280  
    1402A      1.972280  1403A      1.973095  1404A      1.977624  
    1405A      1.979050  1406A      1.979325  1407A      1.981621  
    1408A      1.982455  1409A      1.982727  1410A      1.984211  
    1411A      1.990154  1412A      1.990364  1413A      1.990665  
    1414A      1.993188  1415A      1.994492  1416A      1.995943  
    1417A      1.996878  1418A      1.998761  1419A      1.999498  
    1420A      2.000436  1421A      2.002486  1422A      2.006338  
    1423A      2.006610  1424A      2.010290  1425A      2.010901  
    1426A      2.014178  1427A      2.014458  1428A      2.015167  
    1429A      2.015760  1430A      2.016493  1431A      2.019913  
    1432A      2.021691  1433A      2.024598  1434A      2.025072  
    1435A      2.026112  1436A      2.027006  1437A      2.030205  
    1438A      2.030782  1439A      2.038626  1440A      2.039720  
    1441A      2.041405  1442A      2.041900  1443A      2.044063  
    1444A      2.044387  1445A      2.044774  1446A      2.046630  
    1447A      2.049924  1448A      2.052819  1449A      2.052957  
    1450A      2.054849  1451A      2.059242  1452A      2.063487  
    1453A      2.066733  1454A      2.068691  1455A      2.069233  
    1456A      2.071590  1457A      2.071677  1458A      2.073452  
    1459A      2.074531  1460A      2.076017  1461A      2.076893  
    1462A      2.078017  1463A      2.078423  1464A      2.079774  
    1465A      2.084652  1466A      2.086447  1467A      2.088567  
    1468A      2.089318  1469A      2.090834  1470A      2.092491  
    1471A      2.093845  1472A      2.095440  1473A      2.103662  
    1474A      2.105026  1475A      2.107881  1476A      2.110563  
    1477A      2.111809  1478A      2.112691  1479A      2.115356  
    1480A      2.116158  1481A      2.116166  1482A      2.117481  
    1483A      2.123085  1484A      2.123299  1485A      2.125387  
    1486A      2.126275  1487A      2.131472  1488A      2.132762  
    1489A      2.133807  1490A      2.134805  1491A      2.136135  
    1492A      2.137131  1493A      2.137304  1494A      2.137817  
    1495A      2.138974  1496A      2.139745  1497A      2.142388  
    1498A      2.143444  1499A      2.143688  1500A      2.144283  
    1501A      2.144324  1502A      2.144765  1503A      2.145547  
    1504A      2.147782  1505A      2.148734  1506A      2.149866  
    1507A      2.152012  1508A      2.153971  1509A      2.154713  
    1510A      2.155684  1511A      2.156984  1512A      2.157796  
    1513A      2.160160  1514A      2.162717  1515A      2.164280  
    1516A      2.167520  1517A      2.168328  1518A      2.168669  
    1519A      2.170288  1520A      2.170665  1521A      2.171647  
    1522A      2.173263  1523A      2.175738  1524A      2.178209  
    1525A      2.180817  1526A      2.181617  1527A      2.182470  
    1528A      2.183089  1529A      2.184170  1530A      2.185008  
    1531A      2.186708  1532A      2.188323  1533A      2.188870  
    1534A      2.193327  1535A      2.194045  1536A      2.196754  
    1537A      2.197704  1538A      2.198238  1539A      2.198553  
    1540A      2.199762  1541A      2.200696  1542A      2.204808  
    1543A      2.211031  1544A      2.211627  1545A      2.214117  
    1546A      2.214580  1547A      2.215151  1548A      2.215652  
    1549A      2.215819  1550A      2.216554  1551A      2.216681  
    1552A      2.217388  1553A      2.226684  1554A      2.227274  
    1555A      2.235359  1556A      2.235732  1557A      2.236649  
    1558A      2.237330  1559A      2.244138  1560A      2.246112  
    1561A      2.247423  1562A      2.249239  1563A      2.249950  
    1564A      2.252231  1565A      2.254348  1566A      2.254708  
    1567A      2.255721  1568A      2.256809  1569A      2.258431  
    1570A      2.259554  1571A      2.259745  1572A      2.260562  
    1573A      2.260790  1574A      2.265016  1575A      2.269224  
    1576A      2.269996  1577A      2.275812  1578A      2.276426  
    1579A      2.276853  1580A      2.278167  1581A      2.281459  
    1582A      2.281692  1583A      2.284053  1584A      2.284532  
    1585A      2.286417  1586A      2.287212  1587A      2.295069  
    1588A      2.296108  1589A      2.296745  1590A      2.298593  
    1591A      2.301157  1592A      2.301667  1593A      2.306798  
    1594A      2.306936  1595A      2.313331  1596A      2.314660  
    1597A      2.317779  1598A      2.318757  1599A      2.320818  
    1600A      2.322210  1601A      2.332050  1602A      2.337646  
    1603A      2.339358  1604A      2.344461  1605A      2.345036  
    1606A      2.350201  1607A      2.353365  1608A      2.358359  
    1609A      2.358699  1610A      2.364017  1611A      2.374053  
    1612A      2.379911  1613A      2.380316  1614A      2.381064  
    1615A      2.382598  1616A      2.384675  1617A      2.385147  
    1618A      2.387159  1619A      2.389475  1620A      2.390686  
    1621A      2.391346  1622A      2.395704  1623A      2.397341  
    1624A      2.397765  1625A      2.398236  1626A      2.400570  
    1627A      2.401023  1628A      2.401227  1629A      2.406972  
    1630A      2.407209  1631A      2.426607  1632A      2.430705  
    1633A      2.431262  1634A      2.438304  1635A      2.443255  
    1636A      2.447690  1637A      2.448186  1638A      2.449823  
    1639A      2.453918  1640A      2.473391  1641A      2.474849  
    1642A      2.479454  1643A      2.482566  1644A      2.488776  
    1645A      2.497268  1646A      2.498675  1647A      2.508306  
    1648A      2.509166  1649A      2.519247  1650A      2.519325  
    1651A      2.522729  1652A      2.522979  1653A      2.526578  
    1654A      2.526868  1655A      2.545024  1656A      2.545362  
    1657A      2.550984  1658A      2.556038  1659A      2.560239  
    1660A      2.561236  1661A      2.565088  1662A      2.570801  
    1663A      2.594684  1664A      2.594750  1665A      2.595057  
    1666A      2.596840  1667A      2.597594  1668A      2.601014  
    1669A      2.601223  1670A      2.602912  1671A      2.604806  
    1672A      2.606236  1673A      2.613577  1674A      2.613809  
    1675A      2.619687  1676A      2.624868  1677A      2.626029  
    1678A      2.633066  1679A      2.636423  1680A      2.636898  
    1681A      2.639839  1682A      2.640846  1683A      2.641323  
    1684A      2.641592  1685A      2.645862  1686A      2.648104  
    1687A      2.655870  1688A      2.656049  1689A      2.667516  
    1690A      2.667777  1691A      2.668014  1692A      2.668626  
    1693A      2.671529  1694A      2.672586  1695A      2.687995  
    1696A      2.695847  1697A      2.696537  1698A      2.698693  
    1699A      2.700907  1700A      2.701666  1701A      2.704316  
    1702A      2.705257  1703A      2.706423  1704A      2.709875  
    1705A      2.710278  1706A      2.721169  1707A      2.722100  
    1708A      2.723220  1709A      2.723950  1710A      2.724141  
    1711A      2.730431  1712A      2.730963  1713A      2.731152  
    1714A      2.739488  1715A      2.741354  1716A      2.742837  
    1717A      2.746302  1718A      2.746802  1719A      2.747180  
    1720A      2.747746  1721A      2.751544  1722A      2.752695  
    1723A      2.760226  1724A      2.774881  1725A      2.784534  
    1726A      2.784958  1727A      2.785593  1728A      2.786123  
    1729A      2.786228  1730A      2.807684  1731A      2.817902  
    1732A      2.818403  1733A      2.830860  1734A      2.833399  
    1735A      2.836295  1736A      2.836521  1737A      2.856090  
    1738A      2.856436  1739A      2.858634  1740A      2.858743  
    1741A      2.859475  1742A      2.867377  1743A      2.869780  
    1744A      2.871060  1745A      2.871533  1746A      2.872139  
    1747A      2.874524  1748A      2.885318  1749A      2.885653  
    1750A      2.896066  1751A      2.896553  1752A      2.897643  
    1753A      2.897807  1754A      2.901269  1755A      2.918233  
    1756A      2.921232  1757A      2.921809  1758A      2.924943  
    1759A      2.926285  1760A      2.929473  1761A      2.954163  
    1762A      2.955026  1763A      2.955187  1764A      2.970809  
    1765A      2.971259  1766A      2.977268  1767A      2.977856  
    1768A      2.978540  1769A      2.980876  1770A      2.983444  
    1771A      2.989391  1772A      2.989615  1773A      3.018325  
    1774A      3.019080  1775A      3.019486  1776A      3.030436  
    1777A      3.046434  1778A      3.047308  1779A      3.084654  
    1780A      3.085569  1781A      3.089343  1782A      3.092542  
    1783A      3.101613  1784A      3.102695  1785A      3.103342  
    1786A      3.113467  1787A      3.113549  1788A      3.115521  
    1789A      3.128202  1790A      3.161875  1791A      3.166614  
    1792A      3.166896  1793A      3.177376  1794A      3.182974  
    1795A      3.183125  1796A      3.187992  1797A      3.189505  
    1798A      3.196079  1799A      3.196871  1800A      3.203171  
    1801A      3.203719  1802A      3.204425  1803A      3.205079  
    1804A      3.207045  1805A      3.215340  1806A      3.224870  
    1807A      3.226680  1808A      3.228694  1809A      3.228977  
    1810A      3.246803  1811A      3.247458  1812A      3.273306  
    1813A      3.278146  1814A      3.307513  1815A      3.312715  
    1816A      3.316273  1817A      3.317280  1818A      3.317988  
    1819A      3.319760  1820A      3.323015  1821A      3.325891  
    1822A      3.329576  1823A      3.330102  1824A      3.348899  
    1825A      3.350409  1826A      3.352881  1827A      3.357946  
    1828A      3.417935  1829A      3.418870  1830A      3.427034  
    1831A      3.472734  1832A      3.486438  1833A      3.489900  
    1834A      3.497862  1835A      3.505241  1836A      3.507763  
    1837A      3.519404  1838A      3.521411  1839A      3.523351  
    1840A      3.528101  1841A      3.531004  1842A      3.538947  
    1843A      3.542844  1844A      3.551600  1845A      3.565988  
    1846A      3.597079  1847A      3.630886  1848A      3.632667  
    1849A      3.639911  1850A      3.645318  1851A      3.693231  
    1852A      3.697471  1853A      3.720938  1854A      3.722897  
    1855A      3.761662  1856A      3.804324  1857A      3.805040  
    1858A      3.806961  1859A      3.820909  1860A      3.833407  
    1861A      3.837983  1862A      3.896974  1863A      3.898934  
    1864A      3.926807  1865A      3.930008  1866A      3.960502  
    1867A      3.969019  1868A      3.995900  1869A      3.998532  
    1870A      4.003952  1871A      4.004858  1872A      4.015126  
    1873A      4.023407  1874A      4.028713  1875A      4.081949  
    1876A      4.084966  1877A      4.129848  1878A      4.173288  
    1879A      4.173393  1880A      4.173458  1881A      4.201141  
    1882A      4.201470  1883A      4.201514  1884A      4.201700  
    1885A      4.202489  1886A      4.234247  1887A      4.236771  
    1888A      4.239389  1889A      4.289443  1890A      4.362347  
    1891A      4.448090  1892A      4.448419  1893A      4.448952  
    1894A      4.454162  1895A      4.649722  1896A      4.650790  
    1897A      4.653291  1898A      4.750199  1899A      4.785295  
    1900A      4.787377  

    Final Occupation by Irrep:
              A 
    DOCC [   321 ]
    NA   [   321 ]
    NB   [   321 ]

  @DF-RHF Final Energy: -4073.10455157117303

   => Energetics <=

    Nuclear Repulsion Energy =          17302.0136095103880507
    One-Electron Energy =              -40086.7698358923007618
    Two-Electron Energy =               18711.6516748107387684
    Total Energy =                      -4073.1045515711739426

Computation Completed


Properties will be evaluated at   0.000000,   0.000000,   0.000000 [a0]

Properties computed using the SCF density matrix


 Multipole Moments:

 ------------------------------------------------------------------------------------
     Multipole            Electronic (a.u.)      Nuclear  (a.u.)        Total (a.u.)
 ------------------------------------------------------------------------------------

 L = 1.  Multiply by 2.5417464519 to convert [e a0] to [Debye]
 Dipole X            :         -0.0001195           -0.0001188           -0.0002383
 Dipole Y            :          0.0012143           -0.0002727            0.0009416
 Dipole Z            :         27.0601704          -36.8974658           -9.8372955
 Magnitude           :                                                    9.8372955

 ------------------------------------------------------------------------------------

*** tstop() called on n2cn0537 at Sat Jan 27 14:29:24 2024
Module time:
	user time   =   24814.50 seconds =     413.57 minutes
	system time =    1439.33 seconds =      23.99 minutes
	total time  =      11029 seconds =     183.82 minutes
Total time:
	user time   =   24814.50 seconds =     413.57 minutes
	system time =    1439.33 seconds =      23.99 minutes
	total time  =      11029 seconds =     183.82 minutes

  //>>>>>>>>>>>>>>>>>>>>>>>>>>>>>>>>>>>//
  //            Monomer A HF           //
  //<<<<<<<<<<<<<<<<<<<<<<<<<<<<<<<<<<<//

   => Libint2 <=

    Primary   basis highest AM E, G, H:  5, 4, 3
    Auxiliary basis highest AM E, G, H:  6, 5, 4
    Onebody   basis highest AM E, G, H:  6, 5, 4
    Solid Harmonics ordering:            gaussian

*** tstart() called on n2cn0537
*** at Sat Jan 27 14:29:24 2024

   => Loading Basis Set <=

    Name: JUN-CC-PVDZ
    Role: ORBITAL
    Keyword: BASIS
    atoms 1                                                   entry B          line   130 file /opt/software/pc2/EB-SW/software/PSI4/1.9-foss-2022a/share/psi4/basis/jun-cc-pvdz.gbs 
    atoms 2-5                                                 entry F          line   266 file /opt/software/pc2/EB-SW/software/PSI4/1.9-foss-2022a/share/psi4/basis/jun-cc-pvdz.gbs 
    atoms 6-23, 30-42, 45-59, 62-78, 81-93, 98-108, 111-119   entry C          line   164 file /opt/software/pc2/EB-SW/software/PSI4/1.9-foss-2022a/share/psi4/basis/jun-cc-pvdz.gbs 
    atoms 24-29, 43-44, 60-61, 79-80, 94-97, 109-110, 120-125 entry H          line    36 file /opt/software/pc2/EB-SW/software/PSI4/1.9-foss-2022a/share/psi4/basis/jun-cc-pvdz.gbs 


         ---------------------------------------------------------
                                   SCF
               by Justin Turney, Rob Parrish, Andy Simmonett
                          and Daniel G. A. Smith
                              RHF Reference
                       16 Threads,  61035 MiB Core
         ---------------------------------------------------------

  ==> Geometry <==

    Molecular point group: c1
    Full point group: C1

    Geometry (in Angstrom), charge = -1, multiplicity = 1:

       Center              X                  Y                   Z               Mass       
    ------------   -----------------  -----------------  -----------------  -----------------
         B           -0.000050191042     0.000351518223     5.772962672425    11.009305360000
         F           -1.153601191042     0.000062518223     6.588609672425    18.998403162730
         F            1.153656808958    -0.000566481777     6.588609672425    18.998403162730
         F           -0.000023191042    -1.153622481777     4.957328672425    18.998403162730
         F           -0.000023191042     1.153992518223     4.957328672425    18.998403162730
      Gh(C)          -3.668445455062     7.803766688305    -0.425131286239    12.000000000000
      Gh(C)          -4.847602910388     7.131256349563    -0.427497861172    12.000000000000
      Gh(C)          -4.894963490217     5.696344921754    -0.428070772270    12.000000000000
      Gh(C)          -3.653744869815     4.980744859182    -0.420410330540    12.000000000000
      Gh(C)          -2.409429312536     7.113995554897    -0.424936943979    12.000000000000
      Gh(C)          -2.425481535146     5.681136469126    -0.431941832849    12.000000000000
      Gh(C)          -1.194748207477     7.786158712532    -0.423464763437    12.000000000000
      Gh(C)           0.037954837895     7.099436163980    -0.425635467742    12.000000000000
      Gh(C)           0.030328396378     5.669504077927    -0.431118852658    12.000000000000
      Gh(C)          -1.200988698947     4.969284866138    -0.422149118724    12.000000000000
      Gh(C)           1.277953634773     7.772873961417    -0.424259619181    12.000000000000
      Gh(C)           2.485353893683     7.087711403460    -0.426534107086    12.000000000000
      Gh(C)           2.486124493876     5.654785328463    -0.433471856074    12.000000000000
      Gh(C)           1.254078728602     4.956092631887    -0.421843914486    12.000000000000
      Gh(C)           3.751710400364     7.763926669203    -0.426407255706    12.000000000000
      Gh(C)           4.923561865144     7.078795295213    -0.428463736414    12.000000000000
      Gh(C)           4.955603080284     5.643461981592    -0.428624149221    12.000000000000
      Gh(C)           3.706797343163     4.941224726556    -0.423532589051    12.000000000000
      Gh(H)          -3.658525328800     8.890841937358    -0.423446297989     1.007825032230
      Gh(H)          -1.189217520798     8.874135605583    -0.419492886996     1.007825032230
      Gh(H)           1.284290047845     8.860847953711    -0.420100795040     1.007825032230
      Gh(H)           3.753537895758     8.851049797195    -0.424884731390     1.007825032230
      Gh(H)           5.869954512165     7.613809352878    -0.429389103456     1.007825032230
      Gh(H)          -5.788235898544     7.676316731157    -0.429057708528     1.007825032230
      Gh(C)          -6.091978149738     4.993274531866    -0.429943012761    12.000000000000
[...]
    1498A      2.112019  1499A      2.112741  1500A      2.113031  
    1501A      2.113637  1502A      2.115161  1503A      2.117024  
    1504A      2.118151  1505A      2.119831  1506A      2.126592  
    1507A      2.126841  1508A      2.127038  1509A      2.127564  
    1510A      2.127830  1511A      2.128397  1512A      2.129862  
    1513A      2.131167  1514A      2.135916  1515A      2.136271  
    1516A      2.137844  1517A      2.138942  1518A      2.142967  
    1519A      2.143262  1520A      2.143603  1521A      2.144097  
    1522A      2.144449  1523A      2.154532  1524A      2.155145  
    1525A      2.157580  1526A      2.158049  1527A      2.159048  
    1528A      2.159527  1529A      2.159835  1530A      2.160157  
    1531A      2.162561  1532A      2.162847  1533A      2.171394  
    1534A      2.171671  1535A      2.179964  1536A      2.180861  
    1537A      2.181255  1538A      2.182296  1539A      2.188378  
    1540A      2.189532  1541A      2.190975  1542A      2.191637  
    1543A      2.192814  1544A      2.195099  1545A      2.197267  
    1546A      2.198205  1547A      2.200366  1548A      2.200655  
    1549A      2.201338  1550A      2.201516  1551A      2.203986  
    1552A      2.204670  1553A      2.205569  1554A      2.209455  
    1555A      2.213734  1556A      2.214097  1557A      2.220148  
    1558A      2.222168  1559A      2.222723  1560A      2.224462  
    1561A      2.224803  1562A      2.224817  1563A      2.228804  
    1564A      2.232003  1565A      2.232321  1566A      2.233140  
    1567A      2.238702  1568A      2.238950  1569A      2.239494  
    1570A      2.241416  1571A      2.247598  1572A      2.248049  
    1573A      2.248950  1574A      2.249248  1575A      2.260570  
    1576A      2.261680  1577A      2.263706  1578A      2.264967  
    1579A      2.266604  1580A      2.269544  1581A      2.275521  
    1582A      2.282816  1583A      2.284264  1584A      2.290377  
    1585A      2.291082  1586A      2.296320  1587A      2.296776  
    1588A      2.303805  1589A      2.304155  1590A      2.309066  
    1591A      2.315551  1592A      2.324544  1593A      2.324899  
    1594A      2.325199  1595A      2.327111  1596A      2.329453  
    1597A      2.330551  1598A      2.331155  1599A      2.332979  
    1600A      2.334435  1601A      2.335075  1602A      2.339775  
    1603A      2.341437  1604A      2.342180  1605A      2.342321  
    1606A      2.344849  1607A      2.345795  1608A      2.346294  
    1609A      2.349064  1610A      2.349413  1611A      2.368202  
    1612A      2.372407  1613A      2.372901  1614A      2.383692  
    1615A      2.387956  1616A      2.390796  1617A      2.391676  
    1618A      2.392996  1619A      2.397064  1620A      2.418320  
    1621A      2.419541  1622A      2.423562  1623A      2.427557  
    1624A      2.431943  1625A      2.441964  1626A      2.443339  
    1627A      2.452024  1628A      2.453070  1629A      2.464324  
    1630A      2.464392  1631A      2.467808  1632A      2.468008  
    1633A      2.471903  1634A      2.472165  1635A      2.491044  
    1636A      2.491360  1637A      2.494721  1638A      2.501778  
    1639A      2.506221  1640A      2.507405  1641A      2.511457  
    1642A      2.516190  1643A      2.539164  1644A      2.539212  
    1645A      2.540044  1646A      2.541950  1647A      2.542748  
    1648A      2.544844  1649A      2.547526  1650A      2.548615  
    1651A      2.549245  1652A      2.551285  1653A      2.556524  
    1654A      2.556684  1655A      2.564198  1656A      2.571133  
    1657A      2.571516  1658A      2.579970  1659A      2.583692  
    1660A      2.584195  1661A      2.585111  1662A      2.586244  
    1663A      2.588540  1664A      2.588764  1665A      2.593196  
    1666A      2.593498  1667A      2.601337  1668A      2.601477  
    1669A      2.612870  1670A      2.613014  1671A      2.613430  
    1672A      2.613794  1673A      2.616650  1674A      2.617693  
    1675A      2.632546  1676A      2.640595  1677A      2.641511  
    1678A      2.643621  1679A      2.645420  1680A      2.647384  
    1681A      2.648689  1682A      2.649255  1683A      2.652885  
    1684A      2.655779  1685A      2.656108  1686A      2.665993  
    1687A      2.666086  1688A      2.667578  1689A      2.670378  
    1690A      2.670531  1691A      2.673589  1692A      2.677170  
    1693A      2.677604  1694A      2.684279  1695A      2.685572  
    1696A      2.687185  1697A      2.691173  1698A      2.691268  
    1699A      2.691580  1700A      2.692464  1701A      2.696033  
    1702A      2.697300  1703A      2.703982  1704A      2.720667  
    1705A      2.730717  1706A      2.730864  1707A      2.730981  
    1708A      2.731291  1709A      2.731969  1710A      2.752699  
    1711A      2.760282  1712A      2.760731  1713A      2.772920  
    1714A      2.775928  1715A      2.780076  1716A      2.780255  
    1717A      2.799194  1718A      2.799872  1719A      2.801762  
    1720A      2.802194  1721A      2.802219  1722A      2.809162  
    1723A      2.811682  1724A      2.814206  1725A      2.815140  
    1726A      2.815427  1727A      2.815969  1728A      2.819561  
    1729A      2.822298  1730A      2.824123  1731A      2.828056  
    1732A      2.828368  1733A      2.840122  1734A      2.841118  
    1735A      2.841760  1736A      2.842030  1737A      2.845784  
    1738A      2.861284  1739A      2.864950  1740A      2.865475  
    1741A      2.870131  1742A      2.871080  1743A      2.874520  
    1744A      2.895905  1745A      2.896791  1746A      2.913940  
    1747A      2.917670  1748A      2.917839  1749A      2.927413  
    1750A      2.929648  1751A      2.935100  1752A      2.935177  
    1753A      2.963230  1754A      2.964880  1755A      2.965435  
    1756A      2.976119  1757A      2.991741  1758A      2.992627  
    1759A      3.029420  1760A      3.030171  1761A      3.035387  
    1762A      3.038527  1763A      3.046874  1764A      3.047597  
    1765A      3.047981  1766A      3.057534  1767A      3.057564  
    1768A      3.063445  1769A      3.072853  1770A      3.108393  
    1771A      3.112858  1772A      3.113103  1773A      3.122387  
    1774A      3.127399  1775A      3.127597  1776A      3.132637  
    1777A      3.134196  1778A      3.142092  1779A      3.142963  
    1780A      3.148259  1781A      3.148911  1782A      3.149441  
    1783A      3.150148  1784A      3.153539  1785A      3.162082  
    1786A      3.167774  1787A      3.173145  1788A      3.175001  
    1789A      3.175304  1790A      3.193041  1791A      3.193755  
    1792A      3.220052  1793A      3.252876  1794A      3.259451  
    1795A      3.261194  1796A      3.261481  1797A      3.262348  
    1798A      3.264477  1799A      3.268281  1800A      3.271157  
    1801A      3.274767  1802A      3.275389  1803A      3.293399  
    1804A      3.294747  1805A      3.296909  1806A      3.302735  
    1807A      3.361264  1808A      3.362233  1809A      3.370043  
    1810A      3.415800  1811A      3.429822  1812A      3.432191  
    1813A      3.436918  1814A      3.446682  1815A      3.449258  
    1816A      3.461278  1817A      3.464637  1818A      3.465496  
    1819A      3.471090  1820A      3.473923  1821A      3.481694  
    1822A      3.484727  1823A      3.493821  1824A      3.509095  
    1825A      3.539233  1826A      3.574272  1827A      3.575946  
    1828A      3.583140  1829A      3.590010  1830A      3.636178  
    1831A      3.640172  1832A      3.664818  1833A      3.666881  
    1834A      3.705055  1835A      3.747811  1836A      3.749307  
    1837A      3.750442  1838A      3.763040  1839A      3.778574  
    1840A      3.779588  1841A      3.841940  1842A      3.843325  
    1843A      3.871438  1844A      3.874589  1845A      3.904710  
    1846A      3.912940  1847A      3.937818  1848A      3.939937  
    1849A      3.948339  1850A      3.949201  1851A      3.958423  
    1852A      3.964804  1853A      3.970836  1854A      4.024627  
    1855A      4.027428  1856A      4.071113  1857A      4.194931  
    1858A      4.210286  1859A      4.211858  1860A      4.231530  
    1861A      4.301893  1862A      4.336435  1863A      4.393586  
    1864A      5.749199  1865A      5.749244  1866A      5.750993  
    1867A      5.754138  1868A      5.754549  1869A      5.759487  
    1870A      5.760437  1871A      5.761948  1872A      5.780568  
    1873A      5.782773  1874A      5.784147  1875A      6.020448  
    1876A      6.020866  1877A      6.021606  1878A      6.194096  
    1879A      6.327318  1880A      6.327603  1881A      6.375123  
    1882A      6.376623  1883A      6.377622  1884A      7.151168  
    1885A      7.205651  1886A      7.226851  1887A      7.239527  
    1888A      7.242441  1889A      7.257362  1890A      7.262461  
    1891A      7.273034  1892A      7.462364  1893A      7.475735  
    1894A      7.477682  1895A      7.615611  1896A     12.602279  
    1897A     42.910030  1898A     42.913985  1899A     42.916066  
    1900A     42.940334  

    Final Occupation by Irrep:
              A 
    DOCC [   300 ]
    NA   [   300 ]
    NB   [   300 ]

  @DF-RHF Final Energy: -3650.33778017657914

   => Energetics <=

    Nuclear Repulsion Energy =          15611.4211649754324753
    One-Electron Energy =              -36072.0824848551055766
    Two-Electron Energy =               16810.3235397030948661
    Total Energy =                      -3650.3377801765782351

Computation Completed


Properties will be evaluated at   0.000000,   0.000000,   0.000000 [a0]

Properties computed using the SCF density matrix


 Multipole Moments:

 ------------------------------------------------------------------------------------
     Multipole            Electronic (a.u.)      Nuclear  (a.u.)        Total (a.u.)
 ------------------------------------------------------------------------------------

 L = 1.  Multiply by 2.5417464519 to convert [e a0] to [Debye]
 Dipole X            :         -0.0008661            0.0001983           -0.0006678
 Dipole Y            :          0.0011077           -0.0013163           -0.0002086
 Dipole Z            :        484.1757321         -484.1799618           -0.0042297
 Magnitude           :                                                    0.0042871

 ------------------------------------------------------------------------------------

*** tstop() called on n2cn0537 at Sat Jan 27 17:04:23 2024
Module time:
	user time   =   17134.03 seconds =     285.57 minutes
	system time =    1119.02 seconds =      18.65 minutes
	total time  =       6154 seconds =     102.57 minutes
Total time:
	user time   =   45911.27 seconds =     765.19 minutes
	system time =    2839.92 seconds =      47.33 minutes
	total time  =      20328 seconds =     338.80 minutes
  Constructing Basis Sets for SAPT...

   => Loading Basis Set <=

    Name: (JUN-CC-PVDZ AUX)
    Role: RIFIT
    Keyword: DF_BASIS_SAPT
    atoms 1                                                   entry B          line    56 file /opt/software/pc2/EB-SW/software/PSI4/1.9-foss-2022a/share/psi4/basis/jun-cc-pvdz-ri.gbs 
    atoms 2-5                                                 entry F          line   232 file /opt/software/pc2/EB-SW/software/PSI4/1.9-foss-2022a/share/psi4/basis/jun-cc-pvdz-ri.gbs 
    atoms 6-23, 30-42, 45-59, 62-78, 81-93, 98-108, 111-119   entry C          line   100 file /opt/software/pc2/EB-SW/software/PSI4/1.9-foss-2022a/share/psi4/basis/jun-cc-pvdz-ri.gbs 
    atoms 24-29, 43-44, 60-61, 79-80, 94-97, 109-110, 120-125 entry H          line    30 file /opt/software/pc2/EB-SW/software/PSI4/1.9-foss-2022a/share/psi4/basis/jun-cc-pvdz-ri.gbs 

   => Loading Basis Set <=

    Name: (JUN-CC-PVDZ AUX)
    Role: JKFIT
    Keyword: DF_BASIS_ELST
    atoms 1                                                   entry B          line    90 file /opt/software/pc2/EB-SW/software/PSI4/1.9-foss-2022a/share/psi4/basis/jun-cc-pvdz-jkfit.gbs 
    atoms 2-5                                                 entry F          line   314 file /opt/software/pc2/EB-SW/software/PSI4/1.9-foss-2022a/share/psi4/basis/jun-cc-pvdz-jkfit.gbs 
    atoms 6-23, 30-42, 45-59, 62-78, 81-93, 98-108, 111-119   entry C          line   146 file /opt/software/pc2/EB-SW/software/PSI4/1.9-foss-2022a/share/psi4/basis/jun-cc-pvdz-jkfit.gbs 
    atoms 24-29, 43-44, 60-61, 79-80, 94-97, 109-110, 120-125 entry H          line    70 file /opt/software/pc2/EB-SW/software/PSI4/1.9-foss-2022a/share/psi4/basis/jun-cc-pvdz-jkfit.gbs 


  //>>>>>>>>>>>>>>>>>>>>>>>>>>>>>>>>>>>//
  //               SSAPT0              //
  //<<<<<<<<<<<<<<<<<<<<<<<<<<<<<<<<<<<//


*** tstart() called on n2cn0537
*** at Sat Jan 27 17:04:25 2024

        SAPT0  
    Ed Hohenstein
     6 June 2009

      Orbital Information
  --------------------------
    NSO        =      1938
    NMO        =      1900
    NRI        =      6901
    NRI (Elst) =      8531
    NOCC A     =        21
    NOCC B     =       300
    FOCC A     =         5
    FOCC B     =        96
    NVIR A     =      1879
    NVIR B     =      1600

    Elst10,r            =     0.009448954614 [Eh]
    Exch10              =     0.000000553846 [Eh]
    Exch10 (S^2)        =     0.000000553853 [Eh]

    Iter     Energy [mEh]          dE [mEh]         Residual      Time [s]
       1      -0.00440463       0.004404626       0.462775249           578
       2      -0.00512746       0.000722833       0.239539743          1227
       3      -0.00541807       0.000290609       0.045298544          1922
       4      -0.00541984       0.000001774       0.009551466          2506
       5      -0.00541165      -0.000008196       0.001310729          3102
       6      -0.00541277       0.000001120       0.000243811          3707
       7      -0.00541271      -0.000000056       0.000055538          4439
       8      -0.00541270      -0.000000014       0.000006854          5137
       9      -0.00541270       0.000000002       0.000002389          5759
      10      -0.00541270       0.000000000       0.000000429          6390

    CHF Iterations converged


    Iter     Energy [mEh]          dE [mEh]         Residual      Time [s]
       1      -7.17504207       7.175042072      46.544872542           646
       2      -4.59152956      -2.583512513       5.515262958          1409
       3      -4.56634128      -0.025188278       1.827897504          2088
       4      -4.64732382       0.080982534       0.583901673          2750
       5      -4.65864573       0.011321916       0.201665538          3359
       6      -4.65759727      -0.001048461       0.133684216          4053
       7      -4.65520635      -0.002390916       0.055906552          4856
       8      -4.65536073       0.000154376       0.028418850          5542
       9      -4.65587462       0.000513891       0.016944798          6214
      10      -4.65577376      -0.000100864       0.015194392          6835
      11      -4.65566358      -0.000110181       0.006456347          7409
      12      -4.65566891       0.000005332       0.002929166          8078
      13      -4.65568892       0.000020012       0.001121616          8746
      14      -4.65569439       0.000005465       0.000445710          9325
      15      -4.65569246      -0.000001927       0.000282162          9854
      16      -4.65568933      -0.000003124       0.000163244         10357
      17      -4.65569078       0.000001445       0.000075731         10953
      18      -4.65569123       0.000000451       0.000024584         11503
      19      -4.65569109      -0.000000138       0.000013129         12086
      20      -4.65569100      -0.000000094       0.000005353         12765
      21      -4.65569102       0.000000018       0.000002456         13415
      22      -4.65569103       0.000000015       0.000001203         14014
      23      -4.65569103      -0.000000002       0.000000509         14657

    CHF Iterations converged

    Ind20,r (A<-B)      =    -0.000005412699 [Eh]
    Ind20,r (B<-A)      =    -0.004655691030 [Eh]
    Ind20,r             =    -0.004661103729 [Eh]
    Exch-Ind20,r (A<-B) =     0.000000332582 [Eh]
    Exch-Ind20,r (B<-A) =     0.000000679581 [Eh]
    Exch-Ind20,r        =     0.000001012162 [Eh]
    Disp20              =    -0.000848649655 [Eh]
    Disp20 (SS)         =    -0.000424324827 [Eh]
    Disp20 (OS)         =    -0.000424324827 [Eh]
    Exch-Disp20         =     0.000001053310 [Eh]
    Exch-Disp20 (SS)    =     0.000000805305 [Eh]
    Exch-Disp20 (OS)    =     0.000000248004 [Eh]

    SAPT Results 
  --------------------------------------------------------------------------------------------------------
    Electrostatics                  9.44895461 [mEh]       5.92930854 [kcal/mol]      24.80822692 [kJ/mol]
      Elst10,r                      9.44895461 [mEh]       5.92930854 [kcal/mol]      24.80822692 [kJ/mol]

    Exchange                        0.00055385 [mEh]       0.00034754 [kcal/mol]       0.00145412 [kJ/mol]
      Exch10                        0.00055385 [mEh]       0.00034754 [kcal/mol]       0.00145412 [kJ/mol]
      Exch10(S^2)                   0.00055385 [mEh]       0.00034755 [kcal/mol]       0.00145414 [kJ/mol]

    Induction                      -4.63139487 [mEh]      -2.90624416 [kcal/mol]     -12.15972555 [kJ/mol]
      Ind20,r                      -4.66110373 [mEh]      -2.92488675 [kcal/mol]     -12.23772616 [kJ/mol]
      Exch-Ind20,r                  0.00101216 [mEh]       0.00063514 [kcal/mol]       0.00265743 [kJ/mol]
      delta HF,r (2)                0.02869670 [mEh]       0.01800745 [kcal/mol]       0.07534317 [kJ/mol]

    Dispersion                     -0.84759634 [mEh]      -0.53187474 [kcal/mol]      -2.22536390 [kJ/mol]
      Disp20                       -0.84864965 [mEh]      -0.53253570 [kcal/mol]      -2.22812936 [kJ/mol]
      Exch-Disp20                   0.00105331 [mEh]       0.00066096 [kcal/mol]       0.00276546 [kJ/mol]
      Disp20 (SS)                  -0.42432483 [mEh]      -0.26626785 [kcal/mol]      -1.11406468 [kJ/mol]
      Disp20 (OS)                  -0.42432483 [mEh]      -0.26626785 [kcal/mol]      -1.11406468 [kJ/mol]
      Exch-Disp20 (SS)              0.00080531 [mEh]       0.00050534 [kcal/mol]       0.00211433 [kJ/mol]
      Exch-Disp20 (OS)              0.00024800 [mEh]       0.00015563 [kcal/mol]       0.00065114 [kJ/mol]

  Total HF                          4.81811359 [mEh]       3.02341192 [kcal/mol]      12.64995549 [kJ/mol]
  Total SAPT0                       3.97051725 [mEh]       2.49153719 [kcal/mol]      10.42459159 [kJ/mol]

  Special recipe for scaled SAPT0 (see Manual):
    Electrostatics sSAPT0           9.44895461 [mEh]       5.92930854 [kcal/mol]      24.80822692 [kJ/mol]
    Exchange sSAPT0                 0.00055385 [mEh]       0.00034754 [kcal/mol]       0.00145412 [kJ/mol]
    Induction sSAPT0               -4.63139487 [mEh]      -2.90624416 [kcal/mol]     -12.15972555 [kJ/mol]
    Dispersion sSAPT0              -0.84759634 [mEh]      -0.53187474 [kcal/mol]      -2.22536390 [kJ/mol]
  Total sSAPT0                      3.97051725 [mEh]       2.49153719 [kcal/mol]      10.42459159 [kJ/mol]
  --------------------------------------------------------------------------------------------------------

*** tstop() called on n2cn0537 at Mon Jan 29 03:38:28 2024
Module time:
	user time   =   68756.67 seconds =    1145.94 minutes
	system time =    2735.10 seconds =      45.58 minutes
	total time  =     124443 seconds =    2074.05 minutes
Total time:
	user time   =  114669.43 seconds =    1911.16 minutes
	system time =    5575.03 seconds =      92.92 minutes
	total time  =     144773 seconds =    2412.88 minutes

    Psi4 stopped on: Monday, 29 January 2024 03:38AM
    Psi4 wall time for execution: 1 day, 16:12:54.35

*** Psi4 exiting successfully. Buy a developer a beer!
