
    -----------------------------------------------------------------------
          Psi4: An Open-Source Ab Initio Electronic Structure Package
                               Psi4 1.9 release

                         Git: Rev {} zzzzzzz 


    D. G. A. Smith, L. A. Burns, A. C. Simmonett, R. M. Parrish,
    M. C. Schieber, R. Galvelis, P. Kraus, H. Kruse, R. Di Remigio,
    A. Alenaizan, A. M. James, S. Lehtola, J. P. Misiewicz, M. Scheurer,
    R. A. Shaw, J. B. Schriber, Y. Xie, Z. L. Glick, D. A. Sirianni,
    J. S. O'Brien, J. M. Waldrop, A. Kumar, E. G. Hohenstein,
    B. P. Pritchard, B. R. Brooks, H. F. Schaefer III, A. Yu. Sokolov,
    K. Patkowski, A. E. DePrince III, U. Bozkaya, R. A. King,
    F. A. Evangelista, J. M. Turney, T. D. Crawford, C. D. Sherrill,
    J. Chem. Phys. 152(18) 184108 (2020). https://doi.org/10.1063/5.0006002

                            Additional Code Authors
    E. T. Seidl, C. L. Janssen, E. F. Valeev, M. L. Leininger,
    J. F. Gonthier, R. M. Richard, H. R. McAlexander, M. Saitow, X. Wang,
    P. Verma, M. H. Lechner, A. Jiang, S. Behnle, A. G. Heide,
    M. F. Herbst, and D. L. Poole

             Previous Authors, Complete List of Code Contributors,
                       and Citations for Specific Modules
    https://github.com/psi4/psi4/blob/master/codemeta.json
    https://github.com/psi4/psi4/graphs/contributors
    http://psicode.org/psi4manual/master/introduction.html#citing-psifour

    -----------------------------------------------------------------------


    Psi4 started on: Saturday, 27 January 2024 10:41AM

    Process ID: 3900473
    Host:       n2cn0241
    PSIDATADIR: /opt/software/pc2/EB-SW/software/PSI4/1.9-foss-2022a/share/psi4
    Memory:     500.0 MiB
    Threads:    16
    
  ==> Input File <==

--------------------------------------------------------------------------
memory 64 GB # how much memory is available ! Depends on the nodes/cores !

molecule dimer {
# monomer A
-1 1    # Charge and multiplicity
B -1.977592e-04  2.742729e-04 -4.599966
F  1.123153e-16  1.430594e-17 -3.187181
F  1.147860e+00  6.757812e-01 -5.071107
F  1.191806e-02 -1.332011e+00 -5.070905
F -1.159666e+00  6.560735e-01 -5.070826
--
# monomer B
0 1     # Charge and multiplicity
C   -3.66844126402057      7.80375217008252      0.00190004133558
C   -4.84759871934653      7.13124183134024     -0.00046653359696
C   -4.89495929917518      5.69633040353158     -0.00103944469517
C   -3.65374067877320      4.98073034095895      0.00662099703436
C   -2.40942512149445      7.11398103667468      0.00209438359570
C   -2.42547734410473      5.68112195090346     -0.00491050527438
C   -1.19474401643570      7.78614419430947      0.00356656413763
C   0.03795902893699      7.09942164575698      0.00139585983271
C   0.03033258741920      5.66948955970466     -0.00408752508301
C   -1.20098450790502      4.96927034791531      0.00488220885047
C   1.27795782581485      7.77285944319479      0.00277170839332
C   2.48535808472416      7.08769688523756      0.00049722048857
C   2.48612868491717      5.65477081024076     -0.00644052849921
C   1.25408291964399      4.95607811366431      0.00518741308898
C   3.75171459140595      7.76391215098033      0.00062407186893
C   4.92356605618520      7.07878077698995     -0.00143240883900
C   4.95560727132542      5.64344746336949     -0.00159282164606
C   3.70680153420475      4.94121020833308      0.00349873852374
H   -3.65852113775815      8.89082741913536      0.00358502958574
H   -1.18921332975660      8.87412108735996      0.00753844057883
H   1.28429423888630      8.86083343548850      0.00693053253426
H   3.75354208679975      8.85103527897216      0.00214659618464
H   5.86995870320703      7.61379483465560     -0.00235777588134
H   -5.78823170750226      7.67630221293400     -0.00202638095293
C   -6.09197395869619      4.99326001364347     -0.00291168518608
C   -6.12866148031747      3.58258016879823     -0.00171050815740
C   -3.66457974004527      3.56418217974434     -0.00463560277484
C   -4.89429820469869      2.86108077590057      0.00453338221034
C   -2.43733499489796      2.84761165708481      0.00719617576166
C   -1.20922785759670      3.54788693497833     -0.00648285103018
C   1.24714157216223      3.53468075142962     -0.00729145743546
C   0.01517603956900      2.83311183930540      0.00439272578912
C   2.46764517244071      2.82128997725533      0.00449278391269
C   3.70254947457969      3.52466015442405     -0.00899517692985
C   6.14498038638375      4.92757236613191     -0.00282626685777
C   6.16658835886151      3.51658447594213     -0.00065971342101
C   4.92460995845939      2.80840792535402      0.00587903281610
H   7.08990550964105      5.46688776622306     -0.00658814770723
H   -7.03104175110130      5.54268795285765     -0.00714490013730
C   -7.33969804112295      2.85841153457957     -0.00333767559888
C   -7.36488195805880      1.47032337158330     -0.00157213747140
C   -4.90350460894690      1.44442681216000     -0.00628840166334
C   -6.13225715261081      0.73993935705394      0.00600164231964
C   -3.67687480051673      0.72669714267312      0.00433931473643
C   -2.44565658606518      1.42964113326212     -0.00597039546461
C   -1.22360068130162      0.71532450163492      0.00545886906656
C   0.00763786931376      1.41738314923765      0.00392452278437
C   1.23121980774686      0.70211669058719     -0.01490206287210
C   2.46082110053113      1.40329203612573      0.00460244601878
C   3.68443025419614      0.68719842821222      0.00377365974158
C   4.91870890153864      1.39173456118907     -0.00862816189375
C   7.36980207796101      2.77948220318441     -0.00242013321349
C   7.38016266612146      1.39121750785509     -0.00087345036788
C   6.13979953912259      0.67411862320065      0.00545489144369
H   -8.27919079934664      3.40711804112415     -0.00763522772059
H   8.31511347147953      3.31811809662368     -0.00663070901292
C   -8.59175593758115      0.72483255304480     -0.00123170985383
C   -8.59902460370342     -0.63263980622873      0.00089141472904
C   -6.13981313911873     -0.67413663715361     -0.00609792660607
C   -7.38018411213749     -1.39126618958160      0.00131813493501
C   -4.91868448025621     -1.39175501803000      0.00624257154343
C   -3.68443829568458     -0.68723731573599     -0.00478966852105
C   -2.46081704024768     -1.40334517882457      0.00575341766833
C   -1.23116201232071     -0.70217386488055     -0.00636696112346
C   -0.00756962538737     -1.41741884941102      0.00108956317991
C   1.22364771588843     -0.71527537726392      0.01109518512883
C   2.44567064933149     -1.42964328900682     -0.00065482763106
C   3.67686670284649     -0.72670743155550     -0.00479541202602
C   6.13224884641929     -0.73997883984993     -0.00632338623858
C   4.90351914550401     -1.44445752054090      0.00751768830159
C   8.59901484869081      0.63260386666793     -0.00101133422380
C   8.59174548810050     -0.72485086719319      0.00072504603735
C   7.36486276438985     -1.47033266560598      0.00049486934466
H   -9.52830597181814      1.27684744919284     -0.00270163681798
H   9.54141097460619      1.17457248844457     -0.00206336648518
C   -7.36983790976868     -2.77954514593389      0.00312634335708
C   -4.92459910905015     -2.80843725734101     -0.00460528907921
C   -6.16662249566744     -3.51665219282533      0.00169655107992
C   -3.70251035970491     -3.52468154912026      0.00571878010666
C   -2.46764698511392     -2.82132596280400     -0.00632585824990
C   -0.01513347410770     -2.83314164539971     -0.00604426974092
C   -1.24712184122656     -3.53473217556300      0.00551968366725
C   1.20924506964357     -3.54791467864352      0.00805871345849
C   2.43733602215464     -2.84764173817541     -0.00608104485234
C   4.89430234377080     -2.86112296828604     -0.00526030478103
C   3.66461525504104     -3.56421984553201      0.00761911515957
C   6.12863901474565     -3.58258405771778      0.00096495711699
C   7.33967266469532     -2.85841330737039      0.00248018319869
H   -9.54144911125902     -1.17456346666430      0.00226083090216
H   9.52826186807155     -1.27691907390448      0.00197485379837
H   -8.31516504384864     -3.31814985321231      0.00729857188773
H   8.27915514249207     -3.40714078989363      0.00681973918158
C   -6.14499418870218     -4.92764727278338      0.00302254913999
C   -3.70678334799751     -4.94126171411716     -0.00679841894792
C   -4.95559005800169     -5.64349397349412      0.00116871569699
C   -2.48612132622665     -5.65478557440947      0.00614125209662
C   -1.25405833548005     -4.95612205000132     -0.00503435388927
C   1.20101257386816     -4.96928038819302     -0.00385322963129
C   -0.03033667441341     -5.66952030313900      0.00398997003238
C   3.65375010132847     -4.98074377541453     -0.00309522988330
C   2.42549269587528     -5.68117463552727      0.00628170066869
C   6.09196561781097     -4.99325796338655      0.00325918379042
C   4.89497644461045     -5.69634842095790      0.00202298796027
H   -7.08989238804069     -5.46699984223871      0.00742531082125
H   7.03105520920009     -5.54265853633254      0.00683896355417
C   -4.92354532219813     -7.07882109967734      0.00061394679214
C   -2.48534208823777     -7.08772807792913     -0.00189594564379
C   -3.75168589177895     -7.76394715763627     -0.00170126671874
C   -0.03794895698805     -7.09946487446944     -0.00168022049625
C   -1.27795610040136     -7.77290438466689     -0.00366491325785
C   2.40944432072629     -7.11402201200282     -0.00081701968533
C   1.19474993715296     -7.78618536556242     -0.00296931056689
C   4.84762105249800     -7.13126211057943      0.00168979497423
C   3.66847160587561     -7.80378799294376     -0.00065863938960
H   -5.86994035041618     -7.61383059804164      0.00215798365757
H   5.78824962538815     -7.67633218931421      0.00281691445618
H   -3.75352693944918     -8.85107156923607     -0.00353718114765
H   -1.28430440589466     -8.86087539249706     -0.00809229711623
H   1.18922157469537     -8.87416062058945     -0.00706194725726
H   3.65854661482387     -8.89086063405326     -0.00231318081200

    units angstrom      # Angstroms are the default
    no_reorient         # Geometry fixed, default
    symmetry c1         # C1 symmetry, default
}

set {
    scf_type DF         # Density fitting, faster than exact integrals
    freeze_core True    # Freeze core electrons
    basis jun-cc-pVDZ   # Jun-cc-pVDZ basis set, recommended for sSAPT0 in https://doi.org/10.1063/1.4867135
}

energy('ssapt0')        # Compute sSAPT0 energy, includes also SAPT0
--------------------------------------------------------------------------

  Memory set to  59.605 GiB by Python driver.

Scratch directory: /tmp/
   => Loading Basis Set <=

    Name: JUN-CC-PVDZ
    Role: ORBITAL
    Keyword: BASIS
    atoms 1                                                   entry B          line   130 file /opt/software/pc2/EB-SW/software/PSI4/1.9-foss-2022a/share/psi4/basis/jun-cc-pvdz.gbs 
    atoms 2-5                                                 entry F          line   266 file /opt/software/pc2/EB-SW/software/PSI4/1.9-foss-2022a/share/psi4/basis/jun-cc-pvdz.gbs 
    atoms 6-23, 30-42, 45-59, 62-78, 81-93, 98-108, 111-119   entry C          line   164 file /opt/software/pc2/EB-SW/software/PSI4/1.9-foss-2022a/share/psi4/basis/jun-cc-pvdz.gbs 
    atoms 24-29, 43-44, 60-61, 79-80, 94-97, 109-110, 120-125 entry H          line    36 file /opt/software/pc2/EB-SW/software/PSI4/1.9-foss-2022a/share/psi4/basis/jun-cc-pvdz.gbs 

   => Loading Basis Set <=

    Name: JUN-CC-PVDZ
    Role: ORBITAL
    Keyword: BASIS
    atoms 1                                                   entry B          line   130 file /opt/software/pc2/EB-SW/software/PSI4/1.9-foss-2022a/share/psi4/basis/jun-cc-pvdz.gbs 
    atoms 2-5                                                 entry F          line   266 file /opt/software/pc2/EB-SW/software/PSI4/1.9-foss-2022a/share/psi4/basis/jun-cc-pvdz.gbs 
    atoms 6-23, 30-42, 45-59, 62-78, 81-93, 98-108, 111-119   entry C          line   164 file /opt/software/pc2/EB-SW/software/PSI4/1.9-foss-2022a/share/psi4/basis/jun-cc-pvdz.gbs 
    atoms 24-29, 43-44, 60-61, 79-80, 94-97, 109-110, 120-125 entry H          line    36 file /opt/software/pc2/EB-SW/software/PSI4/1.9-foss-2022a/share/psi4/basis/jun-cc-pvdz.gbs 


  //>>>>>>>>>>>>>>>>>>>>>>>>>>>>>>>>>>>//
  //              Dimer HF             //
  //<<<<<<<<<<<<<<<<<<<<<<<<<<<<<<<<<<<//

   => Libint2 <=

    Primary   basis highest AM E, G, H:  5, 4, 3
    Auxiliary basis highest AM E, G, H:  6, 5, 4
    Onebody   basis highest AM E, G, H:  6, 5, 4
    Solid Harmonics ordering:            gaussian

*** tstart() called on n2cn0241
*** at Sat Jan 27 10:41:56 2024

   => Loading Basis Set <=

    Name: JUN-CC-PVDZ
    Role: ORBITAL
    Keyword: BASIS
    atoms 1                                                   entry B          line   130 file /opt/software/pc2/EB-SW/software/PSI4/1.9-foss-2022a/share/psi4/basis/jun-cc-pvdz.gbs 
    atoms 2-5                                                 entry F          line   266 file /opt/software/pc2/EB-SW/software/PSI4/1.9-foss-2022a/share/psi4/basis/jun-cc-pvdz.gbs 
    atoms 6-23, 30-42, 45-59, 62-78, 81-93, 98-108, 111-119   entry C          line   164 file /opt/software/pc2/EB-SW/software/PSI4/1.9-foss-2022a/share/psi4/basis/jun-cc-pvdz.gbs 
    atoms 24-29, 43-44, 60-61, 79-80, 94-97, 109-110, 120-125 entry H          line    36 file /opt/software/pc2/EB-SW/software/PSI4/1.9-foss-2022a/share/psi4/basis/jun-cc-pvdz.gbs 


         ---------------------------------------------------------
                                   SCF
               by Justin Turney, Rob Parrish, Andy Simmonett
                          and Daniel G. A. Smith
                              RHF Reference
                       16 Threads,  61035 MiB Core
         ---------------------------------------------------------

  ==> Geometry <==

    Molecular point group: c1
    Full point group: C1

    Geometry (in Angstrom), charge = -1, multiplicity = 1:

       Center              X                  Y                   Z               Mass       
    ------------   -----------------  -----------------  -----------------  -----------------
         B           -0.000201921932     0.000288800891    -4.283141740972    11.009305360000
         F           -0.000004162732     0.000014527991    -2.870356740972    18.998403162730
         F            1.147855837268     0.675795727991    -4.754282740972    18.998403162730
         F            0.011913897268    -1.331996472009    -4.754080740972    18.998403162730
         F           -1.159670162732     0.656088027991    -4.754001740972    18.998403162730
         C           -3.668445426752     7.803766698073     0.318724300363    12.000000000000
         C           -4.847602882078     7.131256359331     0.316357725431    12.000000000000
         C           -4.894963461907     5.696344931522     0.315784814333    12.000000000000
         C           -3.653744841505     4.980744868950     0.323445256062    12.000000000000
         C           -2.409429284226     7.113995564665     0.318918642623    12.000000000000
         C           -2.425481506836     5.681136478894     0.311913753753    12.000000000000
         C           -1.194748179167     7.786158722300     0.320390823165    12.000000000000
         C            0.037954866205     7.099436173748     0.318220118860    12.000000000000
         C            0.030328424687     5.669504087695     0.312736733945    12.000000000000
         C           -1.200988670637     4.969284875906     0.321706467878    12.000000000000
         C            1.277953663083     7.772873971185     0.319595967421    12.000000000000
         C            2.485353921992     7.087711413228     0.317321479516    12.000000000000
         C            2.486124522185     5.654785338231     0.310383730529    12.000000000000
         C            1.254078756912     4.956092641655     0.322011672117    12.000000000000
         C            3.751710428674     7.763926678971     0.317448330897    12.000000000000
         C            4.923561893453     7.078795304981     0.315391850189    12.000000000000
         C            4.955603108594     5.643461991360     0.315231437382    12.000000000000
         C            3.706797371473     4.941224736324     0.320322997551    12.000000000000
         H           -3.658525300490     8.890841947126     0.320409288613     1.007825032230
         H           -1.189217492488     8.874135615351     0.324362699607     1.007825032230
         H            1.284290076155     8.860847963479     0.323754791562     1.007825032230
         H            3.753537924068     8.851049806963     0.318970855212     1.007825032230
         H            5.869954540475     7.613809362646     0.314466483146     1.007825032230
         H           -5.788235870234     7.676316740925     0.314797878075     1.007825032230
         C           -6.091978121428     4.993274541634     0.313912573842    12.000000000000
         C           -6.128665643049     3.582594696789     0.315113750870    12.000000000000
         C           -3.664583902777     3.564196707735     0.312188656253    12.000000000000
         C           -4.894302367430     2.861095303891     0.321357641238    12.000000000000
         C           -2.437339157630     2.847626185075     0.324020434789    12.000000000000
         C           -1.209232020328     3.547901462969     0.310341407998    12.000000000000
         C            1.247137409430     3.534695279420     0.309532801592    12.000000000000
         C            0.015171876837     2.833126367296     0.321216984817    12.000000000000
         C            2.467641009709     2.821304505246     0.321317042940    12.000000000000
         C            3.702545311848     3.524674682415     0.307829082098    12.000000000000
         C            6.144976223652     4.927586894122     0.313997992170    12.000000000000
         C            6.166584196130     3.516599003933     0.316164545607    12.000000000000
         C            4.924605795728     2.808422453345     0.322703291844    12.000000000000
         H            7.089901346909     5.466902294214     0.310236111321     1.007825032230
         H           -7.031045913833     5.542702480848     0.309679358890     1.007825032230
         C           -7.339702203855     2.858426062570     0.313486583429    12.000000000000
         C           -7.364886120791     1.470337899574     0.315252121556    12.000000000000
         C           -4.903508771679     1.444441340151     0.310535857364    12.000000000000
         C           -6.132261315343     0.739953885044     0.322825901347    12.000000000000
         C           -3.676878963248     0.726711670664     0.321163573764    12.000000000000
         C           -2.445660748797     1.429655661253     0.310853863563    12.000000000000
         C           -1.223604844033     0.715339029625     0.322283128094    12.000000000000
         C            0.007633706582     1.417397677228     0.320748781812    12.000000000000
         C            1.231215645015     0.702131218578     0.301922196156    12.000000000000
         C            2.460816937799     1.403306564116     0.321426705047    12.000000000000
         C            3.684426091464     0.687212956203     0.320597918769    12.000000000000
         C            4.918704738807     1.391749089180     0.308196097134    12.000000000000
         C            7.369797915229     2.779496731175     0.314404125814    12.000000000000
         C            7.380158503390     1.391232035846     0.315950808660    12.000000000000
         C            6.139795376391     0.674133151191     0.322279150471    12.000000000000
         H           -8.279194962078     3.407132569115     0.309189031307     1.007825032230
         H            8.315109308748     3.318132624614     0.310193550015     1.007825032230
         C           -8.591760100313     0.724847081035     0.315592549174    12.000000000000
         C           -8.599028766435    -0.632625278238     0.317715673757    12.000000000000
         C           -6.139817301850    -0.674122109163     0.310726332422    12.000000000000
         C           -7.380188274869    -1.391251661591     0.318142393963    12.000000000000
         C           -4.918688642988    -1.391740490039     0.323066830571    12.000000000000
         C           -3.684442458416    -0.687222787745     0.312034590507    12.000000000000
         C           -2.460821202979    -1.403330650834     0.322577676696    12.000000000000
         C           -1.231166175052    -0.702159336890     0.310457297904    12.000000000000
         C           -0.007573788119    -1.417404321420     0.317913822208    12.000000000000
         C            1.223643553157    -0.715260849273     0.327919444157    12.000000000000
         C            2.445666486600    -1.429628761016     0.316169431397    12.000000000000
         C            3.676862540115    -0.726692903565     0.312028847002    12.000000000000
         C            6.132244683688    -0.739964311859     0.310500872789    12.000000000000
         C            4.903514982772    -1.444442992550     0.324341947329    12.000000000000
         C            8.599010685959     0.632618394658     0.315812924804    12.000000000000
         C            8.591741325369    -0.724836339203     0.317549305065    12.000000000000
         C            7.364858601658    -1.470318137615     0.317319128372    12.000000000000
         H           -9.528310134550     1.276861977183     0.314122622210     1.007825032230
         H            9.541406811874     1.174587016435     0.314760892543     1.007825032230
         C           -7.369842072500    -2.779530617943     0.319950602385    12.000000000000
         C           -4.924603271782    -2.808422729350     0.312218969949    12.000000000000
         C           -6.166626658399    -3.516637664835     0.318520810108    12.000000000000
         C           -3.702514522437    -3.524667021130     0.322543039134    12.000000000000
         C           -2.467651147846    -2.821311434813     0.310498400778    12.000000000000
         C           -0.015137636839    -2.833127117409     0.310779989287    12.000000000000
         C           -1.247126003958    -3.534717647572     0.322343942695    12.000000000000
         C            1.209240906912    -3.547900150653     0.324882972486    12.000000000000
         C            2.437331859423    -2.847627210185     0.310743214175    12.000000000000
         C            4.894298181039    -2.861108440295     0.311563954247    12.000000000000
         C            3.664611092309    -3.564205317541     0.324443374187    12.000000000000
         C            6.128634852014    -3.582569529727     0.317789216145    12.000000000000
         C            7.339668501964    -2.858398779380     0.319304442226    12.000000000000
         H           -9.541453273991    -1.174548938674     0.319085089930     1.007825032230
         H            9.528257705340    -1.276904545914     0.318799112826     1.007825032230
         H           -8.315169206580    -3.318135325222     0.324122830915     1.007825032230
         H            8.279150979760    -3.407126261903     0.323643998209     1.007825032230
         C           -6.144998351434    -4.927632744793     0.319846808168    12.000000000000
         C           -3.706787510729    -4.941247186127     0.310025840080    12.000000000000
         C           -4.955594220733    -5.643479445504     0.317992974725    12.000000000000
         C           -2.486125488958    -5.654771046419     0.322965511124    12.000000000000
         C           -1.254062498212    -4.956107522011     0.311789905138    12.000000000000
         C            1.201008411136    -4.969265860202     0.312971029396    12.000000000000
         C           -0.030340837145    -5.669505775148     0.320814229060    12.000000000000
         C            3.653745938597    -4.980729247424     0.313729029144    12.000000000000
         C            2.425488533144    -5.681160107537     0.323105959696    12.000000000000
         C            6.091961455079    -4.993243435396     0.320083442818    12.000000000000
         C            4.894972281879    -5.696333892967     0.318847246988    12.000000000000
         H           -7.089896550772    -5.466985314248     0.324249569849     1.007825032230
         H            7.031051046468    -5.542644008342     0.323663222582     1.007825032230
         C           -4.923549484930    -7.078806571687     0.317438205820    12.000000000000
         C           -2.485346250970    -7.087713549939     0.314928313384    12.000000000000
         C           -3.751690054511    -7.763932629646     0.315122992309    12.000000000000
         C           -0.037953119720    -7.099450346479     0.315144038531    12.000000000000
         C           -1.277960263133    -7.772889856676     0.313159345770    12.000000000000
         C            2.409440157995    -7.114007484012     0.316007239342    12.000000000000
         C            1.194745774421    -7.786170837572     0.313854948461    12.000000000000
         C            4.847616889766    -7.131247582589     0.318514054002    12.000000000000
         C            3.668467443144    -7.803773464953     0.316165619638    12.000000000000
         H           -5.869944513148    -7.613816070051     0.318982242685     1.007825032230
         H            5.788245462656    -7.676317661324     0.319641173484     1.007825032230
         H           -3.753531102181    -8.851057041246     0.313287077880     1.007825032230
         H           -1.284308568626    -8.860860864507     0.308731961912     1.007825032230
         H            1.189217411964    -8.874146092599     0.309762311770     1.007825032230
         H            3.658542452092    -8.890846106063     0.314511078216     1.007825032230

  Running in c1 symmetry.

  Rotational constants: A =      0.00066  B =      0.00066  C =      0.00035 [cm^-1]
  Rotational constants: A =     19.65569  B =     19.65242  C =     10.55117 [MHz]
  Nuclear repulsion = 17549.208417182449921

  Charge       = -1
  Multiplicity = 1
  Electrons    = 642
  Nalpha       = 321
  Nbeta        = 321

  ==> Algorithm <==

  SCF Algorithm Type is DF.
  DIIS enabled.
  MOM disabled.
  Fractional occupation disabled.
  Guess Type is SAD.
  Energy threshold   = 1.00e-08
  Density threshold  = 1.00e-08
  Integral threshold = 1.00e-12

  ==> Primary Basis <==

  Basis Set: JUN-CC-PVDZ
    Blend: JUN-CC-PVDZ
    Number of shells: 880
    Number of basis functions: 1938
    Number of Cartesian functions: 2039
    Spherical Harmonics?: true
    Max angular momentum: 2

   => Loading Basis Set <=

    Name: (JUN-CC-PVDZ AUX)
    Role: JKFIT
    Keyword: DF_BASIS_SCF
    atoms 1                                                   entry B          line    90 file /opt/software/pc2/EB-SW/software/PSI4/1.9-foss-2022a/share/psi4/basis/jun-cc-pvdz-jkfit.gbs 
    atoms 2-5                                                 entry F          line   314 file /opt/software/pc2/EB-SW/software/PSI4/1.9-foss-2022a/share/psi4/basis/jun-cc-pvdz-jkfit.gbs 
    atoms 6-23, 30-42, 45-59, 62-78, 81-93, 98-108, 111-119   entry C          line   146 file /opt/software/pc2/EB-SW/software/PSI4/1.9-foss-2022a/share/psi4/basis/jun-cc-pvdz-jkfit.gbs 
    atoms 24-29, 43-44, 60-61, 79-80, 94-97, 109-110, 120-125 entry H          line    70 file /opt/software/pc2/EB-SW/software/PSI4/1.9-foss-2022a/share/psi4/basis/jun-cc-pvdz-jkfit.gbs 

  ==> Integral Setup <==

  ==> DiskDFJK: Density-Fitted J/K Matrices <==

    J tasked:                  Yes
    K tasked:                  Yes
    wK tasked:                  No
    OpenMP threads:             16
    Integrals threads:          16
    Memory [MiB]:            45776
    Algorithm:                Disk
    Integral Cache:           SAVE
    Schwarz Cutoff:          1E-12
    Fitting Condition:       1E-10

   => Auxiliary Basis Set <=

  Basis Set: (JUN-CC-PVDZ AUX)
    Blend: JUN-CC-PVDZ-JKFIT
    Number of shells: 2943
    Number of basis functions: 8531
    Number of Cartesian functions: 9791
    Spherical Harmonics?: true
    Max angular momentum: 3

  Minimum eigenvalue in the overlap matrix is 8.9266965451E-11.
  Reciprocal condition number of the overlap matrix is 3.8321100987E-12.
    Using canonical orthogonalization.
  Overall, 38 of 1938 possible MOs eliminated.


  ==> Pre-Iterations <==

  SCF Guess: Superposition of Atomic Densities via on-the-fly atomic UHF (no occupation information).

   -------------------------
    Irrep   Nso     Nmo    
   -------------------------
     A       1938    1900 
   -------------------------
    Total    1938    1900
   -------------------------

  ==> Iterations <==

                           Total Energy        Delta E     RMS |[F,P]|

   @DF-RHF iter SAD: -4085.03827091000130   -4.08504e+03   0.00000e+00 
   @DF-RHF iter   1: -4071.51217846058216    1.35261e+01   7.91143e-04 DIIS/ADIIS
   @DF-RHF iter   2: -4072.91589420167656   -1.40372e+00   3.10664e-04 DIIS/ADIIS
   @DF-RHF iter   3: -4073.08324328527488   -1.67349e-01   1.03291e-04 DIIS/ADIIS
   @DF-RHF iter   4: -4073.10564881398113   -2.24055e-02   3.86220e-05 DIIS
   @DF-RHF iter   5: -4073.10924202288788   -3.59321e-03   1.11718e-05 DIIS
   @DF-RHF iter   6: -4073.10970840539085   -4.66383e-04   4.47633e-06 DIIS
   @DF-RHF iter   7: -4073.10988964894204   -1.81244e-04   2.38509e-06 DIIS
   @DF-RHF iter   8: -4073.10994645867959   -5.68097e-05   1.25524e-06 DIIS
   @DF-RHF iter   9: -4073.10996602120122   -1.95625e-05   4.17437e-07 DIIS
   @DF-RHF iter  10: -4073.10996726064423   -1.23944e-06   1.80193e-07 DIIS
   @DF-RHF iter  11: -4073.10996746795263   -2.07308e-07   6.26724e-08 DIIS
   @DF-RHF iter  12: -4073.10996750275808   -3.48055e-08   3.29357e-08 DIIS
   @DF-RHF iter  13: -4073.10996751076982   -8.01174e-09   1.06914e-08 DIIS
   @DF-RHF iter  14: -4073.10996751164976   -8.79936e-10   4.26781e-09 DIIS
  Energy and wave function converged.


  ==> Post-Iterations <==

    Orbital Energies [Eh]
    ---------------------

    Doubly Occupied:                                                      

       1A    -26.083599     2A    -26.075223     3A    -26.075136  
       4A    -26.075044     5A    -11.201289     6A    -11.201278  
       7A    -11.201274     8A    -11.201274     9A    -11.201271  
      10A    -11.201263    11A    -11.201261    12A    -11.201250  
      13A    -11.201250    14A    -11.201249    15A    -11.201246  
      16A    -11.201235    17A    -11.200658    18A    -11.200637  
      19A    -11.200637    20A    -11.200620    21A    -11.200603  
      22A    -11.200598    23A    -11.198084    24A    -11.198069  
      25A    -11.198061    26A    -11.198010    27A    -11.198007  
      28A    -11.197948    29A    -11.197889    30A    -11.197810  
      31A    -11.197808    32A    -11.197713    33A    -11.197709  
      34A    -11.197666    35A    -11.197541    36A    -11.197540  
      37A    -11.197530    38A    -11.197529    39A    -11.197528  
      40A    -11.197526    41A    -11.196995    42A    -11.196955  
      43A    -11.196948    44A    -11.196869    45A    -11.196858  
      46A    -11.196818    47A    -11.196225    48A    -11.196183  
      49A    -11.196178    50A    -11.196107    51A    -11.196100  
      52A    -11.196089    53A    -11.196070    54A    -11.196070  
      55A    -11.196064    56A    -11.196041    57A    -11.196035  
      58A    -11.195954    59A    -11.195937    60A    -11.195857  
      61A    -11.195853    62A    -11.195774    63A    -11.195772  
      64A    -11.195752    65A    -11.194925    66A    -11.194899  
      67A    -11.194880    68A    -11.194814    69A    -11.194797  
      70A    -11.194751    71A    -11.194012    72A    -11.193938  
      73A    -11.193914    74A    -11.193772    75A    -11.193768  
      76A    -11.193696    77A    -11.193372    78A    -11.193370  
      79A    -11.193360    80A    -11.193296    81A    -11.193294  
      82A    -11.193284    83A    -11.193278    84A    -11.193275  
      85A    -11.193266    86A    -11.193202    87A    -11.193199  
      88A    -11.193190    89A    -11.192323    90A    -11.192231  
      91A    -11.192201    92A    -11.192109    93A    -11.192065  
      94A    -11.192041    95A    -11.191074    96A    -11.190690  
      97A    -11.190618    98A    -11.189701    99A    -11.189620  
     100A    -11.189150   101A     -7.549402   102A     -1.421365  
     103A     -1.365567   104A     -1.359288   105A     -1.359125  
     106A     -1.186101   107A     -1.174064   108A     -1.174060  
     109A     -1.157110   110A     -1.157101   111A     -1.148727  
     112A     -1.138996   113A     -1.132848   114A     -1.122600  
     115A     -1.122595   116A     -1.112035   117A     -1.112032  
     118A     -1.091003   119A     -1.091001   120A     -1.087216  
     121A     -1.083341   122A     -1.083338   123A     -1.065346  
     124A     -1.051700   125A     -1.050651   126A     -1.050391  
     127A     -1.047579   128A     -1.047564   129A     -1.025403  
     130A     -1.025390   131A     -1.015749   132A     -1.015748  
     133A     -1.003796   134A     -1.003766   135A     -1.000134  
     136A     -0.984347   137A     -0.984338   138A     -0.977848  
     139A     -0.977522   140A     -0.977521   141A     -0.960934  
     142A     -0.954980   143A     -0.954930   144A     -0.945278  
     145A     -0.943499   146A     -0.940945   147A     -0.936731  
     148A     -0.936685   149A     -0.930395   150A     -0.907518  
     151A     -0.907473   152A     -0.894016   153A     -0.893962  
     154A     -0.845204   155A     -0.845163   156A     -0.840634  
     157A     -0.840591   158A     -0.838232   159A     -0.827043  
     160A     -0.826983   161A     -0.825846   162A     -0.825537  
     163A     -0.825478   164A     -0.810958   165A     -0.809734  
     166A     -0.790294   167A     -0.783969   168A     -0.783950  
     169A     -0.781021   170A     -0.779687   171A     -0.772351  
     172A     -0.772339   173A     -0.767493   174A     -0.767490  
     175A     -0.724188   176A     -0.724171   177A     -0.719496  
     178A     -0.719476   179A     -0.718873   180A     -0.718854  
     181A     -0.717991   182A     -0.704694   183A     -0.696270  
     184A     -0.686757   185A     -0.672939   186A     -0.664730  
     187A     -0.664714   188A     -0.662373   189A     -0.662207  
     190A     -0.662186   191A     -0.653821   192A     -0.650028  
     193A     -0.650026   194A     -0.638030   195A     -0.638017  
     196A     -0.624713   197A     -0.624709   198A     -0.621963  
     199A     -0.620303   200A     -0.620293   201A     -0.616395  
     202A     -0.613009   203A     -0.592170   204A     -0.589106  
     205A     -0.589076   206A     -0.588394   207A     -0.586068  
     208A     -0.586054   209A     -0.578537   210A     -0.577928  
     211A     -0.577549   212A     -0.577520   213A     -0.573134  
     214A     -0.573105   215A     -0.566867   216A     -0.554376  
     217A     -0.554351   218A     -0.549331   219A     -0.547432  
     220A     -0.547426   221A     -0.540385   222A     -0.537911  
     223A     -0.537831   224A     -0.536355   225A     -0.535441  
     226A     -0.535430   227A     -0.535368   228A     -0.534025  
     229A     -0.534019   230A     -0.533823   231A     -0.533819  
     232A     -0.533120   233A     -0.528830   234A     -0.528826  
     235A     -0.528270   236A     -0.522753   237A     -0.518147  
     238A     -0.518137   239A     -0.512378   240A     -0.512376  
     241A     -0.511965   242A     -0.505928   243A     -0.505917  
     244A     -0.503158   245A     -0.503129   246A     -0.501190  
     247A     -0.501159   248A     -0.498214   249A     -0.495693  
     250A     -0.495672   251A     -0.491634   252A     -0.488823  
     253A     -0.488365   254A     -0.481733   255A     -0.472110  
     256A     -0.472106   257A     -0.468857   258A     -0.468823  
     259A     -0.466569   260A     -0.466548   261A     -0.463477  
     262A     -0.457608   263A     -0.457570   264A     -0.454335  
     265A     -0.454310   266A     -0.454038   267A     -0.454029  
     268A     -0.448731   269A     -0.448714   270A     -0.435835  
     271A     -0.433723   272A     -0.433694   273A     -0.428899  
     274A     -0.428889   275A     -0.424899   276A     -0.420523  
     277A     -0.418481   278A     -0.418404   279A     -0.417173  
     280A     -0.416524   281A     -0.416522   282A     -0.412271  
     283A     -0.405666   284A     -0.403684   285A     -0.403676  
     286A     -0.396067   287A     -0.395996   288A     -0.395654  
     289A     -0.392834   290A     -0.381143   291A     -0.381080  
     292A     -0.376564   293A     -0.374860   294A     -0.374838  
     295A     -0.374395   296A     -0.372932   297A     -0.344269  
     298A     -0.344244   299A     -0.325283   300A     -0.325278  
     301A     -0.322006   302A     -0.321959   303A     -0.317900  
     304A     -0.291738   305A     -0.291724   306A     -0.287832  
     307A     -0.272386   308A     -0.272382   309A     -0.270816  
     310A     -0.266571   311A     -0.266448   312A     -0.242643  
     313A     -0.238683   314A     -0.236885   315A     -0.236818  
     316A     -0.224058   317A     -0.197275   318A     -0.188364  
     319A     -0.188279   320A     -0.141730   321A     -0.141640  

    Virtual:                                                              

     322A      0.050698   323A      0.050778   324A      0.092191  
     325A      0.092325   326A      0.092339   327A      0.094731  
     328A      0.094741   329A      0.098188   330A      0.099469  
     331A      0.099533   332A      0.100169   333A      0.102631  
     334A      0.108114   335A      0.108122   336A      0.119432  
     337A      0.119438   338A      0.126299   339A      0.128447  
     340A      0.129053   341A      0.133571   342A      0.133903  
     343A      0.134474   344A      0.134616   345A      0.135120  
     346A      0.135953   347A      0.136772   348A      0.136849  
     349A      0.136936   350A      0.140193   351A      0.140200  
     352A      0.144526   353A      0.146209   354A      0.146428  
     355A      0.146446   356A      0.147105   357A      0.147180  
     358A      0.154389   359A      0.158577   360A      0.158605  
     361A      0.158840   362A      0.161288   363A      0.161329  
     364A      0.161754   365A      0.165061   366A      0.166413  
     367A      0.166676   368A      0.167719   369A      0.168382  
     370A      0.169681   371A      0.169831   372A      0.170852  
     373A      0.171008   374A      0.174346   375A      0.176372  
     376A      0.176917   377A      0.176934   378A      0.178130  
     379A      0.178162   380A      0.184004   381A      0.184010  
     382A      0.187443   383A      0.187844   384A      0.192091  
     385A      0.192277   386A      0.195786   387A      0.195808  
     388A      0.197846   389A      0.198924   390A      0.199042  
     391A      0.200991   392A      0.201066   393A      0.208255  
     394A      0.211665   395A      0.212126   396A      0.212307  
     397A      0.213276   398A      0.214391   399A      0.215629  
     400A      0.216395   401A      0.216650   402A      0.216751  
     403A      0.220258   404A      0.220409   405A      0.221349  
     406A      0.221446   407A      0.221597   408A      0.222495  
     409A      0.222569   410A      0.225580   411A      0.225857  
     412A      0.230784   413A      0.232172   414A      0.234940  
     415A      0.234947   416A      0.236035   417A      0.239715  
     418A      0.239771   419A      0.240142   420A      0.240536  
     421A      0.240634   422A      0.244794   423A      0.247975  
     424A      0.248418   425A      0.249961   426A      0.250053  
     427A      0.253743   428A      0.254024   429A      0.254881  
     430A      0.256065   431A      0.256590   432A      0.256708  
     433A      0.256979   434A      0.257231   435A      0.260299  
     436A      0.261631   437A      0.261853   438A      0.266941  
     439A      0.266960   440A      0.268905   441A      0.269176  
     442A      0.269245   443A      0.269473   444A      0.269536  
     445A      0.270037   446A      0.271146   447A      0.271232  
     448A      0.272139   449A      0.272232   450A      0.273159  
     451A      0.273364   452A      0.275152   453A      0.275196  
     454A      0.281254   455A      0.282006   456A      0.283562  
     457A      0.283749   458A      0.283781   459A      0.287444  
     460A      0.288781   461A      0.288830   462A      0.289183  
     463A      0.289982   464A      0.291389   465A      0.291420  
     466A      0.291618   467A      0.293065   468A      0.294324  
     469A      0.294384   470A      0.301771   471A      0.302279  
     472A      0.302674   473A      0.305554   474A      0.307893  
     475A      0.311009   476A      0.311767   477A      0.312798  
     478A      0.312830   479A      0.314088   480A      0.314433  
     481A      0.315796   482A      0.316810   483A      0.317357  
     484A      0.317368   485A      0.317533   486A      0.321458  
     487A      0.321500   488A      0.322516   489A      0.322713  
     490A      0.324319   491A      0.326348   492A      0.326722  
     493A      0.326874   494A      0.328956   495A      0.329000  
     496A      0.334522   497A      0.334568   498A      0.336206  
     499A      0.336252   500A      0.336404   501A      0.339201  
     502A      0.340398   503A      0.340579   504A      0.343307  
     505A      0.343378   506A      0.343421   507A      0.343895  
     508A      0.345773   509A      0.347916   510A      0.349980  
     511A      0.354635   512A      0.355340   513A      0.355412  
     514A      0.355459   515A      0.357224   516A      0.357759  
     517A      0.361822   518A      0.361958   519A      0.362565  
     520A      0.362595   521A      0.364444   522A      0.364759  
     523A      0.364813   524A      0.365391   525A      0.365956  
     526A      0.367911   527A      0.367962   528A      0.369262  
     529A      0.371323   530A      0.371523   531A      0.371619  
     532A      0.372085   533A      0.372254   534A      0.375851  
     535A      0.376051   536A      0.376487   537A      0.379240  
     538A      0.379330   539A      0.381713   540A      0.381840  
     541A      0.383329   542A      0.383384   543A      0.385636  
     544A      0.385721   545A      0.386326   546A      0.387444  
     547A      0.388437   548A      0.389883   549A      0.390865  
     550A      0.391035   551A      0.392860   552A      0.394668  
     553A      0.394750   554A      0.397479   555A      0.398412  
     556A      0.398481   557A      0.400122   558A      0.401605  
     559A      0.401703   560A      0.403010   561A      0.405380  
     562A      0.405940   563A      0.411279   564A      0.412190  
     565A      0.413286   566A      0.413327   567A      0.416518  
     568A      0.416861   569A      0.417423   570A      0.418926  
     571A      0.419125   572A      0.420192   573A      0.420261  
     574A      0.421194   575A      0.422631   576A      0.425461  
     577A      0.425497   578A      0.425593   579A      0.425845  
     580A      0.429018   581A      0.431660   582A      0.431716  
     583A      0.434676   584A      0.434781   585A      0.437095  
     586A      0.437381   587A      0.437722   588A      0.440632  
     589A      0.440741   590A      0.441090   591A      0.441218  
     592A      0.446809   593A      0.446869   594A      0.447600  
     595A      0.448581   596A      0.448632   597A      0.450451  
     598A      0.451852   599A      0.452018   600A      0.452883  
     601A      0.455443   602A      0.455498   603A      0.456488  
     604A      0.457040   605A      0.457218   606A      0.459022  
     607A      0.459149   608A      0.459625   609A      0.460638  
     610A      0.460877   611A      0.460914   612A      0.461118  
     613A      0.464126   614A      0.464540   615A      0.466778  
     616A      0.467623   617A      0.467684   618A      0.468134  
     619A      0.468457   620A      0.469222   621A      0.469340  
     622A      0.471492   623A      0.471698   624A      0.472447  
     625A      0.472712   626A      0.472964   627A      0.473220  
     628A      0.474546   629A      0.476734   630A      0.476833  
     631A      0.477899   632A      0.479117   633A      0.480798  
     634A      0.482317   635A      0.482522   636A      0.483948  
     637A      0.484063   638A      0.485164   639A      0.486093  
     640A      0.486411   641A      0.487652   642A      0.489185  
     643A      0.489937   644A      0.491456   645A      0.492535  
     646A      0.493645   647A      0.493793   648A      0.495188  
     649A      0.495257   650A      0.495516   651A      0.495667  
     652A      0.495993   653A      0.497372   654A      0.499936  
     655A      0.500849   656A      0.500960   657A      0.503887  
     658A      0.504089   659A      0.504806   660A      0.506606  
     661A      0.507626   662A      0.507804   663A      0.511682  
     664A      0.511947   665A      0.512911   666A      0.513010  
     667A      0.513621   668A      0.513851   669A      0.513884  
     670A      0.514931   671A      0.515891   672A      0.516418  
     673A      0.516918   674A      0.518711   675A      0.520751  
     676A      0.522520   677A      0.523627   678A      0.524647  
     679A      0.526295   680A      0.526824   681A      0.529279  
     682A      0.529474   683A      0.531974   684A      0.533308  
     685A      0.534127   686A      0.534635   687A      0.536904  
     688A      0.536987   689A      0.537961   690A      0.538306  
     691A      0.539148   692A      0.539270   693A      0.541917  
     694A      0.543108   695A      0.543772   696A      0.544976  
     697A      0.545164   698A      0.545840   699A      0.546647  
     700A      0.548115   701A      0.548747   702A      0.552489  
     703A      0.553080   704A      0.553431   705A      0.553832  
     706A      0.554473   707A      0.554954   708A      0.557172  
     709A      0.557669   710A      0.559403   711A      0.559589  
     712A      0.559833   713A      0.561014   714A      0.561135  
     715A      0.562417   716A      0.562645   717A      0.562785  
     718A      0.568200   719A      0.568712   720A      0.570630  
     721A      0.570930   722A      0.571267   723A      0.574373  
     724A      0.574828   725A      0.576169   726A      0.576637  
     727A      0.579007   728A      0.579512   729A      0.580977  
     730A      0.581980   731A      0.584896   732A      0.585236  
     733A      0.587288   734A      0.588229   735A      0.588315  
     736A      0.591266   737A      0.594806   738A      0.596318  
     739A      0.596713   740A      0.597019   741A      0.599230  
     742A      0.599463   743A      0.600540   744A      0.600801  
     745A      0.603621   746A      0.608968   747A      0.610511  
     748A      0.611711   749A      0.613328   750A      0.613647  
     751A      0.620773   752A      0.620856   753A      0.624235  
     754A      0.625105   755A      0.625142   756A      0.626797  
     757A      0.626967   758A      0.629054   759A      0.629505  
     760A      0.633363   761A      0.634210   762A      0.634287  
     763A      0.635055   764A      0.636674   765A      0.641901  
     766A      0.643995   767A      0.644610   768A      0.647285  
     769A      0.648730   770A      0.650729   771A      0.651172  
     772A      0.651636   773A      0.652767   774A      0.653634  
     775A      0.653727   776A      0.654379   777A      0.658428  
     778A      0.658833   779A      0.662319   780A      0.662482  
     781A      0.664402   782A      0.668249   783A      0.668844  
     784A      0.669039   785A      0.670650   786A      0.676881  
     787A      0.677641   788A      0.677875   789A      0.681305  
     790A      0.682685   791A      0.682792   792A      0.686484  
     793A      0.686825   794A      0.691787   795A      0.692253  
     796A      0.695576   797A      0.696646   798A      0.697452  
     799A      0.700949   800A      0.703080   801A      0.703387  
     802A      0.705049   803A      0.708735   804A      0.709043  
     805A      0.709182   806A      0.718484   807A      0.722963  
     808A      0.723247   809A      0.723406   810A      0.725025  
     811A      0.725249   812A      0.729631   813A      0.730017  
     814A      0.733677   815A      0.735646   816A      0.736087  
     817A      0.738561   818A      0.741445   819A      0.749313  
     820A      0.750575   821A      0.752429   822A      0.752463  
     823A      0.753451   824A      0.756505   825A      0.756526  
     826A      0.758008   827A      0.760200   828A      0.765052  
     829A      0.765448   830A      0.771036   831A      0.774299  
     832A      0.776129   833A      0.776618   834A      0.779571  
     835A      0.780328   836A      0.782299   837A      0.787247  
     838A      0.790068   839A      0.792276   840A      0.792928  
     841A      0.795229   842A      0.797399   843A      0.797776  
     844A      0.803559   845A      0.806495   846A      0.808716  
     847A      0.809862   848A      0.816414   849A      0.816502  
     850A      0.817754   851A      0.821235   852A      0.821885  
     853A      0.827663   854A      0.835834   855A      0.842588  
     856A      0.851136   857A      0.851204   858A      0.855365  
     859A      0.856388   860A      0.856532   861A      0.859128  
     862A      0.862198   863A      0.863108   864A      0.864109  
     865A      0.866741   866A      0.867733   867A      0.871870  
     868A      0.872878   869A      0.875609   870A      0.875950  
     871A      0.876808   872A      0.877316   873A      0.879418  
     874A      0.879690   875A      0.888327   876A      0.889387  
     877A      0.890089   878A      0.897619   879A      0.897933  
     880A      0.899123   881A      0.900362   882A      0.903080  
     883A      0.905504   884A      0.905754   885A      0.906291  
     886A      0.906627   887A      0.910256   888A      0.913599  
     889A      0.915031   890A      0.916224   891A      0.917073  
     892A      0.921046   893A      0.921509   894A      0.922935  
     895A      0.923135   896A      0.926837   897A      0.927539  
     898A      0.930796   899A      0.932158   900A      0.935304  
     901A      0.935574   902A      0.937188   903A      0.937682  
     904A      0.938266   905A      0.938969   906A      0.940075  
     907A      0.943244   908A      0.943860   909A      0.947282  
     910A      0.948423   911A      0.949862   912A      0.952814  
     913A      0.954163   914A      0.956312   915A      0.958906  
     916A      0.959350   917A      0.959672   918A      0.961368  
     919A      0.961891   920A      0.965391   921A      0.965731  
     922A      0.967740   923A      0.970341   924A      0.973540  
     925A      0.974469   926A      0.975027   927A      0.979013  
     928A      0.979474   929A      0.980359   930A      0.982350  
     931A      0.982517   932A      0.982667   933A      0.983048  
     934A      0.985064   935A      0.989430   936A      0.990534  
     937A      0.992256   938A      0.994178   939A      0.994648  
     940A      0.995075   941A      0.998839   942A      1.000579  
     943A      1.001439   944A      1.002400   945A      1.003899  
     946A      1.005004   947A      1.009151   948A      1.011101  
     949A      1.011230   950A      1.011304   951A      1.012398  
     952A      1.015412   953A      1.016362   954A      1.016757  
     955A      1.016919   956A      1.017810   957A      1.018746  
     958A      1.019575   959A      1.025571   960A      1.025918  
     961A      1.032302   962A      1.032395   963A      1.040171  
     964A      1.042257   965A      1.042906   966A      1.043599  
     967A      1.044399   968A      1.049114   969A      1.050779  
     970A      1.051435   971A      1.053931   972A      1.055212  
     973A      1.055238   974A      1.059393   975A      1.065378  
     976A      1.065539   977A      1.066068   978A      1.066549  
     979A      1.066914   980A      1.069018   981A      1.073172  
     982A      1.076102   983A      1.076242   984A      1.079317  
     985A      1.080486   986A      1.080825   987A      1.081906  
     988A      1.083430   989A      1.083554   990A      1.089714  
     991A      1.095772   992A      1.096356   993A      1.096679  
     994A      1.098413   995A      1.098559   996A      1.107100  
     997A      1.107322   998A      1.109069   999A      1.109369  
    1000A      1.110016  1001A      1.110609  1002A      1.111431  
    1003A      1.112338  1004A      1.112566  1005A      1.113069  
    1006A      1.113482  1007A      1.114035  1008A      1.116971  
    1009A      1.117342  1010A      1.123171  1011A      1.123578  
    1012A      1.123652  1013A      1.124650  1014A      1.125980  
    1015A      1.126785  1016A      1.127983  1017A      1.131765  
    1018A      1.132526  1019A      1.132792  1020A      1.134145  
    1021A      1.134601  1022A      1.134864  1023A      1.135009  
    1024A      1.137599  1025A      1.137967  1026A      1.138595  
    1027A      1.138929  1028A      1.140306  1029A      1.140350  
    1030A      1.141731  1031A      1.142522  1032A      1.142730  
    1033A      1.143244  1034A      1.143736  1035A      1.144349  
    1036A      1.144460  1037A      1.144684  1038A      1.147357  
    1039A      1.147656  1040A      1.148625  1041A      1.148950  
    1042A      1.149420  1043A      1.151616  1044A      1.151827  
    1045A      1.152670  1046A      1.156393  1047A      1.157059  
    1048A      1.158122  1049A      1.160402  1050A      1.160922  
    1051A      1.161502  1052A      1.163120  1053A      1.166005  
    1054A      1.166155  1055A      1.166321  1056A      1.166696  
    1057A      1.168620  1058A      1.175041  1059A      1.177206  
    1060A      1.178453  1061A      1.179386  1062A      1.179744  
    1063A      1.185067  1064A      1.186932  1065A      1.187470  
    1066A      1.188018  1067A      1.190268  1068A      1.190701  
    1069A      1.193477  1070A      1.195850  1071A      1.195882  
    1072A      1.199535  1073A      1.200183  1074A      1.202026  
    1075A      1.202180  1076A      1.203794  1077A      1.206110  
    1078A      1.208669  1079A      1.209181  1080A      1.211780  
    1081A      1.212953  1082A      1.213832  1083A      1.214243  
    1084A      1.217457  1085A      1.217517  1086A      1.218378  
    1087A      1.219392  1088A      1.220610  1089A      1.220699  
    1090A      1.227312  1091A      1.228414  1092A      1.233231  
    1093A      1.235496  1094A      1.235845  1095A      1.236145  
    1096A      1.236458  1097A      1.239381  1098A      1.247202  
    1099A      1.250349  1100A      1.250892  1101A      1.251457  
    1102A      1.252441  1103A      1.255258  1104A      1.255705  
    1105A      1.256758  1106A      1.258991  1107A      1.263002  
    1108A      1.266146  1109A      1.266298  1110A      1.268083  
    1111A      1.272591  1112A      1.273953  1113A      1.274008  
    1114A      1.274851  1115A      1.275782  1116A      1.275839  
    1117A      1.279811  1118A      1.280284  1119A      1.284183  
    1120A      1.285016  1121A      1.285667  1122A      1.286628  
    1123A      1.290029  1124A      1.296929  1125A      1.298549  
    1126A      1.307907  1127A      1.313774  1128A      1.313941  
    1129A      1.314808  1130A      1.315401  1131A      1.316206  
    1132A      1.320931  1133A      1.323565  1134A      1.323738  
    1135A      1.327444  1136A      1.329172  1137A      1.329754  
    1138A      1.333750  1139A      1.334022  1140A      1.342982  
    1141A      1.343135  1142A      1.348489  1143A      1.350414  
    1144A      1.353447  1145A      1.354758  1146A      1.354946  
    1147A      1.355574  1148A      1.358761  1149A      1.362236  
    1150A      1.362605  1151A      1.364701  1152A      1.365344  
    1153A      1.369830  1154A      1.370547  1155A      1.372198  
    1156A      1.375837  1157A      1.375935  1158A      1.376417  
    1159A      1.378060  1160A      1.378214  1161A      1.380407  
    1162A      1.381191  1163A      1.382595  1164A      1.385426  
    1165A      1.387277  1166A      1.388042  1167A      1.390247  
    1168A      1.390730  1169A      1.391029  1170A      1.395912  
    1171A      1.396375  1172A      1.398232  1173A      1.398466  
    1174A      1.403352  1175A      1.403638  1176A      1.417729  
    1177A      1.418032  1178A      1.420277  1179A      1.420549  
    1180A      1.422590  1181A      1.422781  1182A      1.424094  
    1183A      1.424891  1184A      1.425217  1185A      1.425338  
    1186A      1.434861  1187A      1.437335  1188A      1.437500  
    1189A      1.437655  1190A      1.442000  1191A      1.445155  
    1192A      1.449463  1193A      1.449579  1194A      1.449741  
    1195A      1.453750  1196A      1.453879  1197A      1.458925  
    1198A      1.459262  1199A      1.466598  1200A      1.468032  
    1201A      1.470337  1202A      1.470468  1203A      1.471897  
    1204A      1.472150  1205A      1.472351  1206A      1.473046  
    1207A      1.480578  1208A      1.480741  1209A      1.484269  
    1210A      1.484585  1211A      1.484704  1212A      1.488295  
    1213A      1.488499  1214A      1.492399  1215A      1.492944  
    1216A      1.494697  1217A      1.494750  1218A      1.498620  
    1219A      1.499074  1220A      1.504915  1221A      1.505236  
    1222A      1.505418  1223A      1.505640  1224A      1.505904  
    1225A      1.514360  1226A      1.515845  1227A      1.516075  
    1228A      1.520871  1229A      1.521521  1230A      1.521789  
    1231A      1.522120  1232A      1.530640  1233A      1.535170  
    1234A      1.535260  1235A      1.536578  1236A      1.537169  
    1237A      1.538739  1238A      1.544847  1239A      1.545063  
    1240A      1.547138  1241A      1.555553  1242A      1.555654  
    1243A      1.555938  1244A      1.564290  1245A      1.564519  
    1246A      1.564756  1247A      1.568333  1248A      1.576729  
    1249A      1.576887  1250A      1.581918  1251A      1.582629  
    1252A      1.588083  1253A      1.600441  1254A      1.600533  
    1255A      1.607678  1256A      1.609828  1257A      1.618769  
    1258A      1.618802  1259A      1.646426  1260A      1.646840  
    1261A      1.647077  1262A      1.649265  1263A      1.663099  
    1264A      1.668469  1265A      1.670591  1266A      1.671464  
    1267A      1.672280  1268A      1.672593  1269A      1.674601  
    1270A      1.675168  1271A      1.676721  1272A      1.677881  
    1273A      1.680241  1274A      1.680680  1275A      1.681202  
    1276A      1.681439  1277A      1.682868  1278A      1.684683  
    1279A      1.685723  1280A      1.685962  1281A      1.688821  
    1282A      1.689465  1283A      1.691259  1284A      1.691838  
    1285A      1.694902  1286A      1.696325  1287A      1.697860  
    1288A      1.700437  1289A      1.701266  1290A      1.701869  
    1291A      1.702297  1292A      1.703287  1293A      1.703654  
    1294A      1.704594  1295A      1.705208  1296A      1.706211  
    1297A      1.706412  1298A      1.706643  1299A      1.707484  
    1300A      1.714196  1301A      1.716255  1302A      1.716700  
    1303A      1.718604  1304A      1.718796  1305A      1.720735  
    1306A      1.722418  1307A      1.729881  1308A      1.730247  
    1309A      1.733103  1310A      1.733208  1311A      1.733593  
    1312A      1.734967  1313A      1.735149  1314A      1.737713  
    1315A      1.738130  1316A      1.739571  1317A      1.743669  
    1318A      1.744028  1319A      1.750012  1320A      1.752760  
    1321A      1.756536  1322A      1.758176  1323A      1.760434  
    1324A      1.760866  1325A      1.762289  1326A      1.765844  
    1327A      1.771130  1328A      1.771223  1329A      1.774176  
    1330A      1.777473  1331A      1.777499  1332A      1.778103  
    1333A      1.781459  1334A      1.783577  1335A      1.786345  
    1336A      1.786652  1337A      1.789336  1338A      1.789405  
    1339A      1.792382  1340A      1.800067  1341A      1.810982  
    1342A      1.811112  1343A      1.811709  1344A      1.811967  
    1345A      1.826216  1346A      1.828147  1347A      1.829489  
    1348A      1.831596  1349A      1.842695  1350A      1.844005  
    1351A      1.846252  1352A      1.846946  1353A      1.869224  
    1354A      1.869439  1355A      1.872595  1356A      1.880959  
    1357A      1.884856  1358A      1.888222  1359A      1.888792  
    1360A      1.888983  1361A      1.889400  1362A      1.890430  
    1363A      1.895264  1364A      1.895367  1365A      1.895490  
    1366A      1.901133  1367A      1.901997  1368A      1.904330  
    1369A      1.910893  1370A      1.911879  1371A      1.913855  
    1372A      1.915619  1373A      1.915638  1374A      1.921986  
    1375A      1.922592  1376A      1.927147  1377A      1.927244  
    1378A      1.930577  1379A      1.930615  1380A      1.931938  
    1381A      1.932511  1382A      1.934103  1383A      1.934301  
    1384A      1.934766  1385A      1.940965  1386A      1.941389  
    1387A      1.943503  1388A      1.944407  1389A      1.946368  
    1390A      1.946931  1391A      1.952666  1392A      1.952952  
    1393A      1.953367  1394A      1.955729  1395A      1.964265  
    1396A      1.964428  1397A      1.967220  1398A      1.967559  
    1399A      1.971969  1400A      1.975760  1401A      1.979466  
    1402A      1.980575  1403A      1.986060  1404A      1.987022  
    1405A      1.987368  1406A      1.989395  1407A      1.991126  
    1408A      1.991288  1409A      1.995859  1410A      1.996028  
    1411A      1.998083  1412A      1.999711  1413A      2.000646  
    1414A      2.001524  1415A      2.003521  1416A      2.005473  
    1417A      2.006473  1418A      2.008671  1419A      2.009791  
    1420A      2.014277  1421A      2.018400  1422A      2.019097  
    1423A      2.019778  1424A      2.020163  1425A      2.021312  
    1426A      2.021529  1427A      2.023347  1428A      2.024296  
    1429A      2.028189  1430A      2.029714  1431A      2.032023  
    1432A      2.032460  1433A      2.037370  1434A      2.038021  
    1435A      2.039878  1436A      2.041628  1437A      2.046857  
    1438A      2.049274  1439A      2.049580  1440A      2.051660  
    1441A      2.052317  1442A      2.052359  1443A      2.056226  
    1444A      2.058380  1445A      2.059339  1446A      2.064220  
    1447A      2.066597  1448A      2.069493  1449A      2.073664  
    1450A      2.074880  1451A      2.075660  1452A      2.076544  
    1453A      2.077170  1454A      2.081546  1455A      2.082290  
    1456A      2.084451  1457A      2.084562  1458A      2.085378  
    1459A      2.086481  1460A      2.089761  1461A      2.091148  
    1462A      2.092696  1463A      2.093754  1464A      2.094648  
    1465A      2.095282  1466A      2.097107  1467A      2.099138  
    1468A      2.100607  1469A      2.100805  1470A      2.106512  
    1471A      2.112991  1472A      2.113810  1473A      2.115733  
    1474A      2.116799  1475A      2.119172  1476A      2.123098  
    1477A      2.123569  1478A      2.124542  1479A      2.126768  
    1480A      2.128525  1481A      2.129600  1482A      2.130703  
    1483A      2.133462  1484A      2.134983  1485A      2.139453  
    1486A      2.140301  1487A      2.141815  1488A      2.144160  
    1489A      2.145281  1490A      2.145486  1491A      2.145563  
    1492A      2.145821  1493A      2.147594  1494A      2.149701  
    1495A      2.149938  1496A      2.150148  1497A      2.150674  
    1498A      2.152415  1499A      2.152575  1500A      2.152819  
    1501A      2.153477  1502A      2.155104  1503A      2.155677  
    1504A      2.158517  1505A      2.161068  1506A      2.162152  
    1507A      2.164054  1508A      2.164797  1509A      2.168123  
    1510A      2.170964  1511A      2.172310  1512A      2.172845  
    1513A      2.175779  1514A      2.176205  1515A      2.178472  
    1516A      2.178846  1517A      2.179692  1518A      2.182825  
    1519A      2.182963  1520A      2.183245  1521A      2.184419  
    1522A      2.187876  1523A      2.188263  1524A      2.189258  
    1525A      2.190175  1526A      2.191671  1527A      2.191875  
    1528A      2.193025  1529A      2.195770  1530A      2.202429  
    1531A      2.203017  1532A      2.203338  1533A      2.204496  
    1534A      2.205309  1535A      2.205698  1536A      2.206687  
    1537A      2.207638  1538A      2.207902  1539A      2.209162  
    1540A      2.209476  1541A      2.220314  1542A      2.221216  
    1543A      2.222003  1544A      2.222573  1545A      2.223038  
    1546A      2.223534  1547A      2.224281  1548A      2.226747  
    1549A      2.233954  1550A      2.234063  1551A      2.234637  
    1552A      2.242178  1553A      2.242939  1554A      2.243419  
    1555A      2.244990  1556A      2.245643  1557A      2.249521  
    1558A      2.254681  1559A      2.256227  1560A      2.258141  
    1561A      2.259974  1562A      2.260179  1563A      2.261047  
    1564A      2.262989  1565A      2.263682  1566A      2.264045  
    1567A      2.264409  1568A      2.266091  1569A      2.267863  
    1570A      2.268755  1571A      2.272286  1572A      2.273034  
    1573A      2.277554  1574A      2.279170  1575A      2.280300  
    1576A      2.283531  1577A      2.283628  1578A      2.284112  
    1579A      2.286500  1580A      2.289786  1581A      2.290449  
    1582A      2.291294  1583A      2.292354  1584A      2.294163  
    1585A      2.296689  1586A      2.303065  1587A      2.304789  
    1588A      2.306146  1589A      2.307751  1590A      2.308130  
    1591A      2.308817  1592A      2.319405  1593A      2.320821  
    1594A      2.322551  1595A      2.323280  1596A      2.326632  
    1597A      2.328629  1598A      2.333664  1599A      2.333948  
    1600A      2.342639  1601A      2.345091  1602A      2.346810  
    1603A      2.352329  1604A      2.353842  1605A      2.357671  
    1606A      2.361145  1607A      2.365401  1608A      2.365608  
    1609A      2.368542  1610A      2.386934  1611A      2.387341  
    1612A      2.388034  1613A      2.388718  1614A      2.391177  
    1615A      2.391626  1616A      2.392297  1617A      2.397174  
    1618A      2.398016  1619A      2.398513  1620A      2.401036  
    1621A      2.402932  1622A      2.404973  1623A      2.405112  
    1624A      2.407141  1625A      2.407913  1626A      2.408138  
    1627A      2.409322  1628A      2.416437  1629A      2.416704  
    1630A      2.436583  1631A      2.440972  1632A      2.441287  
    1633A      2.445811  1634A      2.450158  1635A      2.456058  
    1636A      2.461874  1637A      2.466604  1638A      2.467154  
    1639A      2.470028  1640A      2.480623  1641A      2.482317  
    1642A      2.488019  1643A      2.490178  1644A      2.498207  
    1645A      2.504627  1646A      2.506655  1647A      2.517209  
    1648A      2.518309  1649A      2.526466  1650A      2.526735  
    1651A      2.530060  1652A      2.530286  1653A      2.533486  
    1654A      2.533756  1655A      2.551897  1656A      2.552272  
    1657A      2.562896  1658A      2.567413  1659A      2.567966  
    1660A      2.571437  1661A      2.572742  1662A      2.577976  
    1663A      2.601784  1664A      2.603229  1665A      2.603542  
    1666A      2.604936  1667A      2.605920  1668A      2.607797  
    1669A      2.609240  1670A      2.609876  1671A      2.612747  
    1672A      2.617798  1673A      2.622211  1674A      2.622403  
    1675A      2.626797  1676A      2.631204  1677A      2.633172  
    1678A      2.640918  1679A      2.642660  1680A      2.643169  
    1681A      2.647235  1682A      2.647493  1683A      2.647846  
    1684A      2.649737  1685A      2.651674  1686A      2.654963  
    1687A      2.663007  1688A      2.663243  1689A      2.675333  
    1690A      2.676022  1691A      2.676174  1692A      2.676404  
    1693A      2.679213  1694A      2.679880  1695A      2.695287  
    1696A      2.703379  1697A      2.704033  1698A      2.706980  
    1699A      2.708184  1700A      2.709414  1701A      2.712381  
    1702A      2.712813  1703A      2.713472  1704A      2.716516  
    1705A      2.716911  1706A      2.727766  1707A      2.730608  
    1708A      2.730870  1709A      2.732017  1710A      2.732164  
    1711A      2.738638  1712A      2.738986  1713A      2.739127  
    1714A      2.749430  1715A      2.749776  1716A      2.751039  
    1717A      2.754200  1718A      2.754279  1719A      2.754706  
    1720A      2.756081  1721A      2.758950  1722A      2.760008  
    1723A      2.770157  1724A      2.784300  1725A      2.791096  
    1726A      2.791517  1727A      2.792025  1728A      2.793931  
    1729A      2.794013  1730A      2.815624  1731A      2.826860  
    1732A      2.827352  1733A      2.842315  1734A      2.844735  
    1735A      2.844794  1736A      2.848903  1737A      2.864151  
    1738A      2.864325  1739A      2.866489  1740A      2.866567  
    1741A      2.869900  1742A      2.876636  1743A      2.878675  
    1744A      2.878850  1745A      2.879371  1746A      2.880977  
    1747A      2.884175  1748A      2.896374  1749A      2.896446  
    1750A      2.903845  1751A      2.905647  1752A      2.905864  
    1753A      2.906113  1754A      2.909063  1755A      2.929329  
    1756A      2.929715  1757A      2.932533  1758A      2.933569  
    1759A      2.937829  1760A      2.941045  1761A      2.963413  
    1762A      2.964306  1763A      2.977419  1764A      2.977573  
    1765A      2.982116  1766A      2.987006  1767A      2.991210  
    1768A      2.995717  1769A      2.995850  1770A      3.010043  
    1771A      3.011279  1772A      3.025304  1773A      3.027139  
    1774A      3.027626  1775A      3.037150  1776A      3.054139  
    1777A      3.054693  1778A      3.092485  1779A      3.093258  
    1780A      3.096329  1781A      3.099606  1782A      3.108113  
    1783A      3.108486  1784A      3.110831  1785A      3.111389  
    1786A      3.121094  1787A      3.121199  1788A      3.124886  
    1789A      3.135324  1790A      3.170224  1791A      3.173752  
    1792A      3.174085  1793A      3.185928  1794A      3.191144  
    1795A      3.191360  1796A      3.197519  1797A      3.200129  
    1798A      3.202753  1799A      3.203597  1800A      3.210790  
    1801A      3.211162  1802A      3.213627  1803A      3.213948  
    1804A      3.215000  1805A      3.221543  1806A      3.232873  
    1807A      3.233462  1808A      3.237244  1809A      3.237369  
    1810A      3.253430  1811A      3.254131  1812A      3.279597  
    1813A      3.310752  1814A      3.318956  1815A      3.323064  
    1816A      3.325146  1817A      3.326212  1818A      3.327842  
    1819A      3.332212  1820A      3.334071  1821A      3.336795  
    1822A      3.337278  1823A      3.352127  1824A      3.359094  
    1825A      3.361974  1826A      3.363405  1827A      3.369011  
    1828A      3.426748  1829A      3.427538  1830A      3.467469  
    1831A      3.483610  1832A      3.499515  1833A      3.506461  
    1834A      3.518040  1835A      3.519832  1836A      3.524319  
    1837A      3.529398  1838A      3.530907  1839A      3.536581  
    1840A      3.538096  1841A      3.546957  1842A      3.553440  
    1843A      3.554357  1844A      3.572613  1845A      3.575357  
    1846A      3.612914  1847A      3.640822  1848A      3.642553  
    1849A      3.650274  1850A      3.654171  1851A      3.705661  
    1852A      3.708997  1853A      3.728809  1854A      3.730696  
    1855A      3.769874  1856A      3.814205  1857A      3.816646  
    1858A      3.819666  1859A      3.834246  1860A      3.840183  
    1861A      3.851105  1862A      3.904081  1863A      3.911022  
    1864A      3.934428  1865A      3.937777  1866A      3.973923  
    1867A      3.980072  1868A      4.009487  1869A      4.011592  
    1870A      4.012972  1871A      4.014427  1872A      4.029444  
    1873A      4.035611  1874A      4.040151  1875A      4.090629  
    1876A      4.093601  1877A      4.139627  1878A      4.166116  
    1879A      4.167242  1880A      4.167617  1881A      4.193276  
    1882A      4.195709  1883A      4.196195  1884A      4.200854  
    1885A      4.201323  1886A      4.232905  1887A      4.233128  
    1888A      4.247326  1889A      4.312232  1890A      4.411184  
    1891A      4.439663  1892A      4.440278  1893A      4.442504  
    1894A      4.469528  1895A      4.641224  1896A      4.651434  
    1897A      4.651518  1898A      4.744462  1899A      4.779458  
    1900A      4.779783  

    Final Occupation by Irrep:
              A 
    DOCC [   321 ]
    NA   [   321 ]
    NB   [   321 ]

  @DF-RHF Final Energy: -4073.10996751164976

   => Energetics <=

    Nuclear Repulsion Energy =          17549.2084171824499208
    One-Electron Energy =              -40585.2098210790136363
    Two-Electron Energy =               18962.8914363849144138
    Total Energy =                      -4073.1099675116493017

Computation Completed


Properties will be evaluated at   0.000000,   0.000000,   0.000000 [a0]

Properties computed using the SCF density matrix


 Multipole Moments:

 ------------------------------------------------------------------------------------
     Multipole            Electronic (a.u.)      Nuclear  (a.u.)        Total (a.u.)
 ------------------------------------------------------------------------------------

 L = 1.  Multiply by 2.5417464519 to convert [e a0] to [Debye]
 Dipole X            :          0.0002283           -0.0000548            0.0001735
 Dipole Y            :          0.0009395           -0.0002464            0.0006931
 Dipole Z            :        -20.6344216           27.3748447            6.7404231
 Magnitude           :                                                    6.7404231

 ------------------------------------------------------------------------------------

*** tstop() called on n2cn0241 at Sat Jan 27 13:22:11 2024
Module time:
	user time   =   25131.69 seconds =     418.86 minutes
	system time =    1314.65 seconds =      21.91 minutes
	total time  =       9615 seconds =     160.25 minutes
Total time:
	user time   =   25131.69 seconds =     418.86 minutes
	system time =    1314.65 seconds =      21.91 minutes
	total time  =       9615 seconds =     160.25 minutes

  //>>>>>>>>>>>>>>>>>>>>>>>>>>>>>>>>>>>//
  //            Monomer A HF           //
  //<<<<<<<<<<<<<<<<<<<<<<<<<<<<<<<<<<<//

   => Libint2 <=

    Primary   basis highest AM E, G, H:  5, 4, 3
    Auxiliary basis highest AM E, G, H:  6, 5, 4
    Onebody   basis highest AM E, G, H:  6, 5, 4
    Solid Harmonics ordering:            gaussian

*** tstart() called on n2cn0241
*** at Sat Jan 27 13:22:11 2024

   => Loading Basis Set <=

    Name: JUN-CC-PVDZ
    Role: ORBITAL
    Keyword: BASIS
    atoms 1                                                   entry B          line   130 file /opt/software/pc2/EB-SW/software/PSI4/1.9-foss-2022a/share/psi4/basis/jun-cc-pvdz.gbs 
    atoms 2-5                                                 entry F          line   266 file /opt/software/pc2/EB-SW/software/PSI4/1.9-foss-2022a/share/psi4/basis/jun-cc-pvdz.gbs 
    atoms 6-23, 30-42, 45-59, 62-78, 81-93, 98-108, 111-119   entry C          line   164 file /opt/software/pc2/EB-SW/software/PSI4/1.9-foss-2022a/share/psi4/basis/jun-cc-pvdz.gbs 
    atoms 24-29, 43-44, 60-61, 79-80, 94-97, 109-110, 120-125 entry H          line    36 file /opt/software/pc2/EB-SW/software/PSI4/1.9-foss-2022a/share/psi4/basis/jun-cc-pvdz.gbs 


         ---------------------------------------------------------
                                   SCF
               by Justin Turney, Rob Parrish, Andy Simmonett
                          and Daniel G. A. Smith
                              RHF Reference
                       16 Threads,  61035 MiB Core
         ---------------------------------------------------------

  ==> Geometry <==

    Molecular point group: c1
    Full point group: C1

    Geometry (in Angstrom), charge = -1, multiplicity = 1:

       Center              X                  Y                   Z               Mass       
    ------------   -----------------  -----------------  -----------------  -----------------
         B           -0.000201921932     0.000288800891    -4.283141740972    11.009305360000
         F           -0.000004162732     0.000014527991    -2.870356740972    18.998403162730
         F            1.147855837268     0.675795727991    -4.754282740972    18.998403162730
         F            0.011913897268    -1.331996472009    -4.754080740972    18.998403162730
         F           -1.159670162732     0.656088027991    -4.754001740972    18.998403162730
      Gh(C)          -3.668445426752     7.803766698073     0.318724300363    12.000000000000
      Gh(C)          -4.847602882078     7.131256359331     0.316357725431    12.000000000000
      Gh(C)          -4.894963461907     5.696344931522     0.315784814333    12.000000000000
      Gh(C)          -3.653744841505     4.980744868950     0.323445256062    12.000000000000
      Gh(C)          -2.409429284226     7.113995564665     0.318918642623    12.000000000000
      Gh(C)          -2.425481506836     5.681136478894     0.311913753753    12.000000000000
      Gh(C)          -1.194748179167     7.786158722300     0.320390823165    12.000000000000
      Gh(C)           0.037954866205     7.099436173748     0.318220118860    12.000000000000
      Gh(C)           0.030328424687     5.669504087695     0.312736733945    12.000000000000
      Gh(C)          -1.200988670637     4.969284875906     0.321706467878    12.000000000000
      Gh(C)           1.277953663083     7.772873971185     0.319595967421    12.000000000000
      Gh(C)           2.485353921992     7.087711413228     0.317321479516    12.000000000000
      Gh(C)           2.486124522185     5.654785338231     0.310383730529    12.000000000000
      Gh(C)           1.254078756912     4.956092641655     0.322011672117    12.000000000000
      Gh(C)           3.751710428674     7.763926678971     0.317448330897    12.000000000000
      Gh(C)           4.923561893453     7.078795304981     0.315391850189    12.000000000000
      Gh(C)           4.955603108594     5.643461991360     0.315231437382    12.000000000000
      Gh(C)           3.706797371473     4.941224736324     0.320322997551    12.000000000000
      Gh(H)          -3.658525300490     8.890841947126     0.320409288613     1.007825032230
      Gh(H)          -1.189217492488     8.874135615351     0.324362699607     1.007825032230
      Gh(H)           1.284290076155     8.860847963479     0.323754791562     1.007825032230
      Gh(H)           3.753537924068     8.851049806963     0.318970855212     1.007825032230
      Gh(H)           5.869954540475     7.613809362646     0.314466483146     1.007825032230
      Gh(H)          -5.788235870234     7.676316740925     0.314797878075     1.007825032230
[...]
    1504A      2.119380  1505A      2.121913  1506A      2.126908  
    1507A      2.127369  1508A      2.127943  1509A      2.128324  
    1510A      2.129167  1511A      2.129912  1512A      2.132661  
    1513A      2.133587  1514A      2.138568  1515A      2.138707  
    1516A      2.140546  1517A      2.143033  1518A      2.143559  
    1519A      2.143591  1520A      2.144394  1521A      2.144750  
    1522A      2.155539  1523A      2.156518  1524A      2.156729  
    1525A      2.158057  1526A      2.159443  1527A      2.159909  
    1528A      2.160985  1529A      2.161130  1530A      2.162498  
    1531A      2.163247  1532A      2.168824  1533A      2.171709  
    1534A      2.172143  1535A      2.181439  1536A      2.182931  
    1537A      2.183116  1538A      2.184205  1539A      2.190991  
    1540A      2.191665  1541A      2.192782  1542A      2.194075  
    1543A      2.194218  1544A      2.195587  1545A      2.198742  
    1546A      2.199016  1547A      2.200934  1548A      2.201940  
    1549A      2.202484  1550A      2.202984  1551A      2.206061  
    1552A      2.206855  1553A      2.207233  1554A      2.213053  
    1555A      2.214274  1556A      2.215019  1557A      2.220213  
    1558A      2.222845  1559A      2.223745  1560A      2.225133  
    1561A      2.225542  1562A      2.226491  1563A      2.229164  
    1564A      2.232042  1565A      2.232575  1566A      2.235942  
    1567A      2.239131  1568A      2.239367  1569A      2.239889  
    1570A      2.243111  1571A      2.247745  1572A      2.248243  
    1573A      2.253041  1574A      2.255870  1575A      2.261117  
    1576A      2.262313  1577A      2.265594  1578A      2.269685  
    1579A      2.271179  1580A      2.272102  1581A      2.276824  
    1582A      2.282977  1583A      2.284397  1584A      2.291595  
    1585A      2.292738  1586A      2.296853  1587A      2.296956  
    1588A      2.303994  1589A      2.304277  1590A      2.309950  
    1591A      2.320581  1592A      2.325036  1593A      2.325270  
    1594A      2.326031  1595A      2.327829  1596A      2.329951  
    1597A      2.330664  1598A      2.332335  1599A      2.333850  
    1600A      2.335266  1601A      2.336668  1602A      2.340307  
    1603A      2.341671  1604A      2.342260  1605A      2.342389  
    1606A      2.344950  1607A      2.345913  1608A      2.346392  
    1609A      2.349324  1610A      2.349659  1611A      2.368621  
    1612A      2.372973  1613A      2.373303  1614A      2.384019  
    1615A      2.388091  1616A      2.391772  1617A      2.397147  
    1618A      2.400844  1619A      2.401903  1620A      2.418478  
    1621A      2.419728  1622A      2.424634  1623A      2.427928  
    1624A      2.432520  1625A      2.442182  1626A      2.444248  
    1627A      2.453175  1628A      2.454111  1629A      2.464735  
    1630A      2.464771  1631A      2.468280  1632A      2.468389  
    1633A      2.471983  1634A      2.472217  1635A      2.491214  
    1636A      2.491626  1637A      2.496360  1638A      2.502091  
    1639A      2.506822  1640A      2.507615  1641A      2.511582  
    1642A      2.516262  1643A      2.539681  1644A      2.540117  
    1645A      2.540202  1646A      2.543077  1647A      2.544005  
    1648A      2.545869  1649A      2.547769  1650A      2.548794  
    1651A      2.549311  1652A      2.551686  1653A      2.556659  
    1654A      2.556805  1655A      2.564260  1656A      2.571527  
    1657A      2.571609  1658A      2.581400  1659A      2.583939  
    1660A      2.584443  1661A      2.585501  1662A      2.586544  
    1663A      2.588738  1664A      2.589049  1665A      2.593244  
    1666A      2.593554  1667A      2.601674  1668A      2.601822  
    1669A      2.613477  1670A      2.614255  1671A      2.614403  
    1672A      2.614749  1673A      2.617337  1674A      2.617982  
    1675A      2.632623  1676A      2.641262  1677A      2.642115  
    1678A      2.644615  1679A      2.645601  1680A      2.648508  
    1681A      2.649319  1682A      2.649728  1683A      2.653070  
    1684A      2.656003  1685A      2.656333  1686A      2.666158  
    1687A      2.666738  1688A      2.667783  1689A      2.670635  
    1690A      2.670864  1691A      2.673761  1692A      2.678931  
    1693A      2.679244  1694A      2.686185  1695A      2.686862  
    1696A      2.688190  1697A      2.691428  1698A      2.691580  
    1699A      2.692508  1700A      2.693746  1701A      2.696488  
    1702A      2.697581  1703A      2.707153  1704A      2.723650  
    1705A      2.730786  1706A      2.731292  1707A      2.731411  
    1708A      2.731565  1709A      2.732095  1710A      2.753167  
    1711A      2.760547  1712A      2.760996  1713A      2.769839  
    1714A      2.776156  1715A      2.780680  1716A      2.781163  
    1717A      2.799687  1718A      2.799987  1719A      2.802257  
    1720A      2.802287  1721A      2.803567  1722A      2.809855  
    1723A      2.811764  1724A      2.815109  1725A      2.815764  
    1726A      2.816388  1727A      2.816825  1728A      2.829169  
    1729A      2.829729  1730A      2.837853  1731A      2.838680  
    1732A      2.840630  1733A      2.840696  1734A      2.842616  
    1735A      2.842770  1736A      2.846215  1737A      2.854282  
    1738A      2.865320  1739A      2.865633  1740A      2.870616  
    1741A      2.871625  1742A      2.874853  1743A      2.896030  
    1744A      2.896900  1745A      2.914993  1746A      2.917839  
    1747A      2.917941  1748A      2.925825  1749A      2.927474  
    1750A      2.935429  1751A      2.935484  1752A      2.941479  
    1753A      2.963497  1754A      2.965506  1755A      2.965977  
    1756A      2.976242  1757A      2.992240  1758A      2.992843  
    1759A      3.029866  1760A      3.030490  1761A      3.035916  
    1762A      3.039120  1763A      3.047192  1764A      3.047733  
    1765A      3.048240  1766A      3.057695  1767A      3.057771  
    1768A      3.066885  1769A      3.072942  1770A      3.110355  
    1771A      3.113339  1772A      3.113780  1773A      3.123010  
    1774A      3.128799  1775A      3.129097  1776A      3.134300  
    1777A      3.136885  1778A      3.142150  1779A      3.143253  
    1780A      3.149616  1781A      3.150085  1782A      3.150417  
    1783A      3.150930  1784A      3.154339  1785A      3.162143  
    1786A      3.168145  1787A      3.173214  1788A      3.176657  
    1789A      3.176781  1790A      3.193243  1791A      3.194033  
    1792A      3.220376  1793A      3.255833  1794A      3.259689  
    1795A      3.262234  1796A      3.262727  1797A      3.262971  
    1798A      3.265446  1799A      3.270142  1800A      3.272818  
    1801A      3.275426  1802A      3.275923  1803A      3.295809  
    1804A      3.298848  1805A      3.300278  1806A      3.305997  
    1807A      3.362093  1808A      3.362950  1809A      3.387095  
    1810A      3.417820  1811A      3.433411  1812A      3.434403  
    1813A      3.443702  1814A      3.452441  1815A      3.457451  
    1816A      3.463734  1817A      3.464895  1818A      3.470957  
    1819A      3.472593  1820A      3.478249  1821A      3.486173  
    1822A      3.487775  1823A      3.506814  1824A      3.509860  
    1825A      3.545311  1826A      3.576151  1827A      3.577755  
    1828A      3.585052  1829A      3.590629  1830A      3.639892  
    1831A      3.643230  1832A      3.665392  1833A      3.667396  
    1834A      3.705353  1835A      3.751388  1836A      3.752760  
    1837A      3.754271  1838A      3.767295  1839A      3.778635  
    1840A      3.781932  1841A      3.842141  1842A      3.846661  
    1843A      3.871873  1844A      3.875109  1845A      3.911112  
    1846A      3.916483  1847A      3.942697  1848A      3.945505  
    1849A      3.948895  1850A      3.949923  1851A      3.963543  
    1852A      3.965463  1853A      3.971772  1854A      4.024776  
    1855A      4.027540  1856A      4.072022  1857A      4.226758  
    1858A      4.242629  1859A      4.260104  1860A      4.323457  
    1861A      4.328085  1862A      4.400248  1863A      4.486501  
    1864A      5.751667  1865A      5.756761  1866A      5.756824  
    1867A      5.762181  1868A      5.762360  1869A      5.762371  
    1870A      5.768395  1871A      5.768482  1872A      5.792944  
    1873A      5.793072  1874A      5.807607  1875A      6.023554  
    1876A      6.025526  1877A      6.025842  1878A      6.200189  
    1879A      6.331532  1880A      6.331881  1881A      6.382434  
    1882A      6.383293  1883A      6.383598  1884A      7.242465  
    1885A      7.243127  1886A      7.264103  1887A      7.271963  
    1888A      7.311653  1889A      7.312237  1890A      7.407056  
    1891A      7.408859  1892A      7.518281  1893A      7.519489  
    1894A      7.621006  1895A      7.794820  1896A     12.650390  
    1897A     42.922431  1898A     42.922464  1899A     42.937620  
    1900A     42.966286  

    Final Occupation by Irrep:
              A 
    DOCC [   300 ]
    NA   [   300 ]
    NB   [   300 ]

  @DF-RHF Final Energy: -3650.33898759555268

   => Energetics <=

    Nuclear Repulsion Energy =          15611.4211649754324753
    One-Electron Energy =              -36072.1160561886572395
    Two-Electron Energy =               16810.3559036176739028
    Total Energy =                      -3650.3389875955508614

Computation Completed


Properties will be evaluated at   0.000000,   0.000000,   0.000000 [a0]

Properties computed using the SCF density matrix


 Multipole Moments:

 ------------------------------------------------------------------------------------
     Multipole            Electronic (a.u.)      Nuclear  (a.u.)        Total (a.u.)
 ------------------------------------------------------------------------------------

 L = 1.  Multiply by 2.5417464519 to convert [e a0] to [Debye]
 Dipole X            :         -0.0005452            0.0002304           -0.0003147
 Dipole Y            :          0.0011714           -0.0013052           -0.0001338
 Dipole Z            :       -359.2274989          359.2300396            0.0025407
 Magnitude           :                                                    0.0025636

 ------------------------------------------------------------------------------------

*** tstop() called on n2cn0241 at Sat Jan 27 16:02:37 2024
Module time:
	user time   =   17427.69 seconds =     290.46 minutes
	system time =     944.48 seconds =      15.74 minutes
	total time  =       6056 seconds =     100.93 minutes
Total time:
	user time   =   46884.38 seconds =     781.41 minutes
	system time =    2556.85 seconds =      42.61 minutes
	total time  =      19241 seconds =     320.68 minutes
  Constructing Basis Sets for SAPT...

   => Loading Basis Set <=

    Name: (JUN-CC-PVDZ AUX)
    Role: RIFIT
    Keyword: DF_BASIS_SAPT
    atoms 1                                                   entry B          line    56 file /opt/software/pc2/EB-SW/software/PSI4/1.9-foss-2022a/share/psi4/basis/jun-cc-pvdz-ri.gbs 
    atoms 2-5                                                 entry F          line   232 file /opt/software/pc2/EB-SW/software/PSI4/1.9-foss-2022a/share/psi4/basis/jun-cc-pvdz-ri.gbs 
    atoms 6-23, 30-42, 45-59, 62-78, 81-93, 98-108, 111-119   entry C          line   100 file /opt/software/pc2/EB-SW/software/PSI4/1.9-foss-2022a/share/psi4/basis/jun-cc-pvdz-ri.gbs 
    atoms 24-29, 43-44, 60-61, 79-80, 94-97, 109-110, 120-125 entry H          line    30 file /opt/software/pc2/EB-SW/software/PSI4/1.9-foss-2022a/share/psi4/basis/jun-cc-pvdz-ri.gbs 

   => Loading Basis Set <=

    Name: (JUN-CC-PVDZ AUX)
    Role: JKFIT
    Keyword: DF_BASIS_ELST
    atoms 1                                                   entry B          line    90 file /opt/software/pc2/EB-SW/software/PSI4/1.9-foss-2022a/share/psi4/basis/jun-cc-pvdz-jkfit.gbs 
    atoms 2-5                                                 entry F          line   314 file /opt/software/pc2/EB-SW/software/PSI4/1.9-foss-2022a/share/psi4/basis/jun-cc-pvdz-jkfit.gbs 
    atoms 6-23, 30-42, 45-59, 62-78, 81-93, 98-108, 111-119   entry C          line   146 file /opt/software/pc2/EB-SW/software/PSI4/1.9-foss-2022a/share/psi4/basis/jun-cc-pvdz-jkfit.gbs 
    atoms 24-29, 43-44, 60-61, 79-80, 94-97, 109-110, 120-125 entry H          line    70 file /opt/software/pc2/EB-SW/software/PSI4/1.9-foss-2022a/share/psi4/basis/jun-cc-pvdz-jkfit.gbs 


  //>>>>>>>>>>>>>>>>>>>>>>>>>>>>>>>>>>>//
  //               SSAPT0              //
  //<<<<<<<<<<<<<<<<<<<<<<<<<<<<<<<<<<<//


*** tstart() called on n2cn0241
*** at Sat Jan 27 16:02:39 2024

        SAPT0  
    Ed Hohenstein
     6 June 2009

      Orbital Information
  --------------------------
    NSO        =      1938
    NMO        =      1900
    NRI        =      6901
    NRI (Elst) =      8531
    NOCC A     =        21
    NOCC B     =       300
    FOCC A     =         5
    FOCC B     =        96
    NVIR A     =      1879
    NVIR B     =      1600

    Elst10,r            =     0.010807423063 [Eh]
    Exch10              =     0.001806716601 [Eh]
    Exch10 (S^2)        =     0.001806820000 [Eh]

    Iter     Energy [mEh]          dE [mEh]         Residual      Time [s]
       1      -0.14708044       0.147080441       1.688851014           737
       2      -0.17827280       0.031192359       0.606090741          1389
       3      -0.18043662       0.002163822       0.093671399          1955
       4      -0.18007764      -0.000358985       0.025065385          2609
       5      -0.18007046      -0.000007180       0.006727552          3153
       6      -0.18008252       0.000012065       0.001962672          3750
       7      -0.18008440       0.000001880       0.000439273          4275
       8      -0.18008365      -0.000000754       0.000109521          4947
       9      -0.18008361      -0.000000037       0.000020212          5635
      10      -0.18008365       0.000000035       0.000002795          6207
      11      -0.18008364      -0.000000004       0.000000602          6750

    CHF Iterations converged


    Iter     Energy [mEh]          dE [mEh]         Residual      Time [s]
       1     -17.61191466      17.611914659      72.812827688           717
       2     -11.26323678      -6.348677883       8.824310183          1421
       3     -11.19413119      -0.069105585       2.885050506          2010
       4     -11.38812442       0.193993224       0.984458052          2533
       5     -11.41878621       0.030661797       0.331174503          3041
       6     -11.41324040      -0.005545817       0.214398717          3497
       7     -11.40797096      -0.005269439       0.084817399          4124
       8     -11.40849949       0.000528531       0.034015567          4751
       9     -11.40935889       0.000859400       0.011970973          5236
      10     -11.40934201      -0.000016876       0.010968669          5695
      11     -11.40916229      -0.000179724       0.007356844          6202
      12     -11.40917381       0.000011520       0.004337934          6695
      13     -11.40922305       0.000049244       0.001718564          7268
      14     -11.40923337       0.000010322       0.000666563          7772
      15     -11.40922790      -0.000005470       0.000422681          8494
      16     -11.40922138      -0.000006521       0.000235330          9166
      17     -11.40922453       0.000003149       0.000122042          9850
      18     -11.40922575       0.000001215       0.000044131         10595
      19     -11.40922521      -0.000000539       0.000024173         11384
      20     -11.40922497      -0.000000239       0.000011324         12039
      21     -11.40922505       0.000000086       0.000005068         12767
      22     -11.40922510       0.000000050       0.000002116         13628
      23     -11.40922510      -0.000000006       0.000000806         14711

    CHF Iterations converged

    Ind20,r (A<-B)      =    -0.000180083642 [Eh]
    Ind20,r (B<-A)      =    -0.011409225098 [Eh]
    Ind20,r             =    -0.011589308740 [Eh]
    Exch-Ind20,r (A<-B) =     0.000159529398 [Eh]
    Exch-Ind20,r (B<-A) =     0.000193561678 [Eh]
    Exch-Ind20,r        =     0.000353091076 [Eh]
    Disp20              =    -0.004740092829 [Eh]
    Disp20 (SS)         =    -0.002370046415 [Eh]
    Disp20 (OS)         =    -0.002370046415 [Eh]
    Exch-Disp20         =     0.000295426519 [Eh]
    Exch-Disp20 (SS)    =     0.000179595608 [Eh]
    Exch-Disp20 (OS)    =     0.000115830911 [Eh]

    SAPT Results 
  --------------------------------------------------------------------------------------------------------
    Electrostatics                 10.80742306 [mEh]       6.78176036 [kcal/mol]      28.37488534 [kJ/mol]
      Elst10,r                     10.80742306 [mEh]       6.78176036 [kcal/mol]      28.37488534 [kJ/mol]

    Exchange                        1.80671660 [mEh]       1.13373178 [kcal/mol]       4.74353378 [kJ/mol]
      Exch10                        1.80671660 [mEh]       1.13373178 [kcal/mol]       4.74353378 [kJ/mol]
      Exch10(S^2)                   1.80682000 [mEh]       1.13379667 [kcal/mol]       4.74380526 [kJ/mol]

    Induction                     -11.31192346 [mEh]      -7.09833914 [kcal/mol]     -29.69945094 [kJ/mol]
      Ind20,r                     -11.58930874 [mEh]      -7.27240103 [kcal/mol]     -30.42772590 [kJ/mol]
      Exch-Ind20,r                  0.35309108 [mEh]       0.22156800 [kcal/mol]       0.92704049 [kJ/mol]
      delta HF,r (2)               -0.07570579 [mEh]      -0.04750610 [kcal/mol]      -0.19876553 [kJ/mol]

    Dispersion                     -4.44466631 [mEh]      -2.78907022 [kcal/mol]     -11.66946979 [kJ/mol]
      Disp20                       -4.74009283 [mEh]      -2.97445316 [kcal/mol]     -12.44511201 [kJ/mol]
      Exch-Disp20                   0.29542652 [mEh]       0.18538294 [kcal/mol]       0.77564222 [kJ/mol]
      Disp20 (SS)                  -2.37004641 [mEh]      -1.48722658 [kcal/mol]      -6.22255600 [kJ/mol]
      Disp20 (OS)                  -2.37004641 [mEh]      -1.48722658 [kcal/mol]      -6.22255600 [kJ/mol]
      Exch-Disp20 (SS)              0.17959561 [mEh]       0.11269795 [kcal/mol]       0.47152820 [kJ/mol]
      Exch-Disp20 (OS)              0.11583091 [mEh]       0.07268499 [kcal/mol]       0.30411402 [kJ/mol]

  Total HF                          1.30221621 [mEh]       0.81715301 [kcal/mol]       3.41896818 [kJ/mol]
  Total SAPT0                      -3.14245010 [mEh]      -1.97191721 [kcal/mol]      -8.25050161 [kJ/mol]

  Special recipe for scaled SAPT0 (see Manual):
    Electrostatics sSAPT0          10.80742306 [mEh]       6.78176036 [kcal/mol]      28.37488534 [kJ/mol]
    Exchange sSAPT0                 1.80671660 [mEh]       1.13373178 [kcal/mol]       4.74353378 [kJ/mol]
    Induction sSAPT0              -11.31198407 [mEh]      -7.09837717 [kcal/mol]     -29.69961009 [kJ/mol]
    Dispersion sSAPT0              -4.44471703 [mEh]      -2.78910204 [kcal/mol]     -11.66960295 [kJ/mol]
  Total sSAPT0                     -3.14256143 [mEh]      -1.97198707 [kcal/mol]      -8.25079391 [kJ/mol]
  --------------------------------------------------------------------------------------------------------

*** tstop() called on n2cn0241 at Mon Jan 29 13:41:12 2024
Module time:
	user time   =   64721.49 seconds =    1078.69 minutes
	system time =    3454.13 seconds =      57.57 minutes
	total time  =     164313 seconds =    2738.55 minutes
Total time:
	user time   =  111607.31 seconds =    1860.12 minutes
	system time =    6010.98 seconds =     100.18 minutes
	total time  =     183556 seconds =    3059.27 minutes

    Psi4 stopped on: Monday, 29 January 2024 01:41PM
    Psi4 wall time for execution: 2 days, 2:59:17.45

*** Psi4 exiting successfully. Buy a developer a beer!
