LAMMPS data file via write_data, version 2 Aug 2023, timestep = 3010000, units = real

8237 atoms
18 atom types
9216 bonds
16 bond types
11373 angles
12 angle types
18657 dihedrals
17 dihedral types
2240 impropers
1 improper types

0 34.08 xlo xhi
0 34.433 ylo yhi
0 200 zlo zhi

Masses

1 12.011
2 11.611
3 10.411
4 18.598
5 13.607
6 11.611
7 11.611
8 11.611
9 1.008
10 1.008
11 1.008
12 0.4
13 0.4
14 0.4
15 0.4
16 0.4
17 0.4
18 0.4

Bond Coeffs # harmonic

1 350 1.42
2 386.592 1.394
3 477.055 1.315
4 427.103 1.378
5 520.076 1.341
6 336.998 1.466
7 339.986 1.08
8 339.986 1.08
9 339.986 1.09
10 500 0
11 500 0
12 500 0
13 500 0
14 500 0
15 500 0
16 500 0

Angle Coeffs

   1    cosine/squared 66.665   120.000000  # C-C-C
   2    harmonic       80.007170   109.500000  # F-B-F
   3    harmonic       70.004780   126.400000  # CR-NA-CT
   4    harmonic       70.004780   108.000000  # CW-NA-CR
   5    harmonic       70.004780   125.600000  # CW-NA-CT
   6    harmonic       70.004780   109.800000  # NA-CR-NA
   7    harmonic       35.002390   125.100000  # NA-CR-HA
   8    harmonic       70.004780   107.100000  # NA-CW-CW
   9    harmonic       35.002390   122.000000  # NA-CW-HA
  10    harmonic       35.002390   130.900000  # CW-CW-HA
  11    harmonic       37.500000   110.700000  # NA-CT-HC
  12    harmonic       32.994742   107.800000  # HC-CT-HC

Dihedral Coeffs

   1    harmonic      3.125000    -1            2                      # C-C-C-C
   2    opls          0.000000     4.651052     0.000000     0.000000  # CT-NA-CR-NA
   3    opls          0.000000     4.651052     0.000000     0.000000  # CW-NA-CR-NA
   4    opls          0.000000     4.651052     0.000000     0.000000  # CT-NA-CR-HA
   5    opls          0.000000     4.651052     0.000000     0.000000  # CW-NA-CR-HA
   6    opls          0.000000     3.000000     0.000000     0.000000  # CR-NA-CW-CW
   7    opls          0.000000     3.000000     0.000000     0.000000  # CT-NA-CW-CW
   8    opls          0.000000     3.000000     0.000000     0.000000  # CR-NA-CW-HA
   9    opls          0.000000     3.000000     0.000000     0.000000  # CT-NA-CW-HA
  10    opls          0.000000    10.750478     0.000000     0.000000  # NA-CW-CW-HA
  11    opls          0.000000    10.750478     0.000000     0.000000  # HA-CW-CW-HA
  12    opls          0.000000    10.750478     0.000000     0.000000  # NA-CW-CW-NA
  13    opls          0.000000     0.000000     0.000000     0.000000  # CR-NA-CT-HC
  14    opls          0.000000     0.000000     0.124044     0.000000  # CW-NA-CT-HC
  15    opls          0.000000     2.000000     0.000000     0.000000  # CR-CW-NA-CT
  16    opls          0.000000     2.200000     0.000000     0.000000  # NA-NA-CR-HA
  17    opls          0.000000     2.200000     0.000000     0.000000  # NA-CW-CW-HA

Improper Coeffs # umbrella

1 40 0

Atoms # full

1 1 1 0 0.71 0 0 0 0 0
2 1 1 0 2.13 0 0 0 0 0
3 1 1 0 0 1.23 0 0 0 0
4 1 1 0 2.84 1.23 0 0 0 0
5 1 1 0 4.97 0 0 0 0 0
6 1 1 0 6.39 0 0 0 0 0
7 1 1 0 4.26 1.23 0 0 0 0
8 1 1 0 7.1 1.23 0 0 0 0
33 1 1 0 0.71 2.46 0 0 0 0
34 1 1 0 2.13 2.46 0 0 0 0
35 1 1 0 0 3.689 0 0 0 0
36 1 1 0 2.84 3.689 0 0 0 0
37 1 1 0 4.97 2.46 0 0 0 0
38 1 1 0 6.39 2.46 0 0 0 0
39 1 1 0 4.26 3.689 0 0 0 0
40 1 1 0 7.1 3.689 0 0 0 0
65 1 1 0 0.71 4.919 0 0 0 0
66 1 1 0 2.13 4.919 0 0 0 0
67 1 1 0 0 6.149 0 0 0 0
68 1 1 0 2.84 6.149 0 0 0 0
69 1 1 0 4.97 4.919 0 0 0 0
70 1 1 0 6.39 4.919 0 0 0 0
71 1 1 0 4.26 6.149 0 0 0 0
72 1 1 0 7.1 6.149 0 0 0 0
97 1 1 0 0.71 7.379 0 0 0 0
98 1 1 0 2.13 7.379 0 0 0 0
99 1 1 0 0 8.608 0 0 0 0
100 1 1 0 2.84 8.608 0 0 0 0
101 1 1 0 4.97 7.379 0 0 0 0
102 1 1 0 6.39 7.379 0 0 0 0
103 1 1 0 4.26 8.608 0 0 0 0
104 1 1 0 7.1 8.608 0 0 0 0
449 1 1 0 2.13 0 3.35 0 0 0
450 1 1 0 3.55 0 3.35 0 0 0
451 1 1 0 1.42 1.23 3.35 0 0 0
452 1 1 0 4.26 1.23 3.35 0 0 0
453 1 1 0 6.39 0 3.35 0 0 0
454 1 1 0 7.81 0 3.35 0 0 0
455 1 1 0 5.68 1.23 3.35 0 0 0
480 1 1 0 0 1.23 3.35 1 0 0
481 1 1 0 2.13 2.46 3.35 0 0 0
482 1 1 0 3.55 2.46 3.35 0 0 0
483 1 1 0 1.42 3.689 3.35 0 0 0
484 1 1 0 4.26 3.689 3.35 0 0 0
485 1 1 0 6.39 2.46 3.35 0 0 0
486 1 1 0 7.81 2.46 3.35 0 0 0
487 1 1 0 5.68 3.689 3.35 0 0 0
512 1 1 0 0 3.689 3.35 1 0 0
513 1 1 0 2.13 4.919 3.35 0 0 0
514 1 1 0 3.55 4.919 3.35 0 0 0
515 1 1 0 1.42 6.149 3.35 0 0 0
516 1 1 0 4.26 6.149 3.35 0 0 0
517 1 1 0 6.39 4.919 3.35 0 0 0
518 1 1 0 7.81 4.919 3.35 0 0 0
519 1 1 0 5.68 6.149 3.35 0 0 0
544 1 1 0 0 6.149 3.35 1 0 0
545 1 1 0 2.13 7.379 3.35 0 0 0
546 1 1 0 3.55 7.379 3.35 0 0 0
547 1 1 0 1.42 8.608 3.35 0 0 0
548 1 1 0 4.26 8.608 3.35 0 0 0
549 1 1 0 6.39 7.379 3.35 0 0 0
550 1 1 0 7.81 7.379 3.35 0 0 0
551 1 1 0 5.68 8.608 3.35 0 0 0
576 1 1 0 0 8.608 3.35 1 0 0
900 1 2 1.85204 2.748857816404629 1.2266566329297455 6.79944749954052 0 0 0
903 1 2 1.85204 4.2025857911546165 1.2143363632176944 6.883596852259584 0 0 0
904 1 2 1.85204 7.047996717524251 1.230465687576586 6.783927345751429 0 0 0
929 1 2 1.85204 0.6959434900859269 2.3920749594490873 6.798313010402476 0 0 0
930 1 2 1.85204 2.0939587559842465 2.454348324921674 6.739341334118405 0 0 0
932 1 2 1.85204 2.8053767328292913 3.700545304213731 6.796168181289641 0 0 0
933 1 2 1.85204 4.958587546784439 2.48675315777294 6.821929511719125 0 0 0
934 1 2 1.85204 6.3809242297009625 2.5035135595136446 6.856926219034785 0 0 0
935 1 2 1.85204 4.248397559857859 3.6682267009579226 6.753019450390484 0 0 0
936 1 2 1.85204 7.05355062625992 3.773534451369987 6.847267724749998 0 0 0
961 1 2 1.85204 0.7011346553720795 4.963440110862106 6.778988428519675 0 0 0
962 1 2 1.85204 2.116105196788879 4.934601027302337 6.850614108983873 0 0 0
964 1 2 1.85204 2.850349227320858 6.176408306626761 6.946052092705497 0 0 0
965 1 2 1.85204 4.896078584133296 4.930609167855549 6.7953031631290015 0 0 0
966 1 2 1.85204 6.312644562025696 4.920735021923981 6.811184605579414 0 0 0
967 1 2 1.85204 4.247412833859534 6.1744217489057815 6.786318140728407 0 0 0
968 1 2 1.85204 7.0292463086389105 6.2006423809357925 6.767956920756261 0 0 0
993 1 2 1.85204 0.7230911057070842 7.469032946216572 6.87962497216607 0 0 0
994 1 2 1.85204 2.1577716847977086 7.485574989507258 6.864527434016419 0 0 0
997 1 2 1.85204 4.961446198625257 7.4013791858168965 6.689239414232078 0 0 0
998 1 2 1.85204 6.3957238551196145 7.428989392846226 6.682090536344024 0 0 0
1347 1 2 1.85204 1.5107035904887485 1.2332762763400684 10.24040876711236 0 0 0
1348 1 2 1.85204 4.307947054637155 1.298843054858817 10.265578499903866 0 0 0
1351 1 2 1.85204 5.788026487316848 1.26891452658611 10.14883632596864 0 0 0
1377 1 2 1.85204 2.1538789038801336 2.485808465381557 10.240728539972405 0 0 0
1378 1 2 1.85204 3.575071447733989 2.5068407818684775 10.264665103359464 0 0 0
1379 1 2 1.85204 1.3797495175752803 3.7179298477234317 10.230404528887545 0 0 0
1380 1 2 1.85204 4.2602807332652555 3.767367438861836 10.254876052003711 0 0 0
1381 1 2 1.85204 6.453411116445316 2.527653418796043 10.089483311903306 0 0 0
1382 1 2 1.85204 7.883126436287701 2.5400437944809235 10.070803639032926 0 0 0
1383 1 2 1.85204 5.695107059949858 3.7353669814320267 10.162894366875673 0 0 0
1409 1 2 1.85204 2.1097594507449884 4.947300611296943 10.17165986010337 0 0 0
1410 1 2 1.85204 3.527684969572554 4.990014175659469 10.23878656564872 0 0 0
1411 1 2 1.85204 1.4745905883826451 6.211055830132943 10.112030497389885 0 0 0
1412 1 2 1.85204 4.265057766406754 6.195149622717184 10.120518525859215 0 0 0
1413 1 2 1.85204 6.396391960931995 4.936179543687054 10.13851849366183 0 0 0
1414 1 2 1.85204 7.7962597337829465 4.954038556268908 10.068904151013518 0 0 0
1415 1 2 1.85204 5.682684168537509 6.181683199131654 10.204673549592195 0 0 0
1441 1 2 1.85204 2.176659091661244 7.416412066991812 10.157751110089505 0 0 0
1442 1 2 1.85204 3.5602451804790496 7.388017240571949 10.169946981649778 0 0 0
1445 1 2 1.85204 6.362143122804008 7.404436593802254 10.125069799549065 0 0 0
1446 1 2 1.85204 7.797377949833437 7.407169046352197 10.07646287312659 0 0 0
1796 1 2 1.85204 2.925264610371824 1.2004297422785613 13.737053956556078 0 0 0
1799 1 2 1.85204 4.366204700711863 1.2020359850012154 13.6032624617451 0 0 0
1800 1 2 1.85204 7.144043732904151 1.2312057614531748 13.457026672437358 0 0 0
1825 1 2 1.85204 0.825948154685374 2.4075476877062534 13.897687470879113 0 0 0
1826 1 2 1.85204 2.2503004946337164 2.4155053045827124 13.80267034224387 0 0 0
1828 1 2 1.85204 2.932816245738679 3.6239475387006386 13.665939215843622 0 0 0
1829 1 2 1.85204 5.060974467921859 2.4127108544559297 13.477534708670328 0 0 0
1830 1 2 1.85204 6.48522600261507 2.441850583777442 13.379497039886768 0 0 0
1831 1 2 1.85204 4.36961531546265 3.705337793887963 13.503963094867625 0 0 0
1832 1 2 1.85204 7.158733154520511 3.706930745161642 13.276128220240413 0 0 0
1857 1 2 1.85204 0.8153282542942297 4.859187622862361 13.792683065970493 0 0 0
1858 1 2 1.85204 2.17599842364747 4.844609193466234 13.60607747539009 0 0 0
1860 1 2 1.85204 2.8680975791852434 6.130569087669253 13.645263682668672 0 0 0
1861 1 2 1.85204 5.006173831989704 4.932166617342882 13.410819816977291 0 0 0
1862 1 2 1.85204 6.42789492189283 4.929009060692204 13.262737437484889 0 0 0
1863 1 2 1.85204 4.285287654715501 6.15089783375602 13.554485902777326 0 0 0
1864 1 2 1.85204 7.128065902724516 6.17596956469576 13.29687789142475 0 0 0
1889 1 2 1.85204 0.7051963628418849 7.346607807072456 13.713565881239866 0 0 0
1890 1 2 1.85204 2.1209409829862613 7.336384882976555 13.648728390631968 0 0 0
1893 1 2 1.85204 5.0348371569127055 7.3363266567153325 13.441702255695184 0 0 0
1894 1 2 1.85204 6.443547413658165 7.399521949343089 13.323238734916622 0 0 0
5205 1 12 -1.85204 2.7483969250134046 1.2271980227234738 6.797212460018506 0 0 0
5208 1 12 -1.85204 4.205982052900682 1.2152115521857187 6.88378848883927 0 0 0
5209 1 12 -1.85204 7.044757761521441 1.226311118553778 6.7789778341680815 0 0 0
5234 1 12 -1.85204 0.6955287203589047 2.388498789016823 6.796773032951681 0 0 0
5235 1 12 -1.85204 2.0944425803426143 2.4497089213249175 6.737193924530823 0 0 0
5237 1 12 -1.85204 2.8031281794116465 3.6997146604359457 6.795660729916778 0 0 0
5238 1 12 -1.85204 4.96064626941074 2.491839721009994 6.820395633379042 0 0 0
5239 1 12 -1.85204 6.384114811138011 2.503748701636704 6.859043395773337 0 0 0
5240 1 12 -1.85204 4.246721268614535 3.6668675735135827 6.750618793974448 0 0 0
5241 1 12 -1.85204 7.054409398618775 3.777306074870155 6.845115741573274 0 0 0
5266 1 12 -1.85204 0.7028399853069787 4.966543489868039 6.775993734554363 0 0 0
5267 1 12 -1.85204 2.116198074833897 4.9325962619657275 6.8489168343315825 0 0 0
5269 1 12 -1.85204 2.8506244652033503 6.175137797096958 6.947079366514923 0 0 0
5270 1 12 -1.85204 4.892945619106995 4.930129746488364 6.7937250764995385 0 0 0
5271 1 12 -1.85204 6.311492417278238 4.915223804516625 6.809182740250592 0 0 0
5272 1 12 -1.85204 4.2455926271488025 6.177260022463094 6.78461678745533 0 0 0
5273 1 12 -1.85204 7.025402954088761 6.200571672407228 6.765736393317918 0 0 0
5298 1 12 -1.85204 0.7188748854000846 7.47097769782638 6.880177261348421 0 0 0
5299 1 12 -1.85204 2.154084658434241 7.487574449641905 6.862739700673976 0 0 0
5302 1 12 -1.85204 4.9614850245470805 7.401851670287516 6.686292856226403 0 0 0
5303 1 12 -1.85204 6.397483016816882 7.425803349234248 6.682545759357858 0 0 0
5652 1 12 -1.85204 1.5117539099217083 1.2329844980220386 10.239711489766826 0 0 0
5653 1 12 -1.85204 4.306421234059008 1.2982022360495313 10.267508162049365 0 0 0
5656 1 12 -1.85204 5.789148226718902 1.269757802742167 10.147735783872083 0 0 0
5682 1 12 -1.85204 2.153013821456833 2.4847345530401213 10.239087592751448 0 0 0
5683 1 12 -1.85204 3.574292655001781 2.505695668642059 10.262780241284506 0 0 0
5684 1 12 -1.85204 1.3758727868819336 3.719250438317456 10.231054183369098 0 0 0
5685 1 12 -1.85204 4.257859078922113 3.7671115835363853 10.255458514912648 0 0 0
5686 1 12 -1.85204 6.453136361120248 2.528273489439286 10.089356678462197 0 0 0
5687 1 12 -1.85204 7.887060079225172 2.5400923083653657 10.070663067659387 0 0 0
5688 1 12 -1.85204 5.6943356325532895 3.7357740619764606 10.162375769227529 0 0 0
5714 1 12 -1.85204 2.1087227556062262 4.9453700269816245 10.168228990264005 0 0 0
5715 1 12 -1.85204 3.5277956928089704 4.991288287758004 10.238678021300007 0 0 0
5716 1 12 -1.85204 1.4751598820037404 6.2118280124615595 10.110746705356714 0 0 0
5717 1 12 -1.85204 4.264306984943752 6.197250696661182 10.115127561171231 0 0 0
5718 1 12 -1.85204 6.394038331150503 4.934050002893861 10.136525578214183 0 0 0
5719 1 12 -1.85204 7.7970710607025335 4.9515499146093624 10.068051198533327 0 0 0
5720 1 12 -1.85204 5.682756947153879 6.181752218410015 10.205162771634106 0 0 0
5746 1 12 -1.85204 2.177418949068657 7.417687520670824 10.157094697401348 0 0 0
5747 1 12 -1.85204 3.5569166283144953 7.38600686345043 10.169933713518565 0 0 0
5750 1 12 -1.85204 6.360517253471534 7.403690334306342 10.123776123685824 0 0 0
5751 1 12 -1.85204 7.796604672943812 7.407123617835744 10.074745300648804 0 0 0
6101 1 12 -1.85204 2.9265812092022476 1.1991238797553176 13.742401206854474 0 0 0
6104 1 12 -1.85204 4.369027303647139 1.2005479802435997 13.611747683996041 0 0 0
6105 1 12 -1.85204 7.141486537308121 1.2282047632596884 13.462334149631653 0 0 0
6130 1 12 -1.85204 0.824294936415578 2.4070914341617473 13.903175592287667 0 0 0
6131 1 12 -1.85204 2.2501359395099443 2.4109405542697546 13.805232794954735 0 0 0
6133 1 12 -1.85204 2.9292728712522265 3.61903951297108 13.66746840799758 0 0 0
6134 1 12 -1.85204 5.0604762521933075 2.407219803030375 13.480516096533414 0 0 0
6135 1 12 -1.85204 6.486125577030805 2.4374640590961523 13.385519147830836 0 0 0
6136 1 12 -1.85204 4.371715761374064 3.704313076608667 13.502254045878301 0 0 0
6137 1 12 -1.85204 7.161219158249049 3.7070569830063675 13.279395457679819 0 0 0
6162 1 12 -1.85204 0.8138131327081427 4.8603874686807895 13.798935843551035 0 0 0
6163 1 12 -1.85204 2.1704003859556864 4.843158837646059 13.606697005713954 0 0 0
6165 1 12 -1.85204 2.863210569894528 6.129854032748117 13.647741540446413 0 0 0
6166 1 12 -1.85204 5.0079076810997 4.9280929529083775 13.408102844622537 0 0 0
6167 1 12 -1.85204 6.431944658537733 4.9285920887604915 13.263074367913392 0 0 0
6168 1 12 -1.85204 4.282090879404153 6.151092973706237 13.549578465255596 0 0 0
6169 1 12 -1.85204 7.1299562149467475 6.178490881380205 13.296570827434019 0 0 0
6194 1 12 -1.85204 0.7061427655535465 7.34650135385141 13.719202115406079 0 0 0
6195 1 12 -1.85204 2.1198260154610633 7.338676460081426 13.655591298892734 0 0 0
6198 1 12 -1.85204 5.036277195347356 7.336237211976917 13.436403056641899 0 0 0
6199 1 12 -1.85204 6.448156410030457 7.40508765083635 13.325228739528196 0 0 0
5301 1 12 -1.85204 2.930116697930984 8.613849122433933 6.830928879417254 0 0 0
996 1 2 1.85204 2.9252072045121635 8.617942256155658 6.83024339764576 0 0 0
6201 1 12 -1.85204 7.136141870555423 8.612913998274172 13.338192755321606 0 0 0
1896 1 2 1.85204 7.136235139979981 8.609345000579571 13.33434433134897 0 0 0
4753 255 11 0.13 5.614721406092448 16.268233077970685 16.24837954923012 0 1 0
6108 1 12 -1.85204 8.54817103127674 1.2173058752544512 13.447363323565266 0 0 0
1803 1 2 1.85204 8.5522766733002 1.213403330381179 13.443156619813003 0 0 0
5211 1 12 -1.85204 10.65016385258773 0.013647926832742378 6.776613974303232 0 0 0
3841 198 11 0.13 2.2333403653267863 6.7617837432985795 16.654094868751418 0 0 0
1424 1 2 1.85204 17.00301146298527 6.239991621869753 10.121519676469859 0 0 0
5752 1 12 -1.85204 5.7032071565873625 8.688301053172253 10.160993459300045 0 0 0
1447 1 2 1.85204 5.701640779734853 8.686337689537048 10.162622172546694 0 0 0
1444 1 2 1.85204 4.262188637571347 8.659835706329893 10.214835859924651 0 0 0
5749 1 12 -1.85204 4.261859693550179 8.659793963629513 10.213815412147062 0 0 0
3592 183 9 0.21 13.367486231350187 15.338975708395024 16.350140228501772 0 0 0
5729 1 12 -1.85204 17.004680262475457 6.241734008714883 10.122228332488586 0 0 0
5761 1 12 -1.85204 16.972678751736048 8.663855435416853 10.2104798862134 0 0 0
5207 1 12 -1.85204 6.334638845890807 0.0997124841898007 6.790057378013941 0 0 0
1349 1 2 1.85204 6.4178499751601725 0.031562938549513926 10.176004761904402 0 0 0
5659 1 12 -1.85204 12.099523550770403 0.08977288897442245 10.110729497605542 0 0 0
4735 254 11 0.13 10.224617427358272 11.501011345155833 16.194285944541996 1 1 0
1835 1 2 1.85204 8.550537430665978 3.6813109833162168 13.373518586109238 0 0 0
6140 1 12 -1.85204 8.550842444510582 3.6806990920778944 13.38314230496284 0 0 0
6172 1 12 -1.85204 8.576808436644935 6.163900338749469 13.379355741434427 0 0 0
1867 1 2 1.85204 8.574593414054691 6.162926999292036 13.376538560812424 0 0 0
1456 1 2 1.85204 16.972288326138116 8.665135349050422 10.210993781376121 0 0 0
901 1 2 1.85204 4.888020809507905 0.024669905995434498 6.832046550529687 0 0 0
6164 1 12 -1.85204 0.06175742966597353 6.06209590499156 13.78506849750468 0 0 0
5348 1 12 -1.85204 16.966050696273847 11.056729422254817 6.82272524449347 0 0 0
1859 1 2 1.85204 0.06300828020532025 6.063017621303048 13.781666950414232 0 0 0
5304 1 12 -1.85204 4.289964968493169 8.64960781189376 6.750838179940595 0 0 0
999 1 2 1.85204 4.290178183798847 8.648231010369734 6.753647603174019 0 0 0
1043 1 2 1.85204 16.96477633686996 11.054838903452051 6.822505661761916 0 0 0
6335 1 12 -1.85204 14.935448760409866 17.191125432670884 13.501778660968927 0 0 0
5332 1 12 -1.85204 0.008405197368762017 11.114283476748664 6.82411459014885 0 0 0
902 1 2 1.85204 6.335677787656027 0.09803578680639205 6.791121972730445 0 0 0
1354 1 2 1.85204 12.099335742388357 0.09057612021308889 10.110669552518702 0 0 0
1027 1 2 1.85204 0.009228744815195145 11.112289937100693 6.826151767019231 0 0 0
3665 187 11 0.13 14.031592765288972 1.4594069518913795 16.088042249028042 0 1 0
6326 1 12 -1.85204 5.024686645529551 17.169759864997946 13.729557660975509 0 0 0
3587 183 6 1.976039 14.418849215424983 15.34995526483891 16.596953266634014 0 0 0
7532 183 16 -2.086039 14.43365346763262 15.37029871768319 16.578251581626393 0 0 0
5713 1 12 -1.85204 0.04968436622480767 3.705804093265861 10.192155033943395 1 0 0
5873 1 12 -1.85204 0.01681232866010653 16.025461577157557 10.241414343627353 1 0 0
2018 1 2 1.85204 2.1842606372603055 17.17468171219454 13.709761213269294 0 0 0
1352 1 2 1.85204 8.497037718135864 1.243088659823962 10.212186352912326 0 0 0
5657 1 12 -1.85204 8.492430192144067 1.2392682312048213 10.214566827162688 0 0 0
5206 1 12 -1.85204 4.883955257937728 0.026312141016706234 6.831946975298529 0 0 0
5721 1 12 -1.85204 8.45372784611894 6.215949517121499 10.041207967627319 0 0 0
1416 1 2 1.85204 8.45768382123632 6.214498693908308 10.03936570454586 0 0 0
1384 1 2 1.85204 8.482925385800883 3.7818662129936076 10.021284038042984 0 0 0
5689 1 12 -1.85204 8.480460688452485 3.781898606456117 10.018811024238643 0 0 0
907 1 2 1.85204 8.496489375103826 1.2318141358681443 6.828893562721276 0 0 0
971 1 2 1.85204 8.45103359312076 6.1628825678054024 6.772346330199693 0 0 0
5276 1 12 -1.85204 8.448839040602419 6.162273062648188 6.77241874163687 0 0 0
5212 1 12 -1.85204 8.494923622943304 1.2336203195063242 6.826888666187962 0 0 0
939 1 2 1.85204 8.50288061404193 3.704080665577794 6.8156439253606695 0 0 0
5244 1 12 -1.85204 8.509141713152593 3.70545581038442 6.816150505131791 0 0 0
1408 1 2 1.85204 0.04847964995090144 3.7058772135661764 10.1933660635822 1 0 0
5793 1 12 -1.85204 17.026039472679706 11.173013298777958 10.205263274237335 0 0 0
6323 1 12 -1.85204 2.1839648460587924 17.17295485560722 13.70667937487803 0 0 0
9 1 1 0 9.23 0 0 0 0 0
10 1 1 0 10.65 0 0 0 0 0
11 1 1 0 8.52 1.23 0 0 0 0
12 1 1 0 11.36 1.23 0 0 0 0
13 1 1 0 13.49 0 0 0 0 0
14 1 1 0 14.91 0 0 0 0 0
15 1 1 0 12.78 1.23 0 0 0 0
16 1 1 0 15.62 1.23 0 0 0 0
41 1 1 0 9.23 2.46 0 0 0 0
42 1 1 0 10.65 2.46 0 0 0 0
43 1 1 0 8.52 3.689 0 0 0 0
44 1 1 0 11.36 3.689 0 0 0 0
45 1 1 0 13.49 2.46 0 0 0 0
46 1 1 0 14.91 2.46 0 0 0 0
47 1 1 0 12.78 3.689 0 0 0 0
48 1 1 0 15.62 3.689 0 0 0 0
73 1 1 0 9.23 4.919 0 0 0 0
74 1 1 0 10.65 4.919 0 0 0 0
75 1 1 0 8.52 6.149 0 0 0 0
76 1 1 0 11.36 6.149 0 0 0 0
77 1 1 0 13.49 4.919 0 0 0 0
78 1 1 0 14.91 4.919 0 0 0 0
79 1 1 0 12.78 6.149 0 0 0 0
80 1 1 0 15.62 6.149 0 0 0 0
105 1 1 0 9.23 7.379 0 0 0 0
106 1 1 0 10.65 7.379 0 0 0 0
107 1 1 0 8.52 8.608 0 0 0 0
108 1 1 0 11.36 8.608 0 0 0 0
109 1 1 0 13.49 7.379 0 0 0 0
110 1 1 0 14.91 7.379 0 0 0 0
111 1 1 0 12.78 8.608 0 0 0 0
112 1 1 0 15.62 8.608 0 0 0 0
456 1 1 0 8.52 1.23 3.35 0 0 0
457 1 1 0 10.65 0 3.35 0 0 0
458 1 1 0 12.07 0 3.35 0 0 0
459 1 1 0 9.94 1.23 3.35 0 0 0
460 1 1 0 12.78 1.23 3.35 0 0 0
461 1 1 0 14.91 0 3.35 0 0 0
462 1 1 0 16.33 0 3.35 0 0 0
463 1 1 0 14.2 1.23 3.35 0 0 0
488 1 1 0 8.52 3.689 3.35 0 0 0
489 1 1 0 10.65 2.46 3.35 0 0 0
490 1 1 0 12.07 2.46 3.35 0 0 0
491 1 1 0 9.94 3.689 3.35 0 0 0
492 1 1 0 12.78 3.689 3.35 0 0 0
493 1 1 0 14.91 2.46 3.35 0 0 0
494 1 1 0 16.33 2.46 3.35 0 0 0
495 1 1 0 14.2 3.689 3.35 0 0 0
520 1 1 0 8.52 6.149 3.35 0 0 0
521 1 1 0 10.65 4.919 3.35 0 0 0
522 1 1 0 12.07 4.919 3.35 0 0 0
523 1 1 0 9.94 6.149 3.35 0 0 0
524 1 1 0 12.78 6.149 3.35 0 0 0
525 1 1 0 14.91 4.919 3.35 0 0 0
526 1 1 0 16.33 4.919 3.35 0 0 0
527 1 1 0 14.2 6.149 3.35 0 0 0
552 1 1 0 8.52 8.608 3.35 0 0 0
553 1 1 0 10.65 7.379 3.35 0 0 0
554 1 1 0 12.07 7.379 3.35 0 0 0
555 1 1 0 9.94 8.608 3.35 0 0 0
556 1 1 0 12.78 8.608 3.35 0 0 0
557 1 1 0 14.91 7.379 3.35 0 0 0
558 1 1 0 16.33 7.379 3.35 0 0 0
559 1 1 0 14.2 8.608 3.35 0 0 0
908 1 2 1.85204 11.319683660125712 1.2309323879423828 6.779192739151411 0 0 0
911 1 2 1.85204 12.748410836509766 1.2089994089203446 6.823714485641318 0 0 0
912 1 2 1.85204 15.52977398643261 1.246214219467169 6.7865231471988094 0 0 0
937 1 2 1.85204 9.175981573455612 2.4934757307572726 6.825462400382975 0 0 0
938 1 2 1.85204 10.611406674642854 2.479922627269726 6.85233471371158 0 0 0
940 1 2 1.85204 11.26109089017688 3.7099243833673095 6.820951168561307 0 0 0
941 1 2 1.85204 13.414024324046403 2.4955091950728145 6.87204289551336 0 0 0
942 1 2 1.85204 14.807376500166772 2.4408628100981926 6.774341229723037 0 0 0
943 1 2 1.85204 12.7096203669597 3.720844115219645 6.908234506181111 0 0 0
944 1 2 1.85204 15.555439752496602 3.627091904245095 6.849315582223846 0 0 0
969 1 2 1.85204 9.128854949529062 4.92313434302099 6.752752821711363 0 0 0
970 1 2 1.85204 10.559291327721587 4.967158921447881 6.674703937109706 0 0 0
972 1 2 1.85204 11.36617651641436 6.157631204175153 6.7931988897086235 0 0 0
973 1 2 1.85204 13.45672077336234 4.901534611150877 6.807597459304782 0 0 0
974 1 2 1.85204 14.853782028845481 4.921948842490705 6.9093160855586895 0 0 0
975 1 2 1.85204 12.779668574193781 6.150329916823546 6.789858657237806 0 0 0
976 1 2 1.85204 15.565231839562651 6.140225515463188 6.909678290434702 0 0 0
1001 1 2 1.85204 9.1924825263575 7.36591884711843 6.775594559683746 0 0 0
1002 1 2 1.85204 10.640397404969647 7.371037009802431 6.7540346741220185 0 0 0
1005 1 2 1.85204 13.471943246512339 7.3518093464032015 6.805268450039507 0 0 0
1006 1 2 1.85204 14.907627512976255 7.385277968641651 6.947701811649813 0 0 0
1355 1 2 1.85204 9.928211443766406 1.241903882468702 10.153785856174874 0 0 0
1356 1 2 1.85204 12.78648413103154 1.3206550393245573 10.14112558403118 0 0 0
1359 1 2 1.85204 14.21164087896244 1.344688174578435 10.076548523090928 0 0 0
1385 1 2 1.85204 10.622914356564406 2.5187791399266892 10.025074537014529 0 0 0
1386 1 2 1.85204 12.058883281528459 2.528627964401288 10.10944107124175 0 0 0
1387 1 2 1.85204 9.915014760093234 3.7582010594277597 9.956120046478937 0 0 0
1388 1 2 1.85204 12.7630930632828 3.795500222295869 10.07688919530569 0 0 0
1389 1 2 1.85204 14.944153101901026 2.569377852514507 10.072228361086026 0 0 0
1390 1 2 1.85204 16.39303945079435 2.4928897413175046 10.108367958052455 0 0 0
1391 1 2 1.85204 14.201645123968996 3.7896746158984334 10.048448896394094 0 0 0
1417 1 2 1.85204 10.603778134395 5.050460866970949 9.95661189046007 0 0 0
1418 1 2 1.85204 12.043889159673775 5.037436154870429 10.042366186686914 0 0 0
1419 1 2 1.85204 9.897196821387293 6.254058974745107 9.918938325991682 0 0 0
1420 1 2 1.85204 12.772308381495689 6.215310625428299 10.08698953421839 0 0 0
1421 1 2 1.85204 14.852762722026556 5.015968603188783 10.123569999845428 0 0 0
1422 1 2 1.85204 16.305156975360553 4.9577064413060095 10.089545255372807 0 0 0
1423 1 2 1.85204 14.120548784478077 6.273187473865069 10.189354110091362 0 0 0
1449 1 2 1.85204 10.632560236712823 7.438922598668511 9.987415100554388 0 0 0
1450 1 2 1.85204 12.024584483417387 7.47331349977111 10.080697903975354 0 0 0
1453 1 2 1.85204 14.862384636462078 7.476779100829026 10.240790386252296 0 0 0
1454 1 2 1.85204 16.262554962590634 7.4609346775345475 10.197465249942567 0 0 0
1804 1 2 1.85204 11.369953664744505 1.187028276391045 13.490780220314855 0 0 0
1807 1 2 1.85204 12.793976583824104 1.0892331929072514 13.410864713955839 0 0 0
1808 1 2 1.85204 15.65862372859771 1.1367065556086287 13.524240362566122 0 0 0
1833 1 2 1.85204 9.262814585973443 2.4455676860958917 13.394035212560947 0 0 0
1834 1 2 1.85204 10.64392812967008 2.425246058222224 13.464079941503526 0 0 0
1836 1 2 1.85204 11.421715056695614 3.624217876079011 13.49279857696942 0 0 0
1837 1 2 1.85204 13.545110464871712 2.2886706212435572 13.47909297452792 0 0 0
1838 1 2 1.85204 14.94851887820567 2.337237120141014 13.525676061344752 0 0 0
1839 1 2 1.85204 12.888599364903527 3.61804264961829 13.506696862890504 0 0 0
1840 1 2 1.85204 15.650465841743202 3.5859929710576925 13.555659622139842 0 0 0
1865 1 2 1.85204 9.219560240591333 4.8751348108106685 13.375362342358304 0 0 0
1866 1 2 1.85204 10.685654583558787 4.828138010801543 13.521066611923827 0 0 0
1868 1 2 1.85204 11.396947931009922 6.096835953992185 13.487719756148184 0 0 0
1869 1 2 1.85204 13.546682874844032 4.8702537491945606 13.533028639283915 0 0 0
1870 1 2 1.85204 14.920923788427094 4.800957558403327 13.542020157493617 0 0 0
1871 1 2 1.85204 12.809535895274507 6.0638031633788865 13.55573632072905 0 0 0
1872 1 2 1.85204 15.693771191706833 6.068463768440215 13.57528090023097 0 0 0
1897 1 2 1.85204 9.268914516366058 7.422710117434318 13.486332043133803 0 0 0
1898 1 2 1.85204 10.666298851231021 7.348571729283855 13.501359985728984 0 0 0
1901 1 2 1.85204 13.487226702626874 7.327045329669306 13.524777310230439 0 0 0
1902 1 2 1.85204 14.959249764419836 7.284156664011906 13.524118884140115 0 0 0
5213 1 12 -1.85204 11.31908799974325 1.2293944193661355 6.775813303032151 0 0 0
5216 1 12 -1.85204 12.750817186527932 1.2098571635470887 6.822166861196991 0 0 0
5217 1 12 -1.85204 15.527616599718183 1.245985859211286 6.782562607817654 0 0 0
5242 1 12 -1.85204 9.172050907764065 2.492679533669822 6.824588862179386 0 0 0
5243 1 12 -1.85204 10.612335252306371 2.4788311783397172 6.84964815571811 0 0 0
5245 1 12 -1.85204 11.257725371310292 3.707818909049856 6.819961469134506 0 0 0
5246 1 12 -1.85204 13.416651000627864 2.5003981278038285 6.871633867214546 0 0 0
5247 1 12 -1.85204 14.808663106859385 2.4392875543169814 6.770683480106162 0 0 0
5248 1 12 -1.85204 12.70728281413017 3.7211382265069464 6.908361480122533 0 0 0
5249 1 12 -1.85204 15.556821153214806 3.622803327410902 6.846435642667524 0 0 0
5274 1 12 -1.85204 9.12803944146761 4.925248084324779 6.749775915946824 0 0 0
5275 1 12 -1.85204 10.559275162400558 4.969044014728675 6.6702333535558855 0 0 0
5277 1 12 -1.85204 11.369466413268352 6.157916104800935 6.793582475476995 0 0 0
5278 1 12 -1.85204 13.455280953324213 4.901146652308991 6.802769965894526 0 0 0
5279 1 12 -1.85204 14.849663313065177 4.920889611430268 6.909887117850575 0 0 0
5280 1 12 -1.85204 12.780347782731726 6.153041909566328 6.7888960658028905 0 0 0
5281 1 12 -1.85204 15.564354277398888 6.136772053131678 6.906935833645991 0 0 0
5306 1 12 -1.85204 9.190770661361148 7.365172583361465 6.775474515523521 0 0 0
5307 1 12 -1.85204 10.639734597670758 7.369882846395214 6.751929729002425 0 0 0
5310 1 12 -1.85204 13.469935889676007 7.353346822546992 6.803505118650702 0 0 0
5311 1 12 -1.85204 14.909697867246226 7.386897127332314 6.948575873685212 0 0 0
5660 1 12 -1.85204 9.928520808891266 1.2431524790868151 10.154541390847198 0 0 0
5661 1 12 -1.85204 12.785507840159353 1.3207210174862665 10.139455890109824 0 0 0
5664 1 12 -1.85204 14.211023130414647 1.347092212421265 10.07560823518522 0 0 0
5690 1 12 -1.85204 10.623647261808975 2.520513880146363 10.02395541903043 0 0 0
5691 1 12 -1.85204 12.060780944939902 2.5267335145207728 10.11067128038127 0 0 0
5692 1 12 -1.85204 9.91428099016 3.7557134938049885 9.9559847617473 0 0 0
5693 1 12 -1.85204 12.76293167287031 3.796512547739609 10.07868173981445 0 0 0
5694 1 12 -1.85204 14.945127013315268 2.5730304245766504 10.07239169859405 0 0 0
5695 1 12 -1.85204 16.39548769646972 2.49064211399885 10.11006777057528 0 0 0
5696 1 12 -1.85204 14.202859160016972 3.790836005527673 10.046840931657139 0 0 0
5722 1 12 -1.85204 10.602178513719108 5.052967507428657 9.956949253474088 0 0 0
5723 1 12 -1.85204 12.042421110727211 5.0381126478434854 10.041292143411324 0 0 0
5724 1 12 -1.85204 9.896880008228104 6.256750574766163 9.916788309048444 0 0 0
5725 1 12 -1.85204 12.773453223411918 6.213102667999026 10.086729035829956 0 0 0
5726 1 12 -1.85204 14.851587806021268 5.015456644857663 10.12314729719623 0 0 0
5727 1 12 -1.85204 16.30475828226422 4.958048072865637 10.090666413817567 0 0 0
5728 1 12 -1.85204 14.118593634751596 6.276840257347481 10.189914389469761 0 0 0
5754 1 12 -1.85204 10.631249200821651 7.43844164551987 9.985988275287589 0 0 0
5755 1 12 -1.85204 12.021586640313275 7.472422975755185 10.080573594530952 0 0 0
5758 1 12 -1.85204 14.863298859228182 7.476515015766415 10.241869041403596 0 0 0
5759 1 12 -1.85204 16.263724361542536 7.462572845262767 10.196920454370039 0 0 0
6109 1 12 -1.85204 11.37363283225218 1.1912307902157693 13.493085982399867 0 0 0
6112 1 12 -1.85204 12.800428166195987 1.0861465892565196 13.414401175462165 0 0 0
6113 1 12 -1.85204 15.655820328275105 1.13907551870327 13.530818101504448 0 0 0