
    -----------------------------------------------------------------------
          Psi4: An Open-Source Ab Initio Electronic Structure Package
                               Psi4 1.9 release

                         Git: Rev {} zzzzzzz 


    D. G. A. Smith, L. A. Burns, A. C. Simmonett, R. M. Parrish,
    M. C. Schieber, R. Galvelis, P. Kraus, H. Kruse, R. Di Remigio,
    A. Alenaizan, A. M. James, S. Lehtola, J. P. Misiewicz, M. Scheurer,
    R. A. Shaw, J. B. Schriber, Y. Xie, Z. L. Glick, D. A. Sirianni,
    J. S. O'Brien, J. M. Waldrop, A. Kumar, E. G. Hohenstein,
    B. P. Pritchard, B. R. Brooks, H. F. Schaefer III, A. Yu. Sokolov,
    K. Patkowski, A. E. DePrince III, U. Bozkaya, R. A. King,
    F. A. Evangelista, J. M. Turney, T. D. Crawford, C. D. Sherrill,
    J. Chem. Phys. 152(18) 184108 (2020). https://doi.org/10.1063/5.0006002

                            Additional Code Authors
    E. T. Seidl, C. L. Janssen, E. F. Valeev, M. L. Leininger,
    J. F. Gonthier, R. M. Richard, H. R. McAlexander, M. Saitow, X. Wang,
    P. Verma, M. H. Lechner, A. Jiang, S. Behnle, A. G. Heide,
    M. F. Herbst, and D. L. Poole

             Previous Authors, Complete List of Code Contributors,
                       and Citations for Specific Modules
    https://github.com/psi4/psi4/blob/master/codemeta.json
    https://github.com/psi4/psi4/graphs/contributors
    http://psicode.org/psi4manual/master/introduction.html#citing-psifour

    -----------------------------------------------------------------------


    Psi4 started on: Monday, 22 January 2024 12:00PM

    Process ID: 2404481
    Host:       d-16-12-3
    PSIDATADIR: /home/gridsan/tfroembgen/.conda/envs/psi4test/share/psi4
    Memory:     500.0 MiB
    Threads:    12
    
  ==> Input File <==

--------------------------------------------------------------------------
memory 32 GB # how much memory is available ! Depends on the nodes/cores !

molecule dimer {
# monomer A
-1 1    # Charge and multiplicity
B -0.000046  0.000337 5.799994
F -1.153597  0.000048 6.615641
F  1.153661 -0.000581 6.615641
F -0.000019 -1.153637 4.984360
F -0.000019  1.153978 4.984360
--
# monomer B
0 1     # Charge and multiplicity
C   1.22531237526482      0.70753866091955      0.00613762728373
C   1.22532433589282     -0.70753852257020     -0.00619318228664
C   -0.00000567409046      1.41496628609039     -0.00672680580738
C   2.45644923379077      1.41832825917820      0.00902448468363
C   0.00001130712078     -1.41497612663474      0.00347275151708
C   -1.22530046906674      0.70754574598412      0.00838914760619
C   2.45643823516184     -1.41832293188077     -0.00843833914343
C   -0.00000085313587      2.83680140328112     -0.00913035594137
C   3.68182717731192      0.70931832800114     -0.00808954934571
C   2.45512052870677      2.83422403348893     -0.00819210630633
C   3.68182158506039     -0.70933346742900      0.00798293467272
C   -1.22531311884624     -0.70752714354401     -0.00512042085974
C   1.22670006104402      3.54346985599427      0.00816696660346
C   0.00000526469929     -2.83678176723568      0.00832091913869
C   -2.45643555300670      1.41831729028492      0.00842454345199
C   2.45512389762097     -2.83422965658853      0.00783102630520
C   -1.22671388474763      3.54346943575023      0.00827029982280
C   4.91451777504333      1.42717324448953     -0.00160886631602
C   3.69315067131765      3.54279566454522     -0.00155906667985
C   -2.45643712022637     -1.41831290883911     -0.00846337726810
C   1.22670532178455     -3.54347386990643     -0.00780316414624
C   -2.45512491866593      2.83421703463423     -0.00818572995999
C   4.91452486062398     -1.42718653794377      0.00136387641845
C   1.22142509354026      4.97013443726031      0.00150231067809
C   4.89300870916237      2.82518837202648     -0.00039219795739
C   -1.22669652864725     -3.54347062507680     -0.00753595973677
C   -3.68181849668397      0.70932533873199     -0.00807686886569
C   3.69314758099218     -3.54280096939050      0.00148176697923
C   -1.22143177215231      4.97012866986289      0.00168580605083
C   6.13477145276790      0.68054831910577     -0.00083909176631
C   3.65678936045204      4.97295361556775     -0.00065042889723
C   -2.45512642789169     -2.83421472106065      0.00758666850712
C   -3.68181869921921     -0.70932533146830      0.00810055625144
C   4.89301309775526     -2.82519973363176      0.00021895393805
C   -0.00000059327114      5.65044773803267      0.00045449734393
C   6.13477559217374     -0.68055448207492      0.00042622874941
C   2.47813196269732      5.65357712333155      0.00063835075260
C   1.22142288457925     -4.97012668293268     -0.00129718634452
C   -3.69316190412301      3.54279732619245     -0.00139355922051
C   -1.22142804110313     -4.97011793159564     -0.00140994817719
C   -4.91452132810043      1.42717581899491     -0.00153192130862
C   3.65678749952045     -4.97295485423912      0.00080007163680
C   -2.47813805026426      5.65357479452875      0.00092287576113
C   -3.69314125872231     -3.54278984697859      0.00136564082345
C   -4.91451200321153     -1.42718062802730      0.00139857359209
C   -0.00000552908399     -5.65043791501335      0.00005899322272
C   -4.89302000425900      2.82518897091939     -0.00040227981744
C   2.47812647313991     -5.65357317188818     -0.00029052915548
C   -3.65679823041642      4.97295655404175     -0.00047374852278
C   -4.89299899901461     -2.82519139505969      0.00006491824035
C   -2.47812801824129     -5.65356579800621     -0.00056571680280
C   -6.13477002348955      0.68054913825639     -0.00086464346868
C   -3.65678835334731     -4.97294365097028      0.00058578382008
C   -6.13476456307132     -0.68055354348201      0.00040575295444
H   5.83528897565761      3.36927626695423      0.00396712770529
H   7.07385965258860      1.22821762089947     -0.00037744837300
H   4.60066374401555      5.51238117445323     -0.00014522814529
H   5.83528386714679     -3.36930568472863     -0.00423551337640
H   -0.00001167146422      6.73853104613662     -0.00389474766392
H   7.07386165167227     -1.22822657074368     -0.00008250934481
H   2.47331421164041      6.74068466339473      0.00017162982210
H   4.60066897122302     -5.51237575717576      0.00039007446835
H   -2.47331820069565      6.74068209160650      0.00047297644710
H   -0.00000978838621     -6.73852780445195      0.00458867820736
H   -5.83530143450167      3.36927132229595      0.00410314985360
H   2.47330840367253     -6.74068500242887      0.00027980126949
H   -4.60067436136587      5.51237839860371      0.00002010017831
H   -5.83527902699321     -3.36928859177951     -0.00451481925734
H   -2.47329986759855     -6.74067870613986     -0.00016951527498
H   -7.07385728692578      1.22822084484047     -0.00046143985387
H   -4.60067330624313     -5.51236229778631      0.00021776644566
H   -7.07385645456741     -1.22822025997701     -0.00017736581114

    units angstrom      # Angstroms are the default
    no_reorient         # Geometry fixed, default
    symmetry c1         # C1 symmetry, default
}

set {
    scf_type DF         # Density fitting, faster than exact integrals
    freeze_core True    # Freeze core electrons
    basis jun-cc-pVDZ   # Jun-cc-pVDZ basis set, recommended for sSAPT0 in https://doi.org/10.1063/1.4867135
}

energy('ssapt0')        # Compute sSAPT0 energy, includes also SAPT0
--------------------------------------------------------------------------

  Memory set to  29.802 GiB by Python driver.

Scratch directory: /state/partition1/slurm_tmp/24792928.4294967291.0/
   => Loading Basis Set <=

    Name: JUN-CC-PVDZ
    Role: ORBITAL
    Keyword: BASIS
    atoms 1     entry B          line   130 file /home/gridsan/tfroembgen/.conda/envs/psi4test/share/psi4/basis/jun-cc-pvdz.gbs 
    atoms 2-5   entry F          line   266 file /home/gridsan/tfroembgen/.conda/envs/psi4test/share/psi4/basis/jun-cc-pvdz.gbs 
    atoms 6-59  entry C          line   164 file /home/gridsan/tfroembgen/.conda/envs/psi4test/share/psi4/basis/jun-cc-pvdz.gbs 
    atoms 60-77 entry H          line    36 file /home/gridsan/tfroembgen/.conda/envs/psi4test/share/psi4/basis/jun-cc-pvdz.gbs 

   => Loading Basis Set <=

    Name: JUN-CC-PVDZ
    Role: ORBITAL
    Keyword: BASIS
    atoms 1     entry B          line   130 file /home/gridsan/tfroembgen/.conda/envs/psi4test/share/psi4/basis/jun-cc-pvdz.gbs 
    atoms 2-5   entry F          line   266 file /home/gridsan/tfroembgen/.conda/envs/psi4test/share/psi4/basis/jun-cc-pvdz.gbs 
    atoms 6-59  entry C          line   164 file /home/gridsan/tfroembgen/.conda/envs/psi4test/share/psi4/basis/jun-cc-pvdz.gbs 
    atoms 60-77 entry H          line    36 file /home/gridsan/tfroembgen/.conda/envs/psi4test/share/psi4/basis/jun-cc-pvdz.gbs 


  //>>>>>>>>>>>>>>>>>>>>>>>>>>>>>>>>>>>//
  //              Dimer HF             //
  //<<<<<<<<<<<<<<<<<<<<<<<<<<<<<<<<<<<//

   => Libint2 <=

    Primary   basis highest AM E, G, H:  7, 7, 4
    Auxiliary basis highest AM E, G, H:  7, 7, 5
    Onebody   basis highest AM E, G, H:  7, 7, 5
    Solid Harmonics ordering:            gaussian

*** tstart() called on d-16-12-3
*** at Mon Jan 22 12:00:20 2024

   => Loading Basis Set <=

    Name: JUN-CC-PVDZ
    Role: ORBITAL
    Keyword: BASIS
    atoms 1     entry B          line   130 file /home/gridsan/tfroembgen/.conda/envs/psi4test/share/psi4/basis/jun-cc-pvdz.gbs 
    atoms 2-5   entry F          line   266 file /home/gridsan/tfroembgen/.conda/envs/psi4test/share/psi4/basis/jun-cc-pvdz.gbs 
    atoms 6-59  entry C          line   164 file /home/gridsan/tfroembgen/.conda/envs/psi4test/share/psi4/basis/jun-cc-pvdz.gbs 
    atoms 60-77 entry H          line    36 file /home/gridsan/tfroembgen/.conda/envs/psi4test/share/psi4/basis/jun-cc-pvdz.gbs 


         ---------------------------------------------------------
                                   SCF
               by Justin Turney, Rob Parrish, Andy Simmonett
                          and Daniel G. A. Smith
                              RHF Reference
                       12 Threads,  30517 MiB Core
         ---------------------------------------------------------

  ==> Geometry <==

    Molecular point group: c1
    Full point group: C1

    Geometry (in Angstrom), charge = -1, multiplicity = 1:

       Center              X                  Y                   Z               Mass       
    ------------   -----------------  -----------------  -----------------  -----------------
         B           -0.000046449334     0.000336519434     5.129982192489    11.009305360000
         F           -1.153597449334     0.000047519434     5.945629192489    18.998403162730
         F            1.153660550666    -0.000581480566     5.945629192489    18.998403162730
         F           -0.000019449334    -1.153637480566     4.314348192489    18.998403162730
         F           -0.000019449334     1.153977519434     4.314348192489    18.998403162730
         C            1.225311925931     0.707538180353    -0.663874180227    12.000000000000
         C            1.225323886559    -0.707539003137    -0.676204989797    12.000000000000
         C           -0.000006123424     1.414965805524    -0.676738613318    12.000000000000
         C            2.456448784457     1.418327778612    -0.660987322827    12.000000000000
         C            0.000010857787    -1.414976607201    -0.666539055994    12.000000000000
         C           -1.225300918401     0.707545265418    -0.661622659904    12.000000000000
         C            2.456437785828    -1.418323412447    -0.678450146654    12.000000000000
         C           -0.000001302470     2.836800922715    -0.679142163452    12.000000000000
         C            3.681826727978     0.709317847435    -0.678101356856    12.000000000000
         C            2.455120079373     2.834223552923    -0.678203913817    12.000000000000
         C            3.681821135726    -0.709333947995    -0.662028872838    12.000000000000
         C           -1.225313568180    -0.707527624110    -0.675132228370    12.000000000000
         C            1.226699611710     3.543469375428    -0.661844840907    12.000000000000
         C            0.000004815365    -2.836782247802    -0.661690888372    12.000000000000
         C           -2.456436002341     1.418316809719    -0.661587264059    12.000000000000
         C            2.455123448287    -2.834230137155    -0.662180781205    12.000000000000
         C           -1.226714334082     3.543468955184    -0.661741507688    12.000000000000
         C            4.914517325709     1.427172763923    -0.671620673827    12.000000000000
         C            3.693150221984     3.542795183979    -0.671570874190    12.000000000000
         C           -2.456437569560    -1.418313389406    -0.678475184779    12.000000000000
         C            1.226704872451    -3.543474350473    -0.677814971657    12.000000000000
         C           -2.455125368000     2.834216554068    -0.678197537471    12.000000000000
         C            4.914524411290    -1.427187018510    -0.668647931092    12.000000000000
         C            1.221424644206     4.970133956694    -0.668509496833    12.000000000000
         C            4.893008259828     2.825187891460    -0.670404005468    12.000000000000
         C           -1.226696977981    -3.543471105643    -0.677547767247    12.000000000000
         C           -3.681818946018     0.709324858166    -0.678088676376    12.000000000000
         C            3.693147131658    -3.542801449957    -0.668530040531    12.000000000000
         C           -1.221432221486     4.970128189296    -0.668326001460    12.000000000000
         C            6.134771003434     0.680547838539    -0.670850899277    12.000000000000
         C            3.656788911118     4.972953135001    -0.670662236408    12.000000000000
         C           -2.455126877226    -2.834215201627    -0.662425139004    12.000000000000
         C           -3.681819148553    -0.709325812035    -0.661911251259    12.000000000000
         C            4.893012648421    -2.825200214198    -0.669792853573    12.000000000000
         C           -0.000001042605     5.650447257466    -0.669557310167    12.000000000000
         C            6.134775142840    -0.680554962641    -0.669585578761    12.000000000000
         C            2.478131513363     5.653576642765    -0.669373456758    12.000000000000
         C            1.221422435245    -4.970127163499    -0.671308993855    12.000000000000
         C           -3.693162353457     3.542796845626    -0.671405366731    12.000000000000
         C           -1.221428490437    -4.970118412162    -0.671421755688    12.000000000000
         C           -4.914521777434     1.427175338429    -0.671543728819    12.000000000000
         C            3.656787050187    -4.972955334806    -0.669211735874    12.000000000000
         C           -2.478138499598     5.653574313962    -0.669088931750    12.000000000000
         C           -3.693141708056    -3.542790327545    -0.668646166687    12.000000000000
         C           -4.914512452545    -1.427181108594    -0.668613233919    12.000000000000
         C           -0.000005978418    -5.650438395580    -0.669952814288    12.000000000000
         C           -4.893020453593     2.825188490353    -0.670414087328    12.000000000000
         C            2.478126023806    -5.653573652455    -0.670302336666    12.000000000000
         C           -3.656798679750     4.972956073475    -0.670485556033    12.000000000000
         C           -4.892999448349    -2.825191875626    -0.669946889270    12.000000000000
         C           -2.478128467575    -5.653566278573    -0.670577524313    12.000000000000
         C           -6.134770472823     0.680548657690    -0.670876450979    12.000000000000
         C           -3.656788802681    -4.972944131537    -0.669426023691    12.000000000000
         C           -6.134765012405    -0.680554024048    -0.669606054556    12.000000000000
         H            5.835288526324     3.369275786388    -0.666044679805     1.007825032230
         H            7.073859203255     1.228217140333    -0.670389255884     1.007825032230
         H            4.600663294682     5.512380693887    -0.670157035656     1.007825032230
         H            5.835283417813    -3.369306165295    -0.674247320887     1.007825032230
         H           -0.000012120798     6.738530565570    -0.673906555175     1.007825032230
         H            7.073861202338    -1.228227051310    -0.670094316855     1.007825032230
         H            2.473313762307     6.740684182828    -0.669840177689     1.007825032230
         H            4.600668521889    -5.512376237742    -0.669621733042     1.007825032230
         H           -2.473318650030     6.740681611040    -0.669538831064     1.007825032230
         H           -0.000010237720    -6.738528285018    -0.665423129303     1.007825032230
         H           -5.835301883836     3.369270841730    -0.665908657657     1.007825032230
         H            2.473307954339    -6.740685482995    -0.669732006241     1.007825032230
         H           -4.600674810700     5.512377918037    -0.669991707332     1.007825032230
         H           -5.835279476327    -3.369289072346    -0.674526626768     1.007825032230
         H           -2.473300316932    -6.740679186706    -0.670181322786     1.007825032230
         H           -7.073857736260     1.228220364274    -0.670473247365     1.007825032230
         H           -4.600673755577    -5.512362778353    -0.669794041065     1.007825032230
         H           -7.073856903901    -1.228220740543    -0.670189173322     1.007825032230

  Running in c1 symmetry.

  Rotational constants: A =      0.00164  B =      0.00164  C =      0.00110 [cm^-1]
  Rotational constants: A =     49.11031  B =     49.10455  C =     33.02250 [MHz]
  Nuclear repulsion = 7635.068060154580962

  Charge       = -1
  Multiplicity = 1
  Electrons    = 384
  Nalpha       = 192
  Nbeta        = 192

  ==> Algorithm <==

  SCF Algorithm Type is DF.
  DIIS enabled.
  MOM disabled.
  Fractional occupation disabled.
  Guess Type is SAD.
  Energy threshold   = 1.00e-08
  Density threshold  = 1.00e-08
  Integral threshold = 1.00e-12

  ==> Primary Basis <==

  Basis Set: JUN-CC-PVDZ
    Blend: JUN-CC-PVDZ
    Number of shells: 526
    Number of basis functions: 1152
    Number of Cartesian functions: 1211
    Spherical Harmonics?: true
    Max angular momentum: 2

   => Loading Basis Set <=

    Name: (JUN-CC-PVDZ AUX)
    Role: JKFIT
    Keyword: DF_BASIS_SCF
    atoms 1     entry B          line    90 file /home/gridsan/tfroembgen/.conda/envs/psi4test/share/psi4/basis/jun-cc-pvdz-jkfit.gbs 
    atoms 2-5   entry F          line   314 file /home/gridsan/tfroembgen/.conda/envs/psi4test/share/psi4/basis/jun-cc-pvdz-jkfit.gbs 
    atoms 6-59  entry C          line   146 file /home/gridsan/tfroembgen/.conda/envs/psi4test/share/psi4/basis/jun-cc-pvdz-jkfit.gbs 
    atoms 60-77 entry H          line    70 file /home/gridsan/tfroembgen/.conda/envs/psi4test/share/psi4/basis/jun-cc-pvdz-jkfit.gbs 

  ==> Integral Setup <==

  ==> DiskDFJK: Density-Fitted J/K Matrices <==

    J tasked:                  Yes
    K tasked:                  Yes
    wK tasked:                  No
    OpenMP threads:             12
    Integrals threads:          12
    Memory [MiB]:            22888
    Algorithm:                Core
    Integral Cache:           SAVE
    Schwarz Cutoff:          1E-12
    Fitting Condition:       1E-10

   => Auxiliary Basis Set <=

  Basis Set: (JUN-CC-PVDZ AUX)
    Blend: JUN-CC-PVDZ-JKFIT
    Number of shells: 1755
    Number of basis functions: 5075
    Number of Cartesian functions: 5819
    Spherical Harmonics?: true
    Max angular momentum: 3

  Minimum eigenvalue in the overlap matrix is 8.3460365134E-10.
  Reciprocal condition number of the overlap matrix is 3.7116765925E-11.
    Using canonical orthogonalization.
  Overall, 14 of 1152 possible MOs eliminated.


  ==> Pre-Iterations <==

  SCF Guess: Superposition of Atomic Densities via on-the-fly atomic UHF (no occupation information).

   -------------------------
    Irrep   Nso     Nmo    
   -------------------------
     A       1152    1138 
   -------------------------
    Total    1152    1138
   -------------------------

  ==> Iterations <==

                           Total Energy        Delta E     RMS |[F,P]|

   @DF-RHF iter SAD: -2483.26363407030976   -2.48326e+03   0.00000e+00 
   @DF-RHF iter   1: -2477.61723427290462    5.64640e+00   1.10124e-03 ADIIS/DIIS
   @DF-RHF iter   2: -2478.50792474274931   -8.90690e-01   4.78777e-04 ADIIS/DIIS
   @DF-RHF iter   3: -2478.64217335044214   -1.34249e-01   1.33026e-04 ADIIS/DIIS
   @DF-RHF iter   4: -2478.65545955155494   -1.32862e-02   5.54993e-05 DIIS
   @DF-RHF iter   5: -2478.65802160811108   -2.56206e-03   1.63799e-05 DIIS
   @DF-RHF iter   6: -2478.65831332806511   -2.91720e-04   5.39258e-06 DIIS
   @DF-RHF iter   7: -2478.65839460182724   -8.12738e-05   2.65366e-06 DIIS
   @DF-RHF iter   8: -2478.65841703218621   -2.24304e-05   1.21425e-06 DIIS
   @DF-RHF iter   9: -2478.65842368261019   -6.65042e-06   2.52179e-07 DIIS
   @DF-RHF iter  10: -2478.65842390519492   -2.22585e-07   8.92700e-08 DIIS
   @DF-RHF iter  11: -2478.65842392201466   -1.68197e-08   3.48089e-08 DIIS
   @DF-RHF iter  12: -2478.65842392552895   -3.51429e-09   1.26279e-08 DIIS
   @DF-RHF iter  13: -2478.65842392597597   -4.47017e-10   5.43797e-09 DIIS
  Energy and wave function converged.


  ==> Post-Iterations <==

    Orbital Energies [Eh]
    ---------------------

    Doubly Occupied:                                                      

       1A    -26.065956     2A    -26.065776     3A    -26.065714  
       4A    -26.065679     5A    -11.193642     6A    -11.193641  
       7A    -11.193591     8A    -11.193590     9A    -11.193532  
      10A    -11.193531    11A    -11.193494    12A    -11.193482  
      13A    -11.193472    14A    -11.193445    15A    -11.193396  
      16A    -11.193356    17A    -11.191764    18A    -11.191720  
      19A    -11.191639    20A    -11.191552    21A    -11.191471  
      22A    -11.191407    23A    -11.190839    24A    -11.190756  
      25A    -11.190691    26A    -11.190647    27A    -11.190542  
      28A    -11.190504    29A    -11.189976    30A    -11.189954  
      31A    -11.189941    32A    -11.189849    33A    -11.189846  
      34A    -11.189821    35A    -11.189719    36A    -11.189714  
      37A    -11.189713    38A    -11.189711    39A    -11.189598  
      40A    -11.189597    41A    -11.189561    42A    -11.189514  
      43A    -11.189444    44A    -11.188888    45A    -11.188859  
      46A    -11.188434    47A    -11.188433    48A    -11.188384  
      49A    -11.188299    50A    -11.188297    51A    -11.188296  
      52A    -11.188295    53A    -11.186965    54A    -11.186964  
      55A    -11.186924    56A    -11.186923    57A    -11.186820  
      58A    -11.186773    59A     -7.537994    60A     -1.409707  
      61A     -1.350062    62A     -1.349889    63A     -1.349839  
      64A     -1.175977    65A     -1.153266    66A     -1.153123  
      67A     -1.123795    68A     -1.123789    69A     -1.113852  
      70A     -1.092728    71A     -1.083435    72A     -1.068985  
      73A     -1.068873    74A     -1.048478    75A     -1.048470  
      76A     -1.016350    77A     -1.016341    78A     -1.012423  
      79A     -1.001504    80A     -1.001497    81A     -0.974282  
      82A     -0.957515    83A     -0.954939    84A     -0.954900  
      85A     -0.953130    86A     -0.948551    87A     -0.921207  
      88A     -0.921185    89A     -0.897044    90A     -0.897020  
      91A     -0.829633    92A     -0.829604    93A     -0.821306  
      94A     -0.819433    95A     -0.819310    96A     -0.815560  
      97A     -0.815512    98A     -0.797222    99A     -0.773931  
     100A     -0.753315   101A     -0.750476   102A     -0.746516  
     103A     -0.746455   104A     -0.730489   105A     -0.730487  
     106A     -0.680540   107A     -0.679129   108A     -0.667902  
     109A     -0.667871   110A     -0.667684   111A     -0.667618  
     112A     -0.651252   113A     -0.634344   114A     -0.634285  
     115A     -0.628531   116A     -0.628476   117A     -0.600981  
     118A     -0.597124   119A     -0.587845   120A     -0.586333  
     121A     -0.586325   122A     -0.585270   123A     -0.574923  
     124A     -0.574887   125A     -0.564377   126A     -0.562285  
     127A     -0.562257   128A     -0.543525   129A     -0.537207  
     130A     -0.535994   131A     -0.535378   132A     -0.535325  
     133A     -0.528229   134A     -0.527213   135A     -0.527132  
     136A     -0.527105   137A     -0.525035   138A     -0.524979  
     139A     -0.522135   140A     -0.509243   141A     -0.509073  
     142A     -0.503478   143A     -0.503476   144A     -0.500562  
     145A     -0.500500   146A     -0.493224   147A     -0.490888  
     148A     -0.490843   149A     -0.474552   150A     -0.474550  
     151A     -0.472195   152A     -0.472194   153A     -0.464932  
     154A     -0.460230   155A     -0.458123   156A     -0.458065  
     157A     -0.446046   158A     -0.446010   159A     -0.436639  
     160A     -0.430847   161A     -0.428999   162A     -0.422250  
     163A     -0.419598   164A     -0.416812   165A     -0.416798  
     166A     -0.407243   167A     -0.407166   168A     -0.407142  
     169A     -0.403198   170A     -0.403070   171A     -0.384759  
     172A     -0.384642   173A     -0.383743   174A     -0.383719  
     175A     -0.383628   176A     -0.374556   177A     -0.374536  
     178A     -0.338166   179A     -0.338161   180A     -0.336529  
     181A     -0.311290   182A     -0.311269   183A     -0.283689  
     184A     -0.269337   185A     -0.268193   186A     -0.268141  
     187A     -0.246267   188A     -0.234564   189A     -0.217488  
     190A     -0.217435   191A     -0.159492   192A     -0.159476  

    Virtual:                                                              

     193A      0.079074   194A      0.079187   195A      0.101682  
     196A      0.101690   197A      0.103562   198A      0.104113  
     199A      0.104118   200A      0.110960   201A      0.115115  
     202A      0.126080   203A      0.126082   204A      0.130785  
     205A      0.130849   206A      0.139338   207A      0.140842  
     208A      0.140846   209A      0.145988   210A      0.146043  
     211A      0.146651   212A      0.147507   213A      0.147534  
     214A      0.150967   215A      0.153225   216A      0.153536  
     217A      0.154314   218A      0.160591   219A      0.162224  
     220A      0.167931   221A      0.167945   222A      0.171032  
     223A      0.173443   224A      0.178199   225A      0.178246  
     226A      0.180949   227A      0.184587   228A      0.184651  
     229A      0.186016   230A      0.186349   231A      0.186822  
     232A      0.187397   233A      0.188767   234A      0.191344  
     235A      0.191846   236A      0.191872   237A      0.199142  
     238A      0.206092   239A      0.206759   240A      0.206867  
     241A      0.207816   242A      0.207832   243A      0.211668  
     244A      0.211787   245A      0.216305   246A      0.216324  
     247A      0.228641   248A      0.230462   249A      0.230692  
     250A      0.237511   251A      0.239018   252A      0.240709  
     253A      0.241126   254A      0.241205   255A      0.242659  
     256A      0.245324   257A      0.245516   258A      0.247326  
     259A      0.251124   260A      0.251748   261A      0.253656  
     262A      0.257578   263A      0.257650   264A      0.261124  
     265A      0.261157   266A      0.261793   267A      0.266928  
     268A      0.266952   269A      0.269370   270A      0.269478  
     271A      0.270251   272A      0.270892   273A      0.271730  
     274A      0.273016   275A      0.274609   276A      0.278865  
     277A      0.283280   278A      0.283666   279A      0.284106  
     280A      0.285522   281A      0.286252   282A      0.286598  
     283A      0.288789   284A      0.289003   285A      0.289076  
     286A      0.292309   287A      0.295048   288A      0.295307  
     289A      0.302012   290A      0.302015   291A      0.302539  
     292A      0.305103   293A      0.308155   294A      0.311665  
     295A      0.315161   296A      0.315447   297A      0.316697  
     298A      0.316841   299A      0.317565   300A      0.317774  
     301A      0.323630   302A      0.324626   303A      0.330890  
     304A      0.330966   305A      0.333629   306A      0.333725  
     307A      0.337688   308A      0.339820   309A      0.340784  
     310A      0.342150   311A      0.342917   312A      0.345694  
     313A      0.352384   314A      0.353246   315A      0.353475  
     316A      0.354994   317A      0.359212   318A      0.359970  
     319A      0.362753   320A      0.362892   321A      0.363664  
     322A      0.368183   323A      0.368297   324A      0.368865  
     325A      0.368936   326A      0.371317   327A      0.371435  
     328A      0.374971   329A      0.376087   330A      0.376602  
     331A      0.376791   332A      0.380945   333A      0.380967  
     334A      0.381491   335A      0.382050   336A      0.386971  
     337A      0.387014   338A      0.392390   339A      0.393252  
     340A      0.393966   341A      0.394376   342A      0.397863  
     343A      0.398885   344A      0.401433   345A      0.403873  
     346A      0.404777   347A      0.406361   348A      0.409693  
     349A      0.410561   350A      0.412450   351A      0.413036  
     352A      0.413172   353A      0.416011   354A      0.417032  
     355A      0.425477   356A      0.426831   357A      0.428452  
     358A      0.428903   359A      0.431126   360A      0.432376  
     361A      0.434405   362A      0.436329   363A      0.436681  
     364A      0.441358   365A      0.442479   366A      0.445544  
     367A      0.448243   368A      0.450319   369A      0.450669  
     370A      0.452705   371A      0.453263   372A      0.453291  
     373A      0.455483   374A      0.455575   375A      0.456482  
     376A      0.459900   377A      0.460219   378A      0.460270  
     379A      0.460548   380A      0.463653   381A      0.465391  
     382A      0.466195   383A      0.469027   384A      0.469140  
     385A      0.472300   386A      0.475359   387A      0.477063  
     388A      0.477177   389A      0.477361   390A      0.478156  
     391A      0.478717   392A      0.479255   393A      0.480766  
     394A      0.484077   395A      0.486501   396A      0.487248  
     397A      0.489027   398A      0.489366   399A      0.490186  
     400A      0.493460   401A      0.495049   402A      0.498168  
     403A      0.502185   404A      0.502487   405A      0.503449  
     406A      0.504221   407A      0.504900   408A      0.505836  
     409A      0.510185   410A      0.510379   411A      0.513126  
     412A      0.513694   413A      0.514358   414A      0.515389  
     415A      0.515537   416A      0.526395   417A      0.526763  
     418A      0.526936   419A      0.529497   420A      0.532662  
     421A      0.532976   422A      0.534437   423A      0.536081  
     424A      0.537667   425A      0.538146   426A      0.543261  
     427A      0.544915   428A      0.548604   429A      0.548653  
     430A      0.550166   431A      0.551807   432A      0.552905  
     433A      0.553022   434A      0.556246   435A      0.556505  
     436A      0.558686   437A      0.559317   438A      0.562049  
     439A      0.562687   440A      0.567126   441A      0.568121  
     442A      0.569574   443A      0.569641   444A      0.569836  
     445A      0.576488   446A      0.578721   447A      0.581049  
     448A      0.585177   449A      0.586843   450A      0.591644  
     451A      0.592364   452A      0.593387   453A      0.595587  
     454A      0.598889   455A      0.599755   456A      0.600161  
     457A      0.604126   458A      0.609774   459A      0.610990  
     460A      0.611391   461A      0.614957   462A      0.615492  
     463A      0.615703   464A      0.616524   465A      0.616680  
     466A      0.623424   467A      0.624569   468A      0.625946  
     469A      0.628606   470A      0.628788   471A      0.629546  
     472A      0.629977   473A      0.633600   474A      0.636289  
     475A      0.640919   476A      0.656513   477A      0.660359  
     478A      0.661429   479A      0.662579   480A      0.664836  
     481A      0.665735   482A      0.683238   483A      0.684090  
     484A      0.684246   485A      0.691688   486A      0.691744  
     487A      0.693187   488A      0.693843   489A      0.705111  
     490A      0.710034   491A      0.713071   492A      0.717687  
     493A      0.718279   494A      0.721096   495A      0.722931  
     496A      0.734262   497A      0.735845   498A      0.736482  
     499A      0.742332   500A      0.742427   501A      0.749518  
     502A      0.759099   503A      0.766026   504A      0.781199  
     505A      0.781213   506A      0.785908   507A      0.799688  
     508A      0.804758   509A      0.808941   510A      0.809311  
     511A      0.809431   512A      0.810307   513A      0.821317  
     514A      0.821339   515A      0.827350   516A      0.832517  
     517A      0.839906   518A      0.855545   519A      0.863146  
     520A      0.863561   521A      0.869908   522A      0.873429  
     523A      0.878168   524A      0.878992   525A      0.880329  
     526A      0.887369   527A      0.887700   528A      0.889867  
     529A      0.891273   530A      0.892004   531A      0.892122  
     532A      0.901047   533A      0.916304   534A      0.919062  
     535A      0.920202   536A      0.925024   537A      0.925390  
     538A      0.928098   539A      0.929776   540A      0.932375  
     541A      0.934600   542A      0.938762   543A      0.939282  
     544A      0.940269   545A      0.940452   546A      0.946787  
     547A      0.952002   548A      0.952478   549A      0.958209  
     550A      0.961612   551A      0.962022   552A      0.962151  
     553A      0.963096   554A      0.969605   555A      0.972060  
     556A      0.972435   557A      0.974495   558A      0.974901  
     559A      0.976590   560A      0.980212   561A      0.981974  
     562A      0.983650   563A      0.988200   564A      0.988832  
     565A      0.990033   566A      0.990689   567A      0.998711  
     568A      1.000010   569A      1.000178   570A      1.001724  
     571A      1.002379   572A      1.008324   573A      1.009697  
     574A      1.011067   575A      1.014049   576A      1.021000  
     577A      1.026175   578A      1.031864   579A      1.032973  
     580A      1.034582   581A      1.036533   582A      1.036730  
     583A      1.038530   584A      1.040574   585A      1.042658  
     586A      1.043388   587A      1.049113   588A      1.051107  
     589A      1.051766   590A      1.053861   591A      1.056886  
     592A      1.060677   593A      1.065585   594A      1.071347  
     595A      1.071758   596A      1.077903   597A      1.078501  
     598A      1.080308   599A      1.080996   600A      1.081354  
     601A      1.097101   602A      1.097594   603A      1.102070  
     604A      1.102616   605A      1.105205   606A      1.105827  
     607A      1.107608   608A      1.108841   609A      1.110145  
     610A      1.110691   611A      1.110962   612A      1.112627  
     613A      1.113731   614A      1.114557   615A      1.118787  
     616A      1.119347   617A      1.120020   618A      1.125150  
     619A      1.129616   620A      1.131878   621A      1.133298  
     622A      1.135311   623A      1.137296   624A      1.144420  
     625A      1.145518   626A      1.146823   627A      1.150714  
     628A      1.153203   629A      1.153855   630A      1.157200  
     631A      1.158790   632A      1.160436   633A      1.162969  
     634A      1.164733   635A      1.169724   636A      1.170661  
     637A      1.170941   638A      1.172799   639A      1.175410  
     640A      1.180489   641A      1.180542   642A      1.191017  
     643A      1.191287   644A      1.193522   645A      1.193901  
     646A      1.194174   647A      1.201935   648A      1.202324  
     649A      1.204596   650A      1.205549   651A      1.207900  
     652A      1.210151   653A      1.210625   654A      1.213139  
     655A      1.214022   656A      1.219853   657A      1.228722  
     658A      1.241259   659A      1.245623   660A      1.245964  
     661A      1.247388   662A      1.249725   663A      1.252284  
     664A      1.253209   665A      1.260745   666A      1.262810  
     667A      1.266117   668A      1.266404   669A      1.276201  
     670A      1.282732   671A      1.283806   672A      1.286253  
     673A      1.287685   674A      1.287780   675A      1.301059  
     676A      1.301404   677A      1.301980   678A      1.322459  
     679A      1.323109   680A      1.326077   681A      1.326762  
     682A      1.328138   683A      1.328295   684A      1.329291  
     685A      1.330691   686A      1.338693   687A      1.340787  
     688A      1.347852   689A      1.348448   690A      1.355757  
     691A      1.358369   692A      1.361468   693A      1.361978  
     694A      1.362904   695A      1.368144   696A      1.372095  
     697A      1.373278   698A      1.373964   699A      1.374120  
     700A      1.377100   701A      1.383806   702A      1.383957  
     703A      1.387267   704A      1.389303   705A      1.395568  
     706A      1.395754   707A      1.399019   708A      1.405334  
     709A      1.408909   710A      1.411780   711A      1.413362  
     712A      1.419155   713A      1.421358   714A      1.421406  
     715A      1.423891   716A      1.424654   717A      1.427778  
     718A      1.428826   719A      1.436081   720A      1.441202  
     721A      1.443018   722A      1.456794   723A      1.461658  
     724A      1.466391   725A      1.469056   726A      1.469233  
     727A      1.475179   728A      1.475511   729A      1.477123  
     730A      1.477452   731A      1.485174   732A      1.486638  
     733A      1.493630   734A      1.494110   735A      1.496554  
     736A      1.500207   737A      1.501076   738A      1.501352  
     739A      1.504727   740A      1.504822   741A      1.505936  
     742A      1.512606   743A      1.513548   744A      1.514811  
     745A      1.515605   746A      1.532575   747A      1.533169  
     748A      1.542509   749A      1.543371   750A      1.581315  
     751A      1.582040   752A      1.587611   753A      1.587889  
     754A      1.595253   755A      1.618621   756A      1.642321  
     757A      1.644075   758A      1.650656   759A      1.653873  
     760A      1.666950   761A      1.667598   762A      1.671032  
     763A      1.676080   764A      1.676542   765A      1.677819  
     766A      1.682168   767A      1.682565   768A      1.688112  
     769A      1.689252   770A      1.690490   771A      1.700597  
     772A      1.701172   773A      1.706000   774A      1.706910  
     775A      1.710228   776A      1.710813   777A      1.711163  
     778A      1.711389   779A      1.717746   780A      1.726636  
     781A      1.726769   782A      1.732948   783A      1.741343  
     784A      1.741487   785A      1.743537   786A      1.744210  
     787A      1.744379   788A      1.748602   789A      1.752958  
     790A      1.753086   791A      1.761143   792A      1.762839  
     793A      1.763997   794A      1.764033   795A      1.768102  
     796A      1.772386   797A      1.772507   798A      1.780417  
     799A      1.780716   800A      1.807348   801A      1.817989  
     802A      1.823745   803A      1.823980   804A      1.824162  
     805A      1.826959   806A      1.842009   807A      1.842014  
     808A      1.856778   809A      1.856890   810A      1.880784  
     811A      1.880837   812A      1.881161   813A      1.886289  
     814A      1.891423   815A      1.891487   816A      1.896052  
     817A      1.896514   818A      1.902275   819A      1.908798  
     820A      1.909935   821A      1.924748   822A      1.924775  
     823A      1.927400   824A      1.927667   825A      1.928739  
     826A      1.933955   827A      1.937923   828A      1.946199  
     829A      1.946558   830A      1.947531   831A      1.962037  
     832A      1.962159   833A      1.962983   834A      1.966417  
     835A      1.966525   836A      1.974740   837A      1.974930  
     838A      1.978801   839A      1.981106   840A      1.983416  
     841A      1.983534   842A      1.984999   843A      1.987714  
     844A      1.987805   845A      2.002924   846A      2.005186  
     847A      2.005771   848A      2.006608   849A      2.008117  
     850A      2.008245   851A      2.009043   852A      2.011927  
     853A      2.018739   854A      2.020508   855A      2.021976  
     856A      2.023506   857A      2.024929   858A      2.033941  
     859A      2.035761   860A      2.038810   861A      2.050477  
     862A      2.051435   863A      2.053314   864A      2.056198  
     865A      2.056321   866A      2.061594   867A      2.062410  
     868A      2.063385   869A      2.066073   870A      2.069610  
     871A      2.072102   872A      2.077601   873A      2.078288  
     874A      2.094209   875A      2.094666   876A      2.095792  
     877A      2.096294   878A      2.096794   879A      2.096832  
     880A      2.097489   881A      2.113938   882A      2.117316  
     883A      2.117747   884A      2.124747   885A      2.125398  
     886A      2.127469   887A      2.128974   888A      2.135435  
     889A      2.136828   890A      2.138761   891A      2.139097  
     892A      2.142037   893A      2.145432   894A      2.145758  
     895A      2.151465   896A      2.151620   897A      2.154364  
     898A      2.156671   899A      2.158429   900A      2.158444  
     901A      2.161173   902A      2.162835   903A      2.165924  
     904A      2.165971   905A      2.172182   906A      2.173628  
     907A      2.174008   908A      2.176839   909A      2.178508  
     910A      2.179712   911A      2.181248   912A      2.183195  
     913A      2.184773   914A      2.184875   915A      2.187396  
     916A      2.190306   917A      2.192251   918A      2.199692  
     919A      2.199988   920A      2.200208   921A      2.200429  
     922A      2.205327   923A      2.207751   924A      2.209087  
     925A      2.217438   926A      2.223734   927A      2.227328  
     928A      2.228939   929A      2.229099   930A      2.231892  
     931A      2.238744   932A      2.244194   933A      2.245476  
     934A      2.254170   935A      2.254379   936A      2.257189  
     937A      2.258720   938A      2.263912   939A      2.263926  
     940A      2.267304   941A      2.284933   942A      2.287421  
     943A      2.287555   944A      2.292040   945A      2.296415  
     946A      2.296829   947A      2.298397   948A      2.305858  
     949A      2.306278   950A      2.307833   951A      2.308263  
     952A      2.310750   953A      2.323565   954A      2.323705  
     955A      2.334987   956A      2.335099   957A      2.336010  
     958A      2.336344   959A      2.343674   960A      2.364449  
     961A      2.371097   962A      2.376977   963A      2.378538  
     964A      2.388747   965A      2.390080   966A      2.397923  
     967A      2.398859   968A      2.398915   969A      2.401301  
     970A      2.416999   971A      2.417658   972A      2.418163  
     973A      2.418622   974A      2.432749   975A      2.433091  
     976A      2.442742   977A      2.445828   978A      2.480011  
     979A      2.489474   980A      2.489684   981A      2.489771  
     982A      2.500718   983A      2.507304   984A      2.507566  
     985A      2.535820   986A      2.537860   987A      2.538196  
     988A      2.550378   989A      2.550755   990A      2.567616  
     991A      2.583797   992A      2.595114   993A      2.595950  
     994A      2.608079   995A      2.610211   996A      2.610488  
     997A      2.617548   998A      2.617605   999A      2.621961  
    1000A      2.624989  1001A      2.625024  1002A      2.637879  
    1003A      2.638377  1004A      2.638506  1005A      2.638546  
    1006A      2.650611  1007A      2.650720  1008A      2.653342  
    1009A      2.654254  1010A      2.655106  1011A      2.671155  
    1012A      2.687758  1013A      2.687969  1014A      2.691912  
    1015A      2.697488  1016A      2.698162  1017A      2.705201  
    1018A      2.705341  1019A      2.714594  1020A      2.714918  
    1021A      2.721161  1022A      2.748364  1023A      2.748577  
    1024A      2.749781  1025A      2.750005  1026A      2.769703  
    1027A      2.770031  1028A      2.779234  1029A      2.779393  
    1030A      2.784617  1031A      2.784739  1032A      2.788704  
    1033A      2.788903  1034A      2.805462  1035A      2.816826  
    1036A      2.817287  1037A      2.844089  1038A      2.861259  
    1039A      2.861428  1040A      2.882194  1041A      2.893280  
    1042A      2.893839  1043A      2.918622  1044A      2.918750  
    1045A      2.923798  1046A      2.925853  1047A      2.926059  
    1048A      2.926178  1049A      2.933781  1050A      2.968322  
    1051A      2.980639  1052A      2.981254  1053A      2.985169  
    1054A      2.993703  1055A      2.997790  1056A      2.998040  
    1057A      2.998930  1058A      3.014522  1059A      3.015690  
    1060A      3.027892  1061A      3.074669  1062A      3.074939  
    1063A      3.075324  1064A      3.093263  1065A      3.131084  
    1066A      3.131204  1067A      3.136514  1068A      3.136857  
    1069A      3.174275  1070A      3.174881  1071A      3.192320  
    1072A      3.194477  1073A      3.194784  1074A      3.201905  
    1075A      3.211222  1076A      3.211540  1077A      3.211867  
    1078A      3.213275  1079A      3.213571  1080A      3.222616  
    1081A      3.223515  1082A      3.230733  1083A      3.231130  
    1084A      3.255392  1085A      3.274600  1086A      3.284504  
    1087A      3.286527  1088A      3.302533  1089A      3.341267  
    1090A      3.342416  1091A      3.342540  1092A      3.347695  
    1093A      3.348692  1094A      3.483322  1095A      3.483703  
    1096A      3.514899  1097A      3.549033  1098A      3.551792  
    1099A      3.617688  1100A      3.645547  1101A      3.647218  
    1102A      3.661409  1103A      3.692342  1104A      3.694507  
    1105A      3.728710  1106A      3.735748  1107A      3.835400  
    1108A      3.850263  1109A      3.851068  1110A      3.935480  
    1111A      3.935482  1112A      3.978425  1113A      3.978748  
    1114A      4.043713  1115A      4.077815  1116A      4.103695  
    1117A      4.116463  1118A      4.152630  1119A      4.174554  
    1120A      4.174620  1121A      4.174870  1122A      4.202492  
    1123A      4.202540  1124A      4.203029  1125A      4.203394  
    1126A      4.204386  1127A      4.236013  1128A      4.239381  
    1129A      4.243215  1130A      4.449566  1131A      4.449677  
    1132A      4.450270  1133A      4.651413  1134A      4.652960  
    1135A      4.656058  1136A      4.751667  1137A      4.786664  
    1138A      4.789100  

    Final Occupation by Irrep:
              A 
    DOCC [   192 ]
    NA   [   192 ]
    NB   [   192 ]

  @DF-RHF Final Energy: -2478.65842392597597

   => Energetics <=

    Nuclear Repulsion Energy =           7635.0680601545809623
    One-Electron Energy =              -18624.0164370422353386
    Two-Electron Energy =                8510.2899529616788641
    Total Energy =                      -2478.6584239259755122

Computation Completed


Properties will be evaluated at   0.000000,   0.000000,   0.000000 [a0]

Properties computed using the SCF density matrix


 Multipole Moments:

 ------------------------------------------------------------------------------------
     Multipole            Electronic (a.u.)      Nuclear  (a.u.)        Total (a.u.)
 ------------------------------------------------------------------------------------

 L = 1.  Multiply by 2.5417464519 to convert [e a0] to [Debye]
 Dipole X            :         -0.0002009           -0.0000160           -0.0002169
 Dipole Y            :          0.0012704           -0.0001716            0.0010988
 Dipole Z            :         26.7971373          -35.5557599           -8.7586226
 Magnitude           :                                                    8.7586227

 ------------------------------------------------------------------------------------

*** tstop() called on d-16-12-3 at Mon Jan 22 12:06:58 2024
Module time:
	user time   =    3717.81 seconds =      61.96 minutes
	system time =      86.87 seconds =       1.45 minutes
	total time  =        398 seconds =       6.63 minutes
Total time:
	user time   =    3717.81 seconds =      61.96 minutes
	system time =      86.87 seconds =       1.45 minutes
	total time  =        398 seconds =       6.63 minutes

  //>>>>>>>>>>>>>>>>>>>>>>>>>>>>>>>>>>>//
  //            Monomer A HF           //
  //<<<<<<<<<<<<<<<<<<<<<<<<<<<<<<<<<<<//

   => Libint2 <=

    Primary   basis highest AM E, G, H:  7, 7, 4
    Auxiliary basis highest AM E, G, H:  7, 7, 5
    Onebody   basis highest AM E, G, H:  7, 7, 5
    Solid Harmonics ordering:            gaussian

*** tstart() called on d-16-12-3
*** at Mon Jan 22 12:06:58 2024

   => Loading Basis Set <=

    Name: JUN-CC-PVDZ
    Role: ORBITAL
    Keyword: BASIS
    atoms 1     entry B          line   130 file /home/gridsan/tfroembgen/.conda/envs/psi4test/share/psi4/basis/jun-cc-pvdz.gbs 
    atoms 2-5   entry F          line   266 file /home/gridsan/tfroembgen/.conda/envs/psi4test/share/psi4/basis/jun-cc-pvdz.gbs 
    atoms 6-59  entry C          line   164 file /home/gridsan/tfroembgen/.conda/envs/psi4test/share/psi4/basis/jun-cc-pvdz.gbs 
    atoms 60-77 entry H          line    36 file /home/gridsan/tfroembgen/.conda/envs/psi4test/share/psi4/basis/jun-cc-pvdz.gbs 


         ---------------------------------------------------------
                                   SCF
               by Justin Turney, Rob Parrish, Andy Simmonett
                          and Daniel G. A. Smith
                              RHF Reference
                       12 Threads,  30517 MiB Core
         ---------------------------------------------------------

  ==> Geometry <==

    Molecular point group: c1
    Full point group: C1

    Geometry (in Angstrom), charge = -1, multiplicity = 1:

       Center              X                  Y                   Z               Mass       
    ------------   -----------------  -----------------  -----------------  -----------------
         B           -0.000046449334     0.000336519434     5.129982192489    11.009305360000
         F           -1.153597449334     0.000047519434     5.945629192489    18.998403162730
         F            1.153660550666    -0.000581480566     5.945629192489    18.998403162730
         F           -0.000019449334    -1.153637480566     4.314348192489    18.998403162730
         F           -0.000019449334     1.153977519434     4.314348192489    18.998403162730
      Gh(C)           1.225311925931     0.707538180353    -0.663874180227    12.000000000000
      Gh(C)           1.225323886559    -0.707539003137    -0.676204989797    12.000000000000
      Gh(C)          -0.000006123424     1.414965805524    -0.676738613318    12.000000000000
      Gh(C)           2.456448784457     1.418327778612    -0.660987322827    12.000000000000
      Gh(C)           0.000010857787    -1.414976607201    -0.666539055994    12.000000000000
      Gh(C)          -1.225300918401     0.707545265418    -0.661622659904    12.000000000000
      Gh(C)           2.456437785828    -1.418323412447    -0.678450146654    12.000000000000
      Gh(C)          -0.000001302470     2.836800922715    -0.679142163452    12.000000000000
      Gh(C)           3.681826727978     0.709317847435    -0.678101356856    12.000000000000
      Gh(C)           2.455120079373     2.834223552923    -0.678203913817    12.000000000000
      Gh(C)           3.681821135726    -0.709333947995    -0.662028872838    12.000000000000
      Gh(C)          -1.225313568180    -0.707527624110    -0.675132228370    12.000000000000
      Gh(C)           1.226699611710     3.543469375428    -0.661844840907    12.000000000000
      Gh(C)           0.000004815365    -2.836782247802    -0.661690888372    12.000000000000
      Gh(C)          -2.456436002341     1.418316809719    -0.661587264059    12.000000000000
      Gh(C)           2.455123448287    -2.834230137155    -0.662180781205    12.000000000000
      Gh(C)          -1.226714334082     3.543468955184    -0.661741507688    12.000000000000
      Gh(C)           4.914517325709     1.427172763923    -0.671620673827    12.000000000000
      Gh(C)           3.693150221984     3.542795183979    -0.671570874190    12.000000000000
      Gh(C)          -2.456437569560    -1.418313389406    -0.678475184779    12.000000000000
      Gh(C)           1.226704872451    -3.543474350473    -0.677814971657    12.000000000000
      Gh(C)          -2.455125368000     2.834216554068    -0.678197537471    12.000000000000
      Gh(C)           4.914524411290    -1.427187018510    -0.668647931092    12.000000000000
      Gh(C)           1.221424644206     4.970133956694    -0.668509496833    12.000000000000
      Gh(C)           4.893008259828     2.825187891460    -0.670404005468    12.000000000000
      Gh(C)          -1.226696977981    -3.543471105643    -0.677547767247    12.000000000000
      Gh(C)          -3.681818946018     0.709324858166    -0.678088676376    12.000000000000
      Gh(C)           3.693147131658    -3.542801449957    -0.668530040531    12.000000000000
      Gh(C)          -1.221432221486     4.970128189296    -0.668326001460    12.000000000000
      Gh(C)           6.134771003434     0.680547838539    -0.670850899277    12.000000000000
      Gh(C)           3.656788911118     4.972953135001    -0.670662236408    12.000000000000
      Gh(C)          -2.455126877226    -2.834215201627    -0.662425139004    12.000000000000
      Gh(C)          -3.681819148553    -0.709325812035    -0.661911251259    12.000000000000
      Gh(C)           4.893012648421    -2.825200214198    -0.669792853573    12.000000000000
      Gh(C)          -0.000001042605     5.650447257466    -0.669557310167    12.000000000000
      Gh(C)           6.134775142840    -0.680554962641    -0.669585578761    12.000000000000
      Gh(C)           2.478131513363     5.653576642765    -0.669373456758    12.000000000000
      Gh(C)           1.221422435245    -4.970127163499    -0.671308993855    12.000000000000
      Gh(C)          -3.693162353457     3.542796845626    -0.671405366731    12.000000000000
      Gh(C)          -1.221428490437    -4.970118412162    -0.671421755688    12.000000000000
      Gh(C)          -4.914521777434     1.427175338429    -0.671543728819    12.000000000000
      Gh(C)           3.656787050187    -4.972955334806    -0.669211735874    12.000000000000
      Gh(C)          -2.478138499598     5.653574313962    -0.669088931750    12.000000000000
      Gh(C)          -3.693141708056    -3.542790327545    -0.668646166687    12.000000000000
      Gh(C)          -4.914512452545    -1.427181108594    -0.668613233919    12.000000000000
      Gh(C)          -0.000005978418    -5.650438395580    -0.669952814288    12.000000000000
      Gh(C)          -4.893020453593     2.825188490353    -0.670414087328    12.000000000000
      Gh(C)           2.478126023806    -5.653573652455    -0.670302336666    12.000000000000
      Gh(C)          -3.656798679750     4.972956073475    -0.670485556033    12.000000000000
      Gh(C)          -4.892999448349    -2.825191875626    -0.669946889270    12.000000000000
      Gh(C)          -2.478128467575    -5.653566278573    -0.670577524313    12.000000000000
      Gh(C)          -6.134770472823     0.680548657690    -0.670876450979    12.000000000000
      Gh(C)          -3.656788802681    -4.972944131537    -0.669426023691    12.000000000000
      Gh(C)          -6.134765012405    -0.680554024048    -0.669606054556    12.000000000000
      Gh(H)           5.835288526324     3.369275786388    -0.666044679805     1.007825032230
      Gh(H)           7.073859203255     1.228217140333    -0.670389255884     1.007825032230
      Gh(H)           4.600663294682     5.512380693887    -0.670157035656     1.007825032230
      Gh(H)           5.835283417813    -3.369306165295    -0.674247320887     1.007825032230
      Gh(H)          -0.000012120798     6.738530565570    -0.673906555175     1.007825032230
      Gh(H)           7.073861202338    -1.228227051310    -0.670094316855     1.007825032230
      Gh(H)           2.473313762307     6.740684182828    -0.669840177689     1.007825032230
      Gh(H)           4.600668521889    -5.512376237742    -0.669621733042     1.007825032230
      Gh(H)          -2.473318650030     6.740681611040    -0.669538831064     1.007825032230
      Gh(H)          -0.000010237720    -6.738528285018    -0.665423129303     1.007825032230
      Gh(H)          -5.835301883836     3.369270841730    -0.665908657657     1.007825032230
      Gh(H)           2.473307954339    -6.740685482995    -0.669732006241     1.007825032230
      Gh(H)          -4.600674810700     5.512377918037    -0.669991707332     1.007825032230
      Gh(H)          -5.835279476327    -3.369289072346    -0.674526626768     1.007825032230
      Gh(H)          -2.473300316932    -6.740679186706    -0.670181322786     1.007825032230
      Gh(H)          -7.073857736260     1.228220364274    -0.670473247365     1.007825032230
      Gh(H)          -4.600673755577    -5.512362778353    -0.669794041065     1.007825032230
      Gh(H)          -7.073856903901    -1.228220740543    -0.670189173322     1.007825032230

  Running in c1 symmetry.

  Rotational constants: A =      0.00164  B =      0.00164  C =      0.00110 [cm^-1]
  Rotational constants: A =     49.11031  B =     49.10455  C =     33.02250 [MHz]
  Nuclear repulsion =  178.879482610381274

  Charge       = -1
  Multiplicity = 1
  Electrons    = 42
  Nalpha       = 21
  Nbeta        = 21

  ==> Algorithm <==

  SCF Algorithm Type is DF.
  DIIS enabled.
  MOM disabled.
  Fractional occupation disabled.
  Guess Type is SAD.
  Energy threshold   = 1.00e-08
  Density threshold  = 1.00e-08
  Integral threshold = 1.00e-12

  ==> Primary Basis <==

  Basis Set: JUN-CC-PVDZ
    Blend: JUN-CC-PVDZ
    Number of shells: 526
    Number of basis functions: 1152
    Number of Cartesian functions: 1211
    Spherical Harmonics?: true
    Max angular momentum: 2

   => Loading Basis Set <=

    Name: (JUN-CC-PVDZ AUX)
    Role: JKFIT
    Keyword: DF_BASIS_SCF
    atoms 1     entry B          line    90 file /home/gridsan/tfroembgen/.conda/envs/psi4test/share/psi4/basis/jun-cc-pvdz-jkfit.gbs 
    atoms 2-5   entry F          line   314 file /home/gridsan/tfroembgen/.conda/envs/psi4test/share/psi4/basis/jun-cc-pvdz-jkfit.gbs 
    atoms 6-59  entry C          line   146 file /home/gridsan/tfroembgen/.conda/envs/psi4test/share/psi4/basis/jun-cc-pvdz-jkfit.gbs 
    atoms 60-77 entry H          line    70 file /home/gridsan/tfroembgen/.conda/envs/psi4test/share/psi4/basis/jun-cc-pvdz-jkfit.gbs 

  ==> Integral Setup <==

  ==> DiskDFJK: Density-Fitted J/K Matrices <==

    J tasked:                  Yes
    K tasked:                  Yes
    wK tasked:                  No
    OpenMP threads:             12
    Integrals threads:          12
    Memory [MiB]:            22888
    Algorithm:                Core
    Integral Cache:           LOAD
    Schwarz Cutoff:          1E-12
    Fitting Condition:       1E-10

   => Auxiliary Basis Set <=

  Basis Set: (JUN-CC-PVDZ AUX)
    Blend: JUN-CC-PVDZ-JKFIT
    Number of shells: 1755
    Number of basis functions: 5075
    Number of Cartesian functions: 5819
    Spherical Harmonics?: true
    Max angular momentum: 3

  Minimum eigenvalue in the overlap matrix is 8.3460365134E-10.
  Reciprocal condition number of the overlap matrix is 3.7116765925E-11.
    Using canonical orthogonalization.
  Overall, 14 of 1152 possible MOs eliminated.


  ==> Pre-Iterations <==

  SCF Guess: Superposition of Atomic Densities via on-the-fly atomic UHF (no occupation information).

   -------------------------
    Irrep   Nso     Nmo    
   -------------------------
     A       1152    1138 
   -------------------------
    Total    1152    1138
   -------------------------

  ==> Iterations <==

                           Total Energy        Delta E     RMS |[F,P]|

   @DF-RHF iter SAD:  -421.23044512817080   -4.21230e+02   0.00000e+00 
   @DF-RHF iter   1:  -422.64992201386156   -1.41948e+00   5.29970e-04 ADIIS/DIIS
   @DF-RHF iter   2:  -422.73273833572239   -8.28163e-02   3.23101e-04 ADIIS/DIIS
   @DF-RHF iter   3:  -422.77131098588899   -3.85727e-02   1.74015e-05 DIIS
   @DF-RHF iter   4:  -422.77167168643609   -3.60701e-04   2.75525e-06 DIIS
   @DF-RHF iter   5:  -422.77168033969122   -8.65326e-06   7.04509e-07 DIIS
   @DF-RHF iter   6:  -422.77168090171165   -5.62020e-07   1.45186e-07 DIIS
   @DF-RHF iter   7:  -422.77168092284774   -2.11361e-08   1.54844e-08 DIIS
   @DF-RHF iter   8:  -422.77168092306709   -2.19359e-10   6.16518e-09 DIIS
  Energy and wave function converged.


  ==> Post-Iterations <==

    Orbital Energies [Eh]
    ---------------------

    Doubly Occupied:                                                      

       1A    -26.067073     2A    -26.067032     3A    -26.066997  
       4A    -26.066892     5A     -7.539219     6A     -1.410925  
       7A     -1.351221     8A     -1.351187     9A     -1.351034  
      10A     -0.602204    11A     -0.528407    12A     -0.528380  
      13A     -0.528321    14A     -0.447268    15A     -0.447223  
      16A     -0.408449    17A     -0.408404    18A     -0.408353  
      19A     -0.384969    20A     -0.384897    21A     -0.384877  

    Virtual:                                                              

      22A      0.083026    23A      0.084230    24A      0.084424  
      25A      0.091940    26A      0.091941    27A      0.103725  
      28A      0.104452    29A      0.107532    30A      0.120361  
      31A      0.120372    32A      0.123202    33A      0.123241  
      34A      0.134293    35A      0.138138    36A      0.138382  
      37A      0.139104    38A      0.139693    39A      0.140278  
      40A      0.140319    41A      0.148811    42A      0.151784  
      43A      0.151789    44A      0.159599    45A      0.160112  
      46A      0.161363    47A      0.166647    48A      0.171490  
      49A      0.172167    50A      0.173191    51A      0.173316  
      52A      0.175170    53A      0.180346    54A      0.180825  
      55A      0.182231    56A      0.182243    57A      0.187299  
      58A      0.188446    59A      0.188585    60A      0.190848  
      61A      0.191300    62A      0.193835    63A      0.193872  
      64A      0.197015    65A      0.197178    66A      0.197949  
      67A      0.203987    68A      0.204018    69A      0.207706  
      70A      0.207731    71A      0.212423    72A      0.213629  
      73A      0.213941    74A      0.216755    75A      0.217379  
      76A      0.217432    77A      0.217994    78A      0.220813  
      79A      0.221036    80A      0.223852    81A      0.226706  
      82A      0.226817    83A      0.228876    84A      0.235415  
      85A      0.238870    86A      0.238899    87A      0.239739  
      88A      0.240450    89A      0.244783    90A      0.245829  
      91A      0.246160    92A      0.253486    93A      0.254459  
      94A      0.255073    95A      0.255262    96A      0.255755  
      97A      0.257005    98A      0.258508    99A      0.263442  
     100A      0.263453   101A      0.267814   102A      0.267840  
     103A      0.271049   104A      0.271584   105A      0.275943  
     106A      0.276778   107A      0.278473   108A      0.278642  
     109A      0.279439   110A      0.282769   111A      0.282819  
     112A      0.284488   113A      0.288726   114A      0.290743  
     115A      0.291660   116A      0.295591   117A      0.295754  
     118A      0.295765   119A      0.297797   120A      0.297858  
     121A      0.302388   122A      0.308471   123A      0.309199  
     124A      0.315078   125A      0.315377   126A      0.316663  
     127A      0.317008   128A      0.317978   129A      0.321876  
     130A      0.322124   131A      0.323400   132A      0.323478  
     133A      0.327261   134A      0.329055   135A      0.335043  
     136A      0.337997   137A      0.338046   138A      0.341888  
     139A      0.343042   140A      0.344135   141A      0.344293  
     142A      0.346407   143A      0.347715   144A      0.347778  
     145A      0.347968   146A      0.348174   147A      0.356311  
     148A      0.357753   149A      0.361604   150A      0.366004  
     151A      0.367559   152A      0.367988   153A      0.372104  
     154A      0.372665   155A      0.378421   156A      0.384807  
     157A      0.384998   158A      0.386159   159A      0.387820  
     160A      0.388209   161A      0.392129   162A      0.392296  
     163A      0.393485   164A      0.395027   165A      0.396796  
     166A      0.396828   167A      0.400482   168A      0.402887  
     169A      0.403962   170A      0.405308   171A      0.408995  
     172A      0.409974   173A      0.414520   174A      0.419908  
     175A      0.421729   176A      0.423350   177A      0.424193  
     178A      0.426804   179A      0.428224   180A      0.430470  
     181A      0.431621   182A      0.431643   183A      0.431924  
     184A      0.434148   185A      0.436795   186A      0.437545  
     187A      0.439636   188A      0.441297   189A      0.441972  
     190A      0.447698   191A      0.448384   192A      0.450471  
     193A      0.451204   194A      0.452620   195A      0.453180  
     196A      0.454110   197A      0.462287   198A      0.463282  
     199A      0.465735   200A      0.466535   201A      0.469140  
     202A      0.469549   203A      0.470899   204A      0.477220  
     205A      0.478256   206A      0.479464   207A      0.480799  
     208A      0.481407   209A      0.487103   210A      0.487630  
     211A      0.492460   212A      0.495811   213A      0.495947  
     214A      0.497887   215A      0.498111   216A      0.504837  
     217A      0.505264   218A      0.505650   219A      0.507031  
     220A      0.507942   221A      0.508635   222A      0.509201  
     223A      0.512059   224A      0.512876   225A      0.513865  
     226A      0.514518   227A      0.515164   228A      0.515321  
     229A      0.517023   230A      0.519422   231A      0.522352  
     232A      0.524771   233A      0.525363   234A      0.525768  
     235A      0.536507   236A      0.536861   237A      0.539496  
     238A      0.540635   239A      0.540878   240A      0.544637  
     241A      0.549110   242A      0.549648   243A      0.550124  
     244A      0.550254   245A      0.552530   246A      0.554314  
     247A      0.554339   248A      0.560369   249A      0.563060  
     250A      0.564900   251A      0.565160   252A      0.566682  
     253A      0.568295   254A      0.568690   255A      0.569380  
     256A      0.574652   257A      0.575230   258A      0.579696  
     259A      0.580631   260A      0.583649   261A      0.587053  
     262A      0.591013   263A      0.593205   264A      0.593501  
     265A      0.594335   266A      0.596386   267A      0.596506  
     268A      0.598389   269A      0.602040   270A      0.602189  
     271A      0.603738   272A      0.613900   273A      0.614828  
     274A      0.618087   275A      0.620279   276A      0.624902  
     277A      0.631481   278A      0.631685   279A      0.634334  
     280A      0.635485   281A      0.635932   282A      0.636168  
     283A      0.640400   284A      0.640940   285A      0.644438  
     286A      0.645031   287A      0.646527   288A      0.647323  
     289A      0.652740   290A      0.653133   291A      0.659749  
     292A      0.660455   293A      0.662690   294A      0.664398  
     295A      0.666680   296A      0.667579   297A      0.672788  
     298A      0.677602   299A      0.677882   300A      0.679618  
     301A      0.679841   302A      0.681336   303A      0.683297  
     304A      0.684587   305A      0.685369   306A      0.686912  
     307A      0.687028   308A      0.699998   309A      0.700165  
     310A      0.702980   311A      0.707456   312A      0.711139  
     313A      0.711773   314A      0.712212   315A      0.714951  
     316A      0.716383   317A      0.716917   318A      0.724982  
     319A      0.727598   320A      0.729508   321A      0.732719  
     322A      0.736872   323A      0.740271   324A      0.745428  
     325A      0.745913   326A      0.746400   327A      0.748017  
     328A      0.748347   329A      0.750614   330A      0.754431  
     331A      0.757665   332A      0.762179   333A      0.763219  
     334A      0.768665   335A      0.770428   336A      0.773450  
     337A      0.774012   338A      0.778356   339A      0.779111  
     340A      0.785365   341A      0.785814   342A      0.792215  
     343A      0.792753   344A      0.797263   345A      0.797318  
     346A      0.801053   347A      0.801895   348A      0.804159  
     349A      0.809670   350A      0.811012   351A      0.811896  
     352A      0.812517   353A      0.818461   354A      0.819775  
     355A      0.826223   356A      0.826274   357A      0.826509  
     358A      0.836330   359A      0.839055   360A      0.839146  
     361A      0.843551   362A      0.843753   363A      0.849290  
     364A      0.849429   365A      0.850602   366A      0.851189  
     367A      0.852548   368A      0.854653   369A      0.855025  
     370A      0.858323   371A      0.863872   372A      0.865521  
     373A      0.867112   374A      0.869526   375A      0.870093  
     376A      0.870512   377A      0.871084   378A      0.871407  
     379A      0.873457   380A      0.877024   381A      0.886030  
     382A      0.902324   383A      0.902409   384A      0.915556  
     385A      0.915618   386A      0.938279   387A      0.944754  
     388A      0.945604   389A      0.948032   390A      0.949784  
     391A      0.949797   392A      0.952613   393A      0.955581  
     394A      0.958671   395A      0.959480   396A      0.965715  
     397A      0.966062   398A      0.966173   399A      0.970345  
     400A      0.970957   401A      1.003294   402A      1.003408  
     403A      1.006138   404A      1.017663   405A      1.025866  
     406A      1.025926   407A      1.036651   408A      1.036657  
     409A      1.044536   410A      1.050505   411A      1.058901  
     412A      1.058951   413A      1.078572   414A      1.080412  
     415A      1.104378   416A      1.104657   417A      1.124812  
     418A      1.125081   419A      1.128901   420A      1.129860  
     421A      1.129908   422A      1.141059   423A      1.141107  
     424A      1.164940   425A      1.167060   426A      1.167191  
     427A      1.175434   428A      1.228926   429A      1.229123  
     430A      1.232573   431A      1.232774   432A      1.235557  
     433A      1.247042   434A      1.248167   435A      1.248301  
     436A      1.267826   437A      1.267952   438A      1.287772  
     439A      1.290131   440A      1.290195   441A      1.295876  
     442A      1.304529   443A      1.347833   444A      1.348931  
     445A      1.361990   446A      1.368952   447A      1.369057  
     448A      1.377180   449A      1.377282   450A      1.377862  
     451A      1.390724   452A      1.390837   453A      1.400498  
     454A      1.403589   455A      1.430852   456A      1.432538  
     457A      1.443275   458A      1.443372   459A      1.489647  
     460A      1.518691   461A      1.519262   462A      1.536437  
     463A      1.536475   464A      1.542721   465A      1.543537  
     466A      1.543697   467A      1.546456   468A      1.556537  
     469A      1.557634   470A      1.621310   471A      1.628863  
     472A      1.629044   473A      1.632851   474A      1.633837  
     475A      1.640271   476A      1.641385   477A      1.643390  
     478A      1.652504   479A      1.701151   480A      1.711063  
     481A      1.713357   482A      1.724996   483A      1.727292  
     484A      1.734387   485A      1.742485   486A      1.742702  
     487A      1.759773   488A      1.760295   489A      1.760955  
     490A      1.761535   491A      1.776046   492A      1.813503  
     493A      1.814898   494A      1.815149   495A      1.815962  
     496A      1.817290   497A      1.822449   498A      1.826741  
     499A      1.827231   500A      1.834257   501A      1.844084  
     502A      1.845779   503A      1.849099   504A      1.861137  
     505A      1.862197   506A      1.866487   507A      1.868249  
     508A      1.877458   509A      1.886525   510A      1.897540  
     511A      1.897930   512A      1.899387   513A      1.899717  
     514A      1.900091   515A      1.901067   516A      1.902777  
     517A      1.903103   518A      1.906028   519A      1.908883  
     520A      1.912468   521A      1.915516   522A      1.919533  
     523A      1.920718   524A      1.929750   525A      1.930322  
     526A      1.944128   527A      1.946127   528A      1.946957  
     529A      1.948362   530A      1.953962   531A      1.955472  
     532A      1.960122   533A      1.960719   534A      1.961456  
     535A      1.966704   536A      1.978680   537A      1.979060  
     538A      1.979699   539A      1.981209   540A      1.983201  
     541A      1.984033   542A      1.990235   543A      1.991152  
     544A      1.993623   545A      1.995333   546A      1.999383  
     547A      1.999967   548A      2.006278   549A      2.008980  
     550A      2.012295   551A      2.017375   552A      2.018347  
     553A      2.023165   554A      2.028552   555A      2.035725  
     556A      2.036503   557A      2.040705   558A      2.041219  
     559A      2.044746   560A      2.046286   561A      2.047158  
     562A      2.050278   563A      2.057167   564A      2.058048  
     565A      2.059702   566A      2.059771   567A      2.064927  
     568A      2.066314   569A      2.069372   570A      2.071246  
     571A      2.072757   572A      2.072928   573A      2.073560  
     574A      2.077553   575A      2.094255   576A      2.094632  
     577A      2.100998   578A      2.101493   579A      2.135211  
     580A      2.140472   581A      2.140515   582A      2.144356  
     583A      2.147001   584A      2.150340   585A      2.150412  
     586A      2.155472   587A      2.156537   588A      2.165464  
     589A      2.165687   590A      2.168107   591A      2.169062  
     592A      2.176014   593A      2.179724   594A      2.186616  
     595A      2.189560   596A      2.190259   597A      2.193864  
     598A      2.196157   599A      2.200658   600A      2.201061  
     601A      2.210115   602A      2.210447   603A      2.210976  
     604A      2.211180   605A      2.212885   606A      2.219215  
     607A      2.220290   608A      2.220468   609A      2.220858  
     610A      2.220996   611A      2.221272   612A      2.224558  
     613A      2.226494   614A      2.227382   615A      2.230872  
     616A      2.231859   617A      2.233294   618A      2.234922  
     619A      2.235249   620A      2.238206   621A      2.240701  
     622A      2.241760   623A      2.242474   624A      2.247459  
     625A      2.247988   626A      2.248477   627A      2.249066  
     628A      2.249428   629A      2.252014   630A      2.254266  
     631A      2.255327   632A      2.255509   633A      2.256132  
     634A      2.258878   635A      2.261194   636A      2.264445  
     637A      2.267011   638A      2.268515   639A      2.269187  
     640A      2.276391   641A      2.277049   642A      2.290619  
     643A      2.291316   644A      2.308641   645A      2.309743  
     646A      2.315186   647A      2.315353   648A      2.319985  
     649A      2.320556   650A      2.322507   651A      2.322742  
     652A      2.326934   653A      2.340078   654A      2.341001  
     655A      2.341593   656A      2.345280   657A      2.345498  
     658A      2.346573   659A      2.356939   660A      2.357222  
     661A      2.363216   662A      2.363548   663A      2.368296  
     664A      2.380442   665A      2.380816   666A      2.388208  
     667A      2.400220   668A      2.400911   669A      2.401573  
     670A      2.401594   671A      2.404569   672A      2.410923  
     673A      2.417148   674A      2.417269   675A      2.422279  
     676A      2.430778   677A      2.431800   678A      2.439270  
     679A      2.439794   680A      2.442663   681A      2.442710  
     682A      2.443705   683A      2.444252   684A      2.446562  
     685A      2.450598   686A      2.450721   687A      2.451158  
     688A      2.454583   689A      2.461251   690A      2.461996  
     691A      2.464443   692A      2.464650   693A      2.470004  
     694A      2.481166   695A      2.481235   696A      2.487951  
     697A      2.491198   698A      2.493371   699A      2.493494  
     700A      2.501986   701A      2.504147   702A      2.505270  
     703A      2.510918   704A      2.518823   705A      2.518861  
     706A      2.524037   707A      2.527740   708A      2.527772  
     709A      2.534205   710A      2.538095   711A      2.540753  
     712A      2.543465   713A      2.544033   714A      2.547820  
     715A      2.556640   716A      2.557334   717A      2.557530  
     718A      2.557870   719A      2.572380   720A      2.574156  
     721A      2.576470   722A      2.576610   723A      2.578208  
     724A      2.585919   725A      2.595412   726A      2.598375  
     727A      2.607202   728A      2.607328   729A      2.613850  
     730A      2.615444   731A      2.620943   732A      2.621178  
     733A      2.621219   734A      2.622045   735A      2.629191  
     736A      2.631637   737A      2.631749   738A      2.636686  
     739A      2.644247   740A      2.651842   741A      2.652800  
     742A      2.665157   743A      2.676699   744A      2.676775  
     745A      2.694573   746A      2.696454   747A      2.696816  
     748A      2.703578   749A      2.703617   750A      2.704054  
     751A      2.704542   752A      2.707304   753A      2.718430  
     754A      2.721614   755A      2.722339   756A      2.724382  
     757A      2.728802   758A      2.729098   759A      2.730922  
     760A      2.731981   761A      2.747494   762A      2.748295  
     763A      2.763090   764A      2.763714   765A      2.772195  
     766A      2.772748   767A      2.778780   768A      2.782329  
     769A      2.782981   770A      2.786524   771A      2.786726  
     772A      2.790228   773A      2.790621   774A      2.795768  
     775A      2.796126   776A      2.815627   777A      2.816511  
     778A      2.816778   779A      2.818316   780A      2.819328  
     781A      2.820907   782A      2.830246   783A      2.830377  
     784A      2.830722   785A      2.840304   786A      2.845544  
     787A      2.852787   788A      2.868607   789A      2.870607  
[...]
     712A      1.403122   713A      1.404832   714A      1.404877  
     715A      1.408552   716A      1.408622   717A      1.413231  
     718A      1.413735   719A      1.420105   720A      1.423028  
     721A      1.428690   722A      1.429624   723A      1.430273  
     724A      1.436454   725A      1.436627   726A      1.438222  
     727A      1.439875   728A      1.440717   729A      1.440833  
     730A      1.447266   731A      1.448989   732A      1.450548  
     733A      1.450564   734A      1.464927   735A      1.466689  
     736A      1.476080   737A      1.476825   738A      1.516941  
     739A      1.517181   740A      1.521524   741A      1.521742  
     742A      1.532684   743A      1.552375   744A      1.578304  
     745A      1.599721   746A      1.600204   747A      1.600874  
     748A      1.608946   749A      1.609459   750A      1.610288  
     751A      1.613148   752A      1.613369   753A      1.618007  
     754A      1.622293   755A      1.622967   756A      1.631778  
     757A      1.632461   758A      1.640605   759A      1.640809  
     760A      1.641208   761A      1.643572   762A      1.643929  
     763A      1.644471   764A      1.644906   765A      1.650610  
     766A      1.650934   767A      1.661047   768A      1.661324  
     769A      1.668132   770A      1.676343   771A      1.676501  
     772A      1.676639   773A      1.676837   774A      1.677113  
     775A      1.679069   776A      1.683010   777A      1.684809  
     778A      1.686731   779A      1.686888   780A      1.696121  
     781A      1.698582   782A      1.699434   783A      1.699503  
     784A      1.702416   785A      1.704853   786A      1.704902  
     787A      1.715721   788A      1.716386   789A      1.741727  
     790A      1.748130   791A      1.751557   792A      1.757103  
     793A      1.760439   794A      1.761011   795A      1.761098  
     796A      1.762041   797A      1.776835   798A      1.776871  
     799A      1.791733   800A      1.791963   801A      1.816714  
     802A      1.816793   803A      1.817454   804A      1.819885  
     805A      1.824751   806A      1.824845   807A      1.830792  
     808A      1.831193   809A      1.838925   810A      1.842435  
     811A      1.844525   812A      1.851211   813A      1.860849  
     814A      1.861368   815A      1.863309   816A      1.864331  
     817A      1.865581   818A      1.869626   819A      1.872658  
     820A      1.880249   821A      1.880281   822A      1.896335  
     823A      1.896406   824A      1.899679   825A      1.903098  
     826A      1.903180   827A      1.908712   828A      1.908860  
     829A      1.914905   830A      1.917660   831A      1.917867  
     832A      1.918391   833A      1.919278   834A      1.922091  
     835A      1.922146   836A      1.940508   837A      1.942005  
     838A      1.942225   839A      1.943002   840A      1.946776  
     841A      1.947054   842A      1.954876   843A      1.955674  
     844A      1.955936   845A      1.956572   846A      1.958055  
     847A      1.972217   848A      1.983844   849A      1.984285  
     850A      1.991936   851A      1.997149   852A      1.998707  
     853A      1.999141   854A      2.005971   855A      2.008436  
     856A      2.012443   857A      2.013280   858A      2.027910  
     859A      2.029816   860A      2.030338   861A      2.030935  
     862A      2.031190   863A      2.031559   864A      2.032255  
     865A      2.048158   866A      2.052404   867A      2.053073  
     868A      2.058459   869A      2.059227   870A      2.061614  
     871A      2.062948   872A      2.069023   873A      2.071375  
     874A      2.072334   875A      2.073654   876A      2.077247  
     877A      2.079033   878A      2.082988   879A      2.086484  
     880A      2.088054   881A      2.093361   882A      2.095107  
     883A      2.096890   884A      2.096991   885A      2.100812  
     886A      2.100986   887A      2.108427   888A      2.108608  
     889A      2.109294   890A      2.111388   891A      2.112070  
     892A      2.114810   893A      2.117037   894A      2.119822  
     895A      2.119889   896A      2.121144   897A      2.121413  
     898A      2.126994   899A      2.128301   900A      2.134417  
     901A      2.134618   902A      2.136054   903A      2.136276  
     904A      2.143252   905A      2.143275   906A      2.156298  
     907A      2.160308   908A      2.160428   909A      2.163146  
     910A      2.163245   911A      2.171539   912A      2.178742  
     913A      2.179049   914A      2.190745   915A      2.191037  
     916A      2.192541   917A      2.194027   918A      2.195888  
     919A      2.195948   920A      2.199840   921A      2.219719  
     922A      2.220401   923A      2.220478   924A      2.228168  
     925A      2.228826   926A      2.229542   927A      2.231032  
     928A      2.243351   929A      2.243889   930A      2.244078  
     931A      2.244584   932A      2.247522   933A      2.260248  
     934A      2.260418   935A      2.270273   936A      2.270407  
     937A      2.272128   938A      2.272357   939A      2.281077  
     940A      2.300256   941A      2.306704   942A      2.310775  
     943A      2.312471   944A      2.322382   945A      2.322756  
     946A      2.331133   947A      2.331226   948A      2.331417  
     949A      2.334299   950A      2.350895   951A      2.351815  
     952A      2.352593   953A      2.352910   954A      2.366468  
     955A      2.366753   956A      2.374754   957A      2.380827  
     958A      2.415981   959A      2.424046   960A      2.424463  
     961A      2.424479   962A      2.436485   963A      2.441258  
     964A      2.441395   965A      2.470082   966A      2.473217  
     967A      2.473623   968A      2.485646   969A      2.485901  
     970A      2.502340   971A      2.519681   972A      2.529932  
     973A      2.530334   974A      2.544245   975A      2.545910  
     976A      2.546219   977A      2.554478   978A      2.554500  
     979A      2.554875   980A      2.559928   981A      2.560021  
     982A      2.573035   983A      2.573101   984A      2.574800  
     985A      2.575297   986A      2.586164   987A      2.586275  
     988A      2.587409   989A      2.589846   990A      2.591418  
     991A      2.607024   992A      2.623688   993A      2.623896  
     994A      2.626538   995A      2.631449   996A      2.632142  
     997A      2.641351   998A      2.641471   999A      2.650967  
    1000A      2.651311  1001A      2.656878  1002A      2.682372  
    1003A      2.683646  1004A      2.684081  1005A      2.686980  
    1006A      2.702280  1007A      2.702603  1008A      2.713074  
    1009A      2.713122  1010A      2.718820  1011A      2.718837  
    1012A      2.723318  1013A      2.723522  1014A      2.739175  
    1015A      2.752476  1016A      2.752958  1017A      2.777601  
    1018A      2.794865  1019A      2.795021  1020A      2.816019  
    1021A      2.820103  1022A      2.826428  1023A      2.827148  
    1024A      2.828529  1025A      2.829702  1026A      2.853300  
    1027A      2.854542  1028A      2.856121  1029A      2.858391  
    1030A      2.859709  1031A      2.859860  1032A      2.868738  
    1033A      2.917004  1034A      2.917889  1035A      2.924570  
    1036A      2.933657  1037A      2.933802  1038A      2.949774  
    1039A      2.950150  1040A      2.963226  1041A      3.009114  
    1042A      3.009269  1043A      3.011919  1044A      3.029591  
    1045A      3.064282  1046A      3.064531  1047A      3.070672  
    1048A      3.071095  1049A      3.109875  1050A      3.110516  
    1051A      3.128710  1052A      3.129812  1053A      3.130151  
    1054A      3.137490  1055A      3.146841  1056A      3.147004  
    1057A      3.147222  1058A      3.149232  1059A      3.149458  
    1060A      3.158178  1061A      3.158961  1062A      3.166271  
    1063A      3.166679  1064A      3.191815  1065A      3.211164  
    1066A      3.219330  1067A      3.237848  1068A      3.274455  
    1069A      3.276967  1070A      3.277137  1071A      3.282099  
    1072A      3.282802  1073A      3.416588  1074A      3.416992  
    1075A      3.443235  1076A      3.481710  1077A      3.484504  
    1078A      3.549730  1079A      3.577477  1080A      3.579313  
    1081A      3.593945  1082A      3.626717  1083A      3.628800  
    1084A      3.663192  1085A      3.670060  1086A      3.769269  
    1087A      3.782985  1088A      3.783899  1089A      3.870948  
    1090A      3.870992  1091A      3.913328  1092A      3.913536  
    1093A      3.976973  1094A      4.010971  1095A      4.034292  
    1096A      4.046675  1097A      4.082342  1098A      4.200689  
    1099A      4.225436  1100A      4.227428  1101A      4.343324  
    1102A      5.749157  1103A      5.749267  1104A      5.751706  
    1105A      5.754753  1106A      5.755649  1107A      5.759615  
    1108A      5.761041  1109A      5.762831  1110A      5.781407  
    1111A      5.784657  1112A      5.786777  1113A      6.020701  
    1114A      6.021046  1115A      6.022256  1116A      6.194899  
    1117A      6.327590  1118A      6.327874  1119A      6.376028  
    1120A      6.377476  1121A      6.378914  1122A      7.156330  
    1123A      7.226596  1124A      7.228698  1125A      7.246804  
    1126A      7.251189  1127A      7.266706  1128A      7.272686  
    1129A      7.279601  1130A      7.463940  1131A      7.488240  
    1132A      7.493845  1133A      7.628200  1134A     12.608124  
    1135A     42.910942  1136A     42.916723  1137A     42.919843  
    1138A     42.941798  

    Final Occupation by Irrep:
              A 
    DOCC [   171 ]
    NA   [   171 ]
    NB   [   171 ]

  @DF-RHF Final Energy: -2055.89213529366589

   => Energetics <=

    Nuclear Repulsion Energy =           6452.5568002797781446
    One-Electron Energy =              -15636.4430846875438874
    Two-Electron Energy =                7127.9941491141007646
    Total Energy =                      -2055.8921352936658877

Computation Completed


Properties will be evaluated at   0.000000,   0.000000,   0.000000 [a0]

Properties computed using the SCF density matrix


 Multipole Moments:

 ------------------------------------------------------------------------------------
     Multipole            Electronic (a.u.)      Nuclear  (a.u.)        Total (a.u.)
 ------------------------------------------------------------------------------------

 L = 1.  Multiply by 2.5417464519 to convert [e a0] to [Debye]
 Dipole X            :          0.0000736            0.0000112            0.0000848
 Dipole Y            :          0.0000953           -0.0000531            0.0000421
 Dipole Z            :        433.0159002         -433.0209184           -0.0050182
 Magnitude           :                                                    0.0050191

 ------------------------------------------------------------------------------------

*** tstop() called on d-16-12-3 at Mon Jan 22 12:12:45 2024
Module time:
	user time   =    2104.27 seconds =      35.07 minutes
	system time =      36.78 seconds =       0.61 minutes
	total time  =        220 seconds =       3.67 minutes
Total time:
	user time   =    6990.03 seconds =     116.50 minutes
	system time =     149.72 seconds =       2.50 minutes
	total time  =        745 seconds =      12.42 minutes
  Constructing Basis Sets for SAPT...

   => Loading Basis Set <=

    Name: (JUN-CC-PVDZ AUX)
    Role: RIFIT
    Keyword: DF_BASIS_SAPT
    atoms 1     entry B          line    56 file /home/gridsan/tfroembgen/.conda/envs/psi4test/share/psi4/basis/jun-cc-pvdz-ri.gbs 
    atoms 2-5   entry F          line   232 file /home/gridsan/tfroembgen/.conda/envs/psi4test/share/psi4/basis/jun-cc-pvdz-ri.gbs 
    atoms 6-59  entry C          line   100 file /home/gridsan/tfroembgen/.conda/envs/psi4test/share/psi4/basis/jun-cc-pvdz-ri.gbs 
    atoms 60-77 entry H          line    30 file /home/gridsan/tfroembgen/.conda/envs/psi4test/share/psi4/basis/jun-cc-pvdz-ri.gbs 

   => Loading Basis Set <=

    Name: (JUN-CC-PVDZ AUX)
    Role: JKFIT
    Keyword: DF_BASIS_ELST
    atoms 1     entry B          line    90 file /home/gridsan/tfroembgen/.conda/envs/psi4test/share/psi4/basis/jun-cc-pvdz-jkfit.gbs 
    atoms 2-5   entry F          line   314 file /home/gridsan/tfroembgen/.conda/envs/psi4test/share/psi4/basis/jun-cc-pvdz-jkfit.gbs 
    atoms 6-59  entry C          line   146 file /home/gridsan/tfroembgen/.conda/envs/psi4test/share/psi4/basis/jun-cc-pvdz-jkfit.gbs 
    atoms 60-77 entry H          line    70 file /home/gridsan/tfroembgen/.conda/envs/psi4test/share/psi4/basis/jun-cc-pvdz-jkfit.gbs 


  //>>>>>>>>>>>>>>>>>>>>>>>>>>>>>>>>>>>//
  //               SSAPT0              //
  //<<<<<<<<<<<<<<<<<<<<<<<<<<<<<<<<<<<//


*** tstart() called on d-16-12-3
*** at Mon Jan 22 12:12:46 2024

        SAPT0  
    Ed Hohenstein
     6 June 2009

      Orbital Information
  --------------------------
    NSO        =      1152
    NMO        =      1138
    NRI        =      4087
    NRI (Elst) =      5075
    NOCC A     =        21
    NOCC B     =       171
    FOCC A     =         5
    FOCC B     =        54
    NVIR A     =      1117
    NVIR B     =       967

    Elst10,r            =     0.009596341999 [Eh]
    Exch10              =     0.000004549601 [Eh]
    Exch10 (S^2)        =     0.000004549659 [Eh]

    Iter     Energy [mEh]          dE [mEh]         Residual      Time [s]
       1      -0.00862535       0.008625347       0.638009215           224
       2      -0.01003446       0.001409113       0.328245450           363
       3      -0.01058614       0.000551682       0.062574975           387
       4      -0.01058644       0.000000299       0.013306698           402
       5      -0.01057046      -0.000015983       0.001809319           415
       6      -0.01057264       0.000002181       0.000343734           429
       7      -0.01057254      -0.000000097       0.000097313           441
       8      -0.01057251      -0.000000030       0.000026485           458
       9      -0.01057251      -0.000000004       0.000004323           473
      10      -0.01057251       0.000000002       0.000000544           489

    CHF Iterations converged


    Iter     Energy [mEh]          dE [mEh]         Residual      Time [s]
       1      -6.14334886       6.143348858      41.351270154           209
       2      -4.14615304      -1.997195815       5.313451753           467
       3      -4.14185673      -0.004296310       1.827499030           499
       4      -4.23819640       0.096339667       0.418514559           522
       5      -4.24315630       0.004959900       0.119992087           541
       6      -4.24119605      -0.001960246       0.058666885           562
       7      -4.24054768      -0.000648373       0.025620131           584
       8      -4.24088947       0.000341788       0.014996899           605
       9      -4.24101187       0.000122405       0.009426838           629
      10      -4.24092821      -0.000083665       0.006502458           651
      11      -4.24090169      -0.000026521       0.003052297           670
      12      -4.24091197       0.000010279       0.001164597           690
      13      -4.24091984       0.000007875       0.000425162           709
      14      -4.24091942      -0.000000419       0.000144385           732
      15      -4.24091800      -0.000001419       0.000055178           760
      16      -4.24091825       0.000000250       0.000036033           778
      17      -4.24091847       0.000000216       0.000015290           795
      18      -4.24091844      -0.000000032       0.000005532           813
      19      -4.24091840      -0.000000035       0.000002892           829
      20      -4.24091840      -0.000000004       0.000001370           848
      21      -4.24091841       0.000000010       0.000000686           866

    CHF Iterations converged

    Ind20,r (A<-B)      =    -0.000010572511 [Eh]
    Ind20,r (B<-A)      =    -0.004240918409 [Eh]
    Ind20,r             =    -0.004251490920 [Eh]
    Exch-Ind20,r (A<-B) =     0.000001059923 [Eh]
    Exch-Ind20,r (B<-A) =     0.000001567247 [Eh]
    Exch-Ind20,r        =     0.000002627170 [Eh]
    Disp20              =    -0.001045233603 [Eh]
    Disp20 (SS)         =    -0.000522616802 [Eh]
    Disp20 (OS)         =    -0.000522616802 [Eh]
    Exch-Disp20         =     0.000003229503 [Eh]
    Exch-Disp20 (SS)    =     0.000002434194 [Eh]
    Exch-Disp20 (OS)    =     0.000000795310 [Eh]

    SAPT Results 
  --------------------------------------------------------------------------------------------------------
    Electrostatics                  9.59634200 [mEh]       6.02179552 [kcal/mol]      25.19519245 [kJ/mol]
      Elst10,r                      9.59634200 [mEh]       6.02179552 [kcal/mol]      25.19519245 [kJ/mol]

    Exchange                        0.00454960 [mEh]       0.00285492 [kcal/mol]       0.01194498 [kJ/mol]
      Exch10                        0.00454960 [mEh]       0.00285492 [kcal/mol]       0.01194498 [kJ/mol]
      Exch10(S^2)                   0.00454966 [mEh]       0.00285495 [kcal/mol]       0.01194513 [kJ/mol]

    Induction                      -4.20860084 [mEh]      -2.64093690 [kcal/mol]     -11.04967999 [kJ/mol]
      Ind20,r                      -4.25149092 [mEh]      -2.66785083 [kcal/mol]     -11.16228787 [kJ/mol]
      Exch-Ind20,r                  0.00262717 [mEh]       0.00164857 [kcal/mol]       0.00689763 [kJ/mol]
      delta HF,r (2)                0.04026291 [mEh]       0.02526536 [kcal/mol]       0.10571025 [kJ/mol]

    Dispersion                     -1.04200410 [mEh]      -0.65386744 [kcal/mol]      -2.73578139 [kJ/mol]
      Disp20                       -1.04523360 [mEh]      -0.65589399 [kcal/mol]      -2.74426045 [kJ/mol]
      Exch-Disp20                   0.00322950 [mEh]       0.00202654 [kcal/mol]       0.00847906 [kJ/mol]
      Disp20 (SS)                  -0.52261680 [mEh]      -0.32794699 [kcal/mol]      -1.37213022 [kJ/mol]
      Disp20 (OS)                  -0.52261680 [mEh]      -0.32794699 [kcal/mol]      -1.37213022 [kJ/mol]
      Exch-Disp20 (SS)              0.00243419 [mEh]       0.00152748 [kcal/mol]       0.00639097 [kJ/mol]
      Exch-Disp20 (OS)              0.00079531 [mEh]       0.00049906 [kcal/mol]       0.00208809 [kJ/mol]

  Total HF                          5.39229076 [mEh]       3.38371354 [kcal/mol]      14.15745743 [kJ/mol]
  Total SAPT0                       4.35028666 [mEh]       2.72984609 [kcal/mol]      11.42167604 [kJ/mol]

  Special recipe for scaled SAPT0 (see Manual):
    Electrostatics sSAPT0           9.59634200 [mEh]       6.02179552 [kcal/mol]      25.19519245 [kJ/mol]
    Exchange sSAPT0                 0.00454960 [mEh]       0.00285492 [kcal/mol]       0.01194498 [kJ/mol]
    Induction sSAPT0               -4.20860084 [mEh]      -2.64093690 [kcal/mol]     -11.04967999 [kJ/mol]
    Dispersion sSAPT0              -1.04200410 [mEh]      -0.65386744 [kcal/mol]      -2.73578139 [kJ/mol]
  Total sSAPT0                      4.35028666 [mEh]       2.72984609 [kcal/mol]      11.42167604 [kJ/mol]
  --------------------------------------------------------------------------------------------------------

*** tstop() called on d-16-12-3 at Mon Jan 22 13:17:52 2024
Module time:
	user time   =    7160.57 seconds =     119.34 minutes
	system time =     746.81 seconds =      12.45 minutes
	total time  =       3906 seconds =      65.10 minutes
Total time:
	user time   =   14152.19 seconds =     235.87 minutes
	system time =     896.53 seconds =      14.94 minutes
	total time  =       4652 seconds =      77.53 minutes

    Psi4 stopped on: Monday, 22 January 2024 01:17PM
    Psi4 wall time for execution: 1:17:33.42

*** Psi4 exiting successfully. Buy a developer a beer!
