
    -----------------------------------------------------------------------
          Psi4: An Open-Source Ab Initio Electronic Structure Package
                               Psi4 1.9 release

                         Git: Rev {} zzzzzzz 


    D. G. A. Smith, L. A. Burns, A. C. Simmonett, R. M. Parrish,
    M. C. Schieber, R. Galvelis, P. Kraus, H. Kruse, R. Di Remigio,
    A. Alenaizan, A. M. James, S. Lehtola, J. P. Misiewicz, M. Scheurer,
    R. A. Shaw, J. B. Schriber, Y. Xie, Z. L. Glick, D. A. Sirianni,
    J. S. O'Brien, J. M. Waldrop, A. Kumar, E. G. Hohenstein,
    B. P. Pritchard, B. R. Brooks, H. F. Schaefer III, A. Yu. Sokolov,
    K. Patkowski, A. E. DePrince III, U. Bozkaya, R. A. King,
    F. A. Evangelista, J. M. Turney, T. D. Crawford, C. D. Sherrill,
    J. Chem. Phys. 152(18) 184108 (2020). https://doi.org/10.1063/5.0006002

                            Additional Code Authors
    E. T. Seidl, C. L. Janssen, E. F. Valeev, M. L. Leininger,
    J. F. Gonthier, R. M. Richard, H. R. McAlexander, M. Saitow, X. Wang,
    P. Verma, M. H. Lechner, A. Jiang, S. Behnle, A. G. Heide,
    M. F. Herbst, and D. L. Poole

             Previous Authors, Complete List of Code Contributors,
                       and Citations for Specific Modules
    https://github.com/psi4/psi4/blob/master/codemeta.json
    https://github.com/psi4/psi4/graphs/contributors
    http://psicode.org/psi4manual/master/introduction.html#citing-psifour

    -----------------------------------------------------------------------


    Psi4 started on: Monday, 22 January 2024 10:26AM

    Process ID: 1546465
    Host:       d-17-1-1
    PSIDATADIR: /home/gridsan/tfroembgen/.conda/envs/psi4test/share/psi4
    Memory:     500.0 MiB
    Threads:    12
    
  ==> Input File <==

--------------------------------------------------------------------------
memory 32 GB # how much memory is available ! Depends on the nodes/cores !

molecule dimer {
# monomer A
-1 1    # Charge and multiplicity
B -1.977592e-04  2.742729e-04 7.200034
F  1.123153e-16  1.430594e-17 8.612819
F  1.147860e+00  6.757812e-01 6.728893
F  1.191806e-02 -1.332011e+00 6.729095
F -1.159666e+00  6.560735e-01 6.729174
--
# monomer B
0 1     # Charge and multiplicity
C   1.22531237526482      0.70753866091955      0.00613762728373
C   1.22532433589282     -0.70753852257020     -0.00619318228664
C   -0.00000567409046      1.41496628609039     -0.00672680580738
C   2.45644923379077      1.41832825917820      0.00902448468363
C   0.00001130712078     -1.41497612663474      0.00347275151708
C   -1.22530046906674      0.70754574598412      0.00838914760619
C   2.45643823516184     -1.41832293188077     -0.00843833914343
C   -0.00000085313587      2.83680140328112     -0.00913035594137
C   3.68182717731192      0.70931832800114     -0.00808954934571
C   2.45512052870677      2.83422403348893     -0.00819210630633
C   3.68182158506039     -0.70933346742900      0.00798293467272
C   -1.22531311884624     -0.70752714354401     -0.00512042085974
C   1.22670006104402      3.54346985599427      0.00816696660346
C   0.00000526469929     -2.83678176723568      0.00832091913869
C   -2.45643555300670      1.41831729028492      0.00842454345199
C   2.45512389762097     -2.83422965658853      0.00783102630520
C   -1.22671388474763      3.54346943575023      0.00827029982280
C   4.91451777504333      1.42717324448953     -0.00160886631602
C   3.69315067131765      3.54279566454522     -0.00155906667985
C   -2.45643712022637     -1.41831290883911     -0.00846337726810
C   1.22670532178455     -3.54347386990643     -0.00780316414624
C   -2.45512491866593      2.83421703463423     -0.00818572995999
C   4.91452486062398     -1.42718653794377      0.00136387641845
C   1.22142509354026      4.97013443726031      0.00150231067809
C   4.89300870916237      2.82518837202648     -0.00039219795739
C   -1.22669652864725     -3.54347062507680     -0.00753595973677
C   -3.68181849668397      0.70932533873199     -0.00807686886569
C   3.69314758099218     -3.54280096939050      0.00148176697923
C   -1.22143177215231      4.97012866986289      0.00168580605083
C   6.13477145276790      0.68054831910577     -0.00083909176631
C   3.65678936045204      4.97295361556775     -0.00065042889723
C   -2.45512642789169     -2.83421472106065      0.00758666850712
C   -3.68181869921921     -0.70932533146830      0.00810055625144
C   4.89301309775526     -2.82519973363176      0.00021895393805
C   -0.00000059327114      5.65044773803267      0.00045449734393
C   6.13477559217374     -0.68055448207492      0.00042622874941
C   2.47813196269732      5.65357712333155      0.00063835075260
C   1.22142288457925     -4.97012668293268     -0.00129718634452
C   -3.69316190412301      3.54279732619245     -0.00139355922051
C   -1.22142804110313     -4.97011793159564     -0.00140994817719
C   -4.91452132810043      1.42717581899491     -0.00153192130862
C   3.65678749952045     -4.97295485423912      0.00080007163680
C   -2.47813805026426      5.65357479452875      0.00092287576113
C   -3.69314125872231     -3.54278984697859      0.00136564082345
C   -4.91451200321153     -1.42718062802730      0.00139857359209
C   -0.00000552908399     -5.65043791501335      0.00005899322272
C   -4.89302000425900      2.82518897091939     -0.00040227981744
C   2.47812647313991     -5.65357317188818     -0.00029052915548
C   -3.65679823041642      4.97295655404175     -0.00047374852278
C   -4.89299899901461     -2.82519139505969      0.00006491824035
C   -2.47812801824129     -5.65356579800621     -0.00056571680280
C   -6.13477002348955      0.68054913825639     -0.00086464346868
C   -3.65678835334731     -4.97294365097028      0.00058578382008
C   -6.13476456307132     -0.68055354348201      0.00040575295444
H   5.83528897565761      3.36927626695423      0.00396712770529
H   7.07385965258860      1.22821762089947     -0.00037744837300
H   4.60066374401555      5.51238117445323     -0.00014522814529
H   5.83528386714679     -3.36930568472863     -0.00423551337640
H   -0.00001167146422      6.73853104613662     -0.00389474766392
H   7.07386165167227     -1.22822657074368     -0.00008250934481
H   2.47331421164041      6.74068466339473      0.00017162982210
H   4.60066897122302     -5.51237575717576      0.00039007446835
H   -2.47331820069565      6.74068209160650      0.00047297644710
H   -0.00000978838621     -6.73852780445195      0.00458867820736
H   -5.83530143450167      3.36927132229595      0.00410314985360
H   2.47330840367253     -6.74068500242887      0.00027980126949
H   -4.60067436136587      5.51237839860371      0.00002010017831
H   -5.83527902699321     -3.36928859177951     -0.00451481925734
H   -2.47329986759855     -6.74067870613986     -0.00016951527498
H   -7.07385728692578      1.22822084484047     -0.00046143985387
H   -4.60067330624313     -5.51236229778631      0.00021776644566
H   -7.07385645456741     -1.22822025997701     -0.00017736581114

    units angstrom      # Angstroms are the default
    no_reorient         # Geometry fixed, default
    symmetry c1         # C1 symmetry, default
}

set {
    scf_type DF         # Density fitting, faster than exact integrals
    freeze_core True    # Freeze core electrons
    basis jun-cc-pVDZ   # Jun-cc-pVDZ basis set, recommended for sSAPT0 in https://doi.org/10.1063/1.4867135
}

energy('ssapt0')        # Compute sSAPT0 energy, includes also SAPT0
--------------------------------------------------------------------------

  Memory set to  29.802 GiB by Python driver.

Scratch directory: /state/partition1/slurm_tmp/24790950.4294967291.0/
   => Loading Basis Set <=

    Name: JUN-CC-PVDZ
    Role: ORBITAL
    Keyword: BASIS
    atoms 1     entry B          line   130 file /home/gridsan/tfroembgen/.conda/envs/psi4test/share/psi4/basis/jun-cc-pvdz.gbs 
    atoms 2-5   entry F          line   266 file /home/gridsan/tfroembgen/.conda/envs/psi4test/share/psi4/basis/jun-cc-pvdz.gbs 
    atoms 6-59  entry C          line   164 file /home/gridsan/tfroembgen/.conda/envs/psi4test/share/psi4/basis/jun-cc-pvdz.gbs 
    atoms 60-77 entry H          line    36 file /home/gridsan/tfroembgen/.conda/envs/psi4test/share/psi4/basis/jun-cc-pvdz.gbs 

   => Loading Basis Set <=

    Name: JUN-CC-PVDZ
    Role: ORBITAL
    Keyword: BASIS
    atoms 1     entry B          line   130 file /home/gridsan/tfroembgen/.conda/envs/psi4test/share/psi4/basis/jun-cc-pvdz.gbs 
    atoms 2-5   entry F          line   266 file /home/gridsan/tfroembgen/.conda/envs/psi4test/share/psi4/basis/jun-cc-pvdz.gbs 
    atoms 6-59  entry C          line   164 file /home/gridsan/tfroembgen/.conda/envs/psi4test/share/psi4/basis/jun-cc-pvdz.gbs 
    atoms 60-77 entry H          line    36 file /home/gridsan/tfroembgen/.conda/envs/psi4test/share/psi4/basis/jun-cc-pvdz.gbs 


  //>>>>>>>>>>>>>>>>>>>>>>>>>>>>>>>>>>>//
  //              Dimer HF             //
  //<<<<<<<<<<<<<<<<<<<<<<<<<<<<<<<<<<<//

   => Libint2 <=

    Primary   basis highest AM E, G, H:  7, 7, 4
    Auxiliary basis highest AM E, G, H:  7, 7, 5
    Onebody   basis highest AM E, G, H:  7, 7, 5
    Solid Harmonics ordering:            gaussian

*** tstart() called on d-17-1-1
*** at Mon Jan 22 10:26:38 2024

   => Loading Basis Set <=

    Name: JUN-CC-PVDZ
    Role: ORBITAL
    Keyword: BASIS
    atoms 1     entry B          line   130 file /home/gridsan/tfroembgen/.conda/envs/psi4test/share/psi4/basis/jun-cc-pvdz.gbs 
    atoms 2-5   entry F          line   266 file /home/gridsan/tfroembgen/.conda/envs/psi4test/share/psi4/basis/jun-cc-pvdz.gbs 
    atoms 6-59  entry C          line   164 file /home/gridsan/tfroembgen/.conda/envs/psi4test/share/psi4/basis/jun-cc-pvdz.gbs 
    atoms 60-77 entry H          line    36 file /home/gridsan/tfroembgen/.conda/envs/psi4test/share/psi4/basis/jun-cc-pvdz.gbs 


         ---------------------------------------------------------
                                   SCF
               by Justin Turney, Rob Parrish, Andy Simmonett
                          and Daniel G. A. Smith
                              RHF Reference
                       12 Threads,  30517 MiB Core
         ---------------------------------------------------------

  ==> Geometry <==

    Molecular point group: c1
    Full point group: C1

    Geometry (in Angstrom), charge = -1, multiplicity = 1:

       Center              X                  Y                   Z               Mass       
    ------------   -----------------  -----------------  -----------------  -----------------
         B           -0.000198161052     0.000273808717     6.368294602485    11.009305360000
         F           -0.000000401852    -0.000000464183     7.781079602485    18.998403162730
         F            1.147859598148     0.675780735817     5.897153602485    18.998403162730
         F            0.011917658148    -1.332011464183     5.897355602485    18.998403162730
         F           -1.159666401852     0.656073035817     5.897434602485    18.998403162730
         C            1.225311973413     0.707538196736    -0.825601770231    12.000000000000
         C            1.225323934041    -0.707538986754    -0.837932579802    12.000000000000
         C           -0.000006075942     1.414965821907    -0.838466203322    12.000000000000
         C            2.456448831939     1.418327794995    -0.822714912831    12.000000000000
         C            0.000010905269    -1.414976590818    -0.828266645998    12.000000000000
         C           -1.225300870919     0.707545281801    -0.823350249909    12.000000000000
         C            2.456437833310    -1.418323396064    -0.840177736658    12.000000000000
         C           -0.000001254988     2.836800939098    -0.840869753456    12.000000000000
         C            3.681826775460     0.709317863818    -0.839828946861    12.000000000000
         C            2.455120126855     2.834223569306    -0.839931503821    12.000000000000
         C            3.681821183209    -0.709333931612    -0.823756462842    12.000000000000
         C           -1.225313520698    -0.707527607727    -0.836859818375    12.000000000000
         C            1.226699659192     3.543469391811    -0.823572430912    12.000000000000
         C            0.000004862847    -2.836782231419    -0.823418478376    12.000000000000
         C           -2.456435954859     1.418316826102    -0.823314854063    12.000000000000
         C            2.455123495769    -2.834230120772    -0.823908371210    12.000000000000
         C           -1.226714286599     3.543468971567    -0.823469097692    12.000000000000
         C            4.914517373191     1.427172780306    -0.833348263831    12.000000000000
         C            3.693150269466     3.542795200362    -0.833298464195    12.000000000000
         C           -2.456437522078    -1.418313373022    -0.840202774783    12.000000000000
         C            1.226704919933    -3.543474334090    -0.839542561661    12.000000000000
         C           -2.455125320518     2.834216570451    -0.839925127475    12.000000000000
         C            4.914524458772    -1.427187002127    -0.830375521097    12.000000000000
         C            1.221424691688     4.970133973077    -0.830237086837    12.000000000000
         C            4.893008307311     2.825187907843    -0.832131595472    12.000000000000
         C           -1.226696930499    -3.543471089260    -0.839275357252    12.000000000000
         C           -3.681818898536     0.709324874549    -0.839816266381    12.000000000000
         C            3.693147179140    -3.542801433574    -0.830257630536    12.000000000000
         C           -1.221432174004     4.970128205680    -0.830053591464    12.000000000000
         C            6.134771050916     0.680547854922    -0.832578489281    12.000000000000
         C            3.656788958600     4.972953151384    -0.832389826412    12.000000000000
         C           -2.455126829744    -2.834215185244    -0.824152729008    12.000000000000
         C           -3.681819101071    -0.709325795652    -0.823638841264    12.000000000000
         C            4.893012695903    -2.825200197815    -0.831520443577    12.000000000000
         C           -0.000000995123     5.650447273849    -0.831284900171    12.000000000000
         C            6.134775190322    -0.680554946258    -0.831313168766    12.000000000000
         C            2.478131560845     5.653576659148    -0.831101046762    12.000000000000
         C            1.221422482727    -4.970127147116    -0.833036583860    12.000000000000
         C           -3.693162305975     3.542796862009    -0.833132956736    12.000000000000
         C           -1.221428442955    -4.970118395779    -0.833149345692    12.000000000000
         C           -4.914521729952     1.427175354812    -0.833271318824    12.000000000000
         C            3.656787097669    -4.972955318422    -0.830939325878    12.000000000000
         C           -2.478138452116     5.653574330345    -0.830816521754    12.000000000000
         C           -3.693141660574    -3.542790311162    -0.830373756692    12.000000000000
         C           -4.914512405063    -1.427181092211    -0.830340823923    12.000000000000
         C           -0.000005930936    -5.650438379197    -0.831680404292    12.000000000000
         C           -4.893020406111     2.825188506736    -0.832141677332    12.000000000000
         C            2.478126071288    -5.653573636072    -0.832029926670    12.000000000000
         C           -3.656798632268     4.972956089858    -0.832213146038    12.000000000000
         C           -4.892999400866    -2.825191859243    -0.831674479275    12.000000000000
         C           -2.478128420093    -5.653566262190    -0.832305114318    12.000000000000
         C           -6.134770425341     0.680548674073    -0.832604040984    12.000000000000
         C           -3.656788755199    -4.972944115154    -0.831153613695    12.000000000000
         C           -6.134764964923    -0.680554007665    -0.831333644561    12.000000000000
         H            5.835288573806     3.369275802771    -0.827772269810     1.007825032230
         H            7.073859250737     1.228217156716    -0.832116845888     1.007825032230
         H            4.600663342164     5.512380710270    -0.831884625660     1.007825032230
         H            5.835283465295    -3.369306148912    -0.835974910891     1.007825032230
         H           -0.000012073316     6.738530581953    -0.835634145179     1.007825032230
         H            7.073861249820    -1.228227034927    -0.831821906860     1.007825032230
         H            2.473313809789     6.740684199211    -0.831567767693     1.007825032230
         H            4.600668569371    -5.512376221359    -0.831349323047     1.007825032230
         H           -2.473318602548     6.740681627423    -0.831266421068     1.007825032230
         H           -0.000010190238    -6.738528268635    -0.827150719308     1.007825032230
         H           -5.835301836354     3.369270858113    -0.827636247661     1.007825032230
         H            2.473308001821    -6.740685466612    -0.831459596246     1.007825032230
         H           -4.600674763218     5.512377934420    -0.831719297337     1.007825032230
         H           -5.835279428845    -3.369289055963    -0.836254216772     1.007825032230
         H           -2.473300269450    -6.740679170323    -0.831908912790     1.007825032230
         H           -7.073857688778     1.228220380657    -0.832200837369     1.007825032230
         H           -4.600673708095    -5.512362761970    -0.831521631069     1.007825032230
         H           -7.073856856419    -1.228220724160    -0.831916763326     1.007825032230

  Running in c1 symmetry.

  Rotational constants: A =      0.00144  B =      0.00144  C =      0.00110 [cm^-1]
  Rotational constants: A =     43.22713  B =     43.22280  C =     33.02251 [MHz]
  Nuclear repulsion = 7496.221993897132961

  Charge       = -1
  Multiplicity = 1
  Electrons    = 384
  Nalpha       = 192
  Nbeta        = 192

  ==> Algorithm <==

  SCF Algorithm Type is DF.
  DIIS enabled.
  MOM disabled.
  Fractional occupation disabled.
  Guess Type is SAD.
  Energy threshold   = 1.00e-08
  Density threshold  = 1.00e-08
  Integral threshold = 1.00e-12

  ==> Primary Basis <==

  Basis Set: JUN-CC-PVDZ
    Blend: JUN-CC-PVDZ
    Number of shells: 526
    Number of basis functions: 1152
    Number of Cartesian functions: 1211
    Spherical Harmonics?: true
    Max angular momentum: 2

   => Loading Basis Set <=

    Name: (JUN-CC-PVDZ AUX)
    Role: JKFIT
    Keyword: DF_BASIS_SCF
    atoms 1     entry B          line    90 file /home/gridsan/tfroembgen/.conda/envs/psi4test/share/psi4/basis/jun-cc-pvdz-jkfit.gbs 
    atoms 2-5   entry F          line   314 file /home/gridsan/tfroembgen/.conda/envs/psi4test/share/psi4/basis/jun-cc-pvdz-jkfit.gbs 
    atoms 6-59  entry C          line   146 file /home/gridsan/tfroembgen/.conda/envs/psi4test/share/psi4/basis/jun-cc-pvdz-jkfit.gbs 
    atoms 60-77 entry H          line    70 file /home/gridsan/tfroembgen/.conda/envs/psi4test/share/psi4/basis/jun-cc-pvdz-jkfit.gbs 

  ==> Integral Setup <==

  ==> DiskDFJK: Density-Fitted J/K Matrices <==

    J tasked:                  Yes
    K tasked:                  Yes
    wK tasked:                  No
    OpenMP threads:             12
    Integrals threads:          12
    Memory [MiB]:            22888
    Algorithm:                Core
    Integral Cache:           SAVE
    Schwarz Cutoff:          1E-12
    Fitting Condition:       1E-10

   => Auxiliary Basis Set <=

  Basis Set: (JUN-CC-PVDZ AUX)
    Blend: JUN-CC-PVDZ-JKFIT
    Number of shells: 1755
    Number of basis functions: 5075
    Number of Cartesian functions: 5819
    Spherical Harmonics?: true
    Max angular momentum: 3

  Minimum eigenvalue in the overlap matrix is 8.3981472044E-10.
  Reciprocal condition number of the overlap matrix is 3.7538456942E-11.
    Using canonical orthogonalization.
  Overall, 14 of 1152 possible MOs eliminated.


  ==> Pre-Iterations <==

  SCF Guess: Superposition of Atomic Densities via on-the-fly atomic UHF (no occupation information).

   -------------------------
    Irrep   Nso     Nmo    
   -------------------------
     A       1152    1138 
   -------------------------
    Total    1152    1138
   -------------------------

  ==> Iterations <==

                           Total Energy        Delta E     RMS |[F,P]|

   @DF-RHF iter SAD: -2483.25936362169159   -2.48326e+03   0.00000e+00 
   @DF-RHF iter   1: -2477.62599157111435    5.63337e+00   1.09741e-03 ADIIS/DIIS
   @DF-RHF iter   2: -2478.51207624823473   -8.86085e-01   4.73014e-04 ADIIS/DIIS
   @DF-RHF iter   3: -2478.64250978711107   -1.30434e-01   1.30035e-04 ADIIS/DIIS
   @DF-RHF iter   4: -2478.65540491619640   -1.28951e-02   5.16206e-05 DIIS
   @DF-RHF iter   5: -2478.65763290751329   -2.22799e-03   1.56213e-05 DIIS
   @DF-RHF iter   6: -2478.65790358945742   -2.70682e-04   5.36742e-06 DIIS
   @DF-RHF iter   7: -2478.65798360602275   -8.00166e-05   2.64050e-06 DIIS
   @DF-RHF iter   8: -2478.65800560865182   -2.20026e-05   1.21728e-06 DIIS
   @DF-RHF iter   9: -2478.65801215350348   -6.54485e-06   2.47161e-07 DIIS
   @DF-RHF iter  10: -2478.65801236821562   -2.14712e-07   8.70853e-08 DIIS
   @DF-RHF iter  11: -2478.65801238450604   -1.62904e-08   3.36692e-08 DIIS
   @DF-RHF iter  12: -2478.65801238778204   -3.27600e-09   1.12725e-08 DIIS
   @DF-RHF iter  13: -2478.65801238817539   -3.93356e-10   4.11474e-09 DIIS
  Energy and wave function converged.


  ==> Post-Iterations <==

    Orbital Energies [Eh]
    ---------------------

    Doubly Occupied:                                                      

       1A    -26.064556     2A    -26.063935     3A    -26.063840  
       4A    -26.063754     5A    -11.201308     6A    -11.201301  
       7A    -11.201297     8A    -11.201277     9A    -11.201270  
      10A    -11.201259    11A    -11.201206    12A    -11.201196  
      13A    -11.201191    14A    -11.201176    15A    -11.201170  
      16A    -11.201166    17A    -11.200682    18A    -11.200451  
      19A    -11.200451    20A    -11.200226    21A    -11.200224  
      22A    -11.200155    23A    -11.199885    24A    -11.199603  
      25A    -11.199602    26A    -11.199162    27A    -11.199097  
      28A    -11.199095    29A    -11.198747    30A    -11.198747  
      31A    -11.198604    32A    -11.198578    33A    -11.198577  
      34A    -11.198175    35A    -11.198164    36A    -11.198043  
      37A    -11.198043    38A    -11.197869    39A    -11.197869  
      40A    -11.197748    41A    -11.196713    42A    -11.196712  
      43A    -11.196711    44A    -11.196710    45A    -11.196708  
      46A    -11.196707    47A    -11.195291    48A    -11.195289  
      49A    -11.195287    50A    -11.195285    51A    -11.195283  
      52A    -11.195282    53A    -11.194538    54A    -11.194538  
      55A    -11.194537    56A    -11.194489    57A    -11.194488  
      58A    -11.194487    59A     -7.536306    60A     -1.407975  
      61A     -1.348558    62A     -1.348073    63A     -1.347907  
      64A     -1.184983    65A     -1.161571    66A     -1.161570  
      67A     -1.131826    68A     -1.131818    69A     -1.122535  
      70A     -1.100424    71A     -1.091383    72A     -1.077388  
      73A     -1.077381    74A     -1.056140    75A     -1.056136  
      76A     -1.024572    77A     -1.024565    78A     -1.020748  
      79A     -1.009085    80A     -1.009081    81A     -0.982143  
      82A     -0.965989    83A     -0.963519    84A     -0.963476  
      85A     -0.960738    86A     -0.956077    87A     -0.929351  
      88A     -0.929306    89A     -0.904804    90A     -0.904754  
      91A     -0.837295    92A     -0.837267    93A     -0.829787  
      94A     -0.827961    95A     -0.827903    96A     -0.823695  
      97A     -0.823647    98A     -0.804926    99A     -0.781177  
     100A     -0.761085   101A     -0.758762   102A     -0.754586  
     103A     -0.754577   104A     -0.738038   105A     -0.738027  
     106A     -0.688772   107A     -0.687234   108A     -0.675840  
     109A     -0.675831   110A     -0.675485   111A     -0.675461  
     112A     -0.659239   113A     -0.642015   114A     -0.642004  
     115A     -0.636372   116A     -0.636356   117A     -0.604657  
     118A     -0.599253   119A     -0.595896   120A     -0.593782  
     121A     -0.593776   122A     -0.593501   123A     -0.582521  
     124A     -0.582519   125A     -0.572371   126A     -0.570244  
     127A     -0.570229   128A     -0.550408   129A     -0.546504  
     130A     -0.544078   131A     -0.543018   132A     -0.542986  
     133A     -0.536166   134A     -0.533365   135A     -0.533354  
     136A     -0.529317   137A     -0.525555   138A     -0.525400  
     139A     -0.525315   140A     -0.517614   141A     -0.517608  
     142A     -0.510910   143A     -0.510895   144A     -0.508556  
     145A     -0.508538   146A     -0.501331   147A     -0.498420  
     148A     -0.498413   149A     -0.482064   150A     -0.482061  
     151A     -0.480211   152A     -0.480205   153A     -0.472705  
     154A     -0.469149   155A     -0.465868   156A     -0.465862  
     157A     -0.444320   158A     -0.444278   159A     -0.444095  
     160A     -0.438433   161A     -0.436595   162A     -0.430112  
     163A     -0.427602   164A     -0.424667   165A     -0.424659  
     166A     -0.411779   167A     -0.411758   168A     -0.405494  
     169A     -0.405445   170A     -0.405361   171A     -0.393117  
     172A     -0.393038   173A     -0.382089   174A     -0.382066  
     175A     -0.382056   176A     -0.382025   177A     -0.381767  
     178A     -0.346497   179A     -0.346473   180A     -0.345048  
     181A     -0.318664   182A     -0.318661   183A     -0.291580  
     184A     -0.278304   185A     -0.277320   186A     -0.277258  
     187A     -0.253854   188A     -0.241772   189A     -0.225944  
     190A     -0.225892   191A     -0.167432   192A     -0.167366  

    Virtual:                                                              

     193A      0.071308   194A      0.071370   195A      0.097654  
     196A      0.097659   197A      0.099629   198A      0.100193  
     199A      0.100196   200A      0.107278   201A      0.111291  
     202A      0.122237   203A      0.122238   204A      0.122641  
     205A      0.122692   206A      0.133011   207A      0.137016  
     208A      0.137025   209A      0.139132   210A      0.139804  
     211A      0.139827   212A      0.142201   213A      0.142213  
     214A      0.143962   215A      0.146113   216A      0.148596  
     217A      0.148599   218A      0.156792   219A      0.157141  
     220A      0.161790   221A      0.161803   222A      0.165837  
     223A      0.168291   224A      0.171442   225A      0.171444  
     226A      0.172722   227A      0.179706   228A      0.180738  
     229A      0.180752   230A      0.181900   231A      0.184297  
     232A      0.184304   233A      0.184994   234A      0.186572  
     235A      0.186580   236A      0.188711   237A      0.193694  
     238A      0.198349   239A      0.198566   240A      0.198573  
     241A      0.203762   242A      0.203763   243A      0.206184  
     244A      0.206185   245A      0.211199   246A      0.211200  
     247A      0.224888   248A      0.225010   249A      0.225076  
     250A      0.225811   251A      0.225893   252A      0.233359  
     253A      0.233525   254A      0.233542   255A      0.234984  
     256A      0.240175   257A      0.240187   258A      0.242042  
     259A      0.243031   260A      0.243041   261A      0.244870  
     262A      0.250142   263A      0.250152   264A      0.252490  
     265A      0.256966   266A      0.256970   267A      0.258417  
     268A      0.261899   269A      0.261922   270A      0.262540  
     271A      0.264562   272A      0.265131   273A      0.265151  
     274A      0.266770   275A      0.267617   276A      0.267736  
     277A      0.276543   278A      0.278809   279A      0.279122  
     280A      0.279135   281A      0.280689   282A      0.280921  
     283A      0.280946   284A      0.283469   285A      0.283722  
     286A      0.283748   287A      0.288842   288A      0.288860  
     289A      0.295525   290A      0.295544   291A      0.297214  
     292A      0.297402   293A      0.297410   294A      0.300646  
     295A      0.309752   296A      0.309762   297A      0.311010  
     298A      0.311036   299A      0.312667   300A      0.312680  
     301A      0.318210   302A      0.318240   303A      0.324073  
     304A      0.324078   305A      0.327383   306A      0.327389  
     307A      0.329308   308A      0.329326   309A      0.330856  
     310A      0.331990   311A      0.331998   312A      0.333875  
     313A      0.345099   314A      0.345119   315A      0.347574  
     316A      0.347581   317A      0.350233   318A      0.354594  
     319A      0.354815   320A      0.355804   321A      0.357298  
     322A      0.357304   323A      0.360100   324A      0.360119  
     325A      0.361227   326A      0.362763   327A      0.365829  
     328A      0.365840   329A      0.369525   330A      0.369533  
     331A      0.370377   332A      0.374702   333A      0.374719  
     334A      0.374939   335A      0.376220   336A      0.378089  
     337A      0.379624   338A      0.380566   339A      0.382578  
     340A      0.382621   341A      0.385058   342A      0.390844  
     343A      0.390893   344A      0.393427   345A      0.397848  
     346A      0.397855   347A      0.400813   348A      0.402433  
     349A      0.403126   350A      0.403152   351A      0.405230  
     352A      0.405240   353A      0.406449   354A      0.408441  
     355A      0.410953   356A      0.410999   357A      0.417933  
     358A      0.419699   359A      0.419743   360A      0.420364  
     361A      0.420395   362A      0.427163   363A      0.427212  
     364A      0.427485   365A      0.431428   366A      0.438589  
     367A      0.438695   368A      0.443258   369A      0.443264  
     370A      0.444901   371A      0.447055   372A      0.447155  
     373A      0.447380   374A      0.449633   375A      0.450619  
     376A      0.450645   377A      0.453422   378A      0.453447  
     379A      0.453966   380A      0.454047   381A      0.455962  
     382A      0.457406   383A      0.457413   384A      0.461729  
     385A      0.463578   386A      0.465625   387A      0.465744  
     388A      0.465761   389A      0.466671   390A      0.466867  
     391A      0.469250   392A      0.469281   393A      0.470385  
     394A      0.471042   395A      0.471088   396A      0.473689  
     397A      0.477918   398A      0.479442   399A      0.479522  
     400A      0.480713   401A      0.480738   402A      0.486621  
     403A      0.488835   404A      0.488852   405A      0.492909  
     406A      0.496406   407A      0.496485   408A      0.496519  
     409A      0.497911   410A      0.501939   411A      0.501963  
     412A      0.503986   413A      0.504537   414A      0.504618  
     415A      0.508268   416A      0.508306   417A      0.510532  
     418A      0.518861   419A      0.518873   420A      0.519152  
     421A      0.523111   422A      0.524201   423A      0.524260  
     424A      0.526140   425A      0.526389   426A      0.530786  
     427A      0.530835   428A      0.532546   429A      0.532690  
     430A      0.537304   431A      0.537329   432A      0.539392  
     433A      0.543741   434A      0.544101   435A      0.544129  
     436A      0.547341   437A      0.547400   438A      0.550256  
     439A      0.550392   440A      0.550542   441A      0.555428  
     442A      0.555506   443A      0.555615   444A      0.560924  
     445A      0.561595   446A      0.561629   447A      0.562116  
     448A      0.572124   449A      0.572158   450A      0.576524  
     451A      0.578127   452A      0.578291   453A      0.585566  
     454A      0.585733   455A      0.586402   456A      0.586598  
     457A      0.589448   458A      0.596528   459A      0.599470  
     460A      0.603031   461A      0.603122   462A      0.606386  
     463A      0.608241   464A      0.608410   465A      0.608457  
     466A      0.609683   467A      0.609927   468A      0.615695  
     469A      0.617395   470A      0.617526   471A      0.617559  
     472A      0.618138   473A      0.620188   474A      0.623990  
     475A      0.627069   476A      0.627147   477A      0.649401  
     478A      0.649515   479A      0.652885   480A      0.656500  
     481A      0.656596   482A      0.667392   483A      0.674940  
     484A      0.675051   485A      0.683120   486A      0.683274  
     487A      0.683473   488A      0.683539   489A      0.699376  
     490A      0.699711   491A      0.704389   492A      0.707111  
     493A      0.709516   494A      0.709550   495A      0.713412  
     496A      0.725751   497A      0.725772   498A      0.726616  
     499A      0.734624   500A      0.734637   501A      0.736375  
     502A      0.741496   503A      0.746686   504A      0.746742  
     505A      0.773201   506A      0.773292   507A      0.790722  
     508A      0.797357   509A      0.800383   510A      0.800524  
     511A      0.800910   512A      0.801080   513A      0.813743  
     514A      0.813755   515A      0.820478   516A      0.823411  
     517A      0.833673   518A      0.847864   519A      0.853702  
     520A      0.853777   521A      0.862271   522A      0.865310  
     523A      0.866195   524A      0.866212   525A      0.870762  
     526A      0.872841   527A      0.880251   528A      0.880568  
     529A      0.884101   530A      0.884145   531A      0.884645  
     532A      0.892439   533A      0.900138   534A      0.903954  
     535A      0.904087   536A      0.911740   537A      0.911806  
     538A      0.917379   539A      0.921364   540A      0.921391  
     541A      0.923347   542A      0.923478   543A      0.930606  
     544A      0.931095   545A      0.931286   546A      0.932724  
     547A      0.932774   548A      0.940132   549A      0.940514  
     550A      0.940699   551A      0.945453   552A      0.945518  
     553A      0.952645   554A      0.953996   555A      0.954118  
     556A      0.955002   557A      0.956346   558A      0.964370  
     559A      0.964774   560A      0.967724   561A      0.968173  
     562A      0.968552   563A      0.969579   564A      0.974287  
     565A      0.977744   566A      0.977747   567A      0.978581  
     568A      0.983385   569A      0.989570   570A      0.989913  
     571A      0.989955   572A      0.992568   573A      0.992635  
     574A      1.001233   575A      1.001352   576A      1.002319  
     577A      1.002371   578A      1.013812   579A      1.013942  
     580A      1.015687   581A      1.024961   582A      1.025281  
     583A      1.028935   584A      1.029317   585A      1.030380  
     586A      1.030432   587A      1.034823   588A      1.035666  
     589A      1.039962   590A      1.045175   591A      1.045233  
     592A      1.049031   593A      1.056460   594A      1.056535  
     595A      1.062741   596A      1.070502   597A      1.070504  
     598A      1.071467   599A      1.073767   600A      1.073785  
     601A      1.088966   602A      1.088985   603A      1.093651  
     604A      1.093864   605A      1.095184   606A      1.095777  
     607A      1.095888   608A      1.100026   609A      1.100109  
     610A      1.102192   611A      1.102215   612A      1.103261  
     613A      1.105055   614A      1.106681   615A      1.106886  
     616A      1.110241   617A      1.110295   618A      1.117104  
     619A      1.119502   620A      1.121396   621A      1.121832  
     622A      1.127419   623A      1.127445   624A      1.133675  
     625A      1.133849   626A      1.133919   627A      1.138558  
     628A      1.141003   629A      1.141036   630A      1.141383  
     631A      1.144694   632A      1.144866   633A      1.148535  
     634A      1.148604   635A      1.148707   636A      1.160793  
     637A      1.160872   638A      1.161178   639A      1.161267  
     640A      1.172672   641A      1.172722   642A      1.177884  
     643A      1.178026   644A      1.181361   645A      1.182659  
     646A      1.184828   647A      1.184968   648A      1.191292  
     649A      1.195375   650A      1.195470   651A      1.199681  
     652A      1.201180   653A      1.201228   654A      1.203188  
     655A      1.203488   656A      1.211976   657A      1.221629  
     658A      1.233075   659A      1.233109   660A      1.236409  
     661A      1.236692   662A      1.240539   663A      1.243091  
     664A      1.243131   665A      1.251941   666A      1.252041  
     667A      1.257672   668A      1.257776   669A      1.267774  
     670A      1.274888   671A      1.274939   672A      1.278373  
     673A      1.279981   674A      1.280015   675A      1.292583  
     676A      1.293926   677A      1.294021   678A      1.313438  
     679A      1.313479   680A      1.318509   681A      1.318634  
     682A      1.320289   683A      1.320428   684A      1.321721  
     685A      1.321820   686A      1.329690   687A      1.333384  
     688A      1.337543   689A      1.347095   690A      1.347193  
     691A      1.351024   692A      1.351115   693A      1.354351  
     694A      1.355383   695A      1.357342   696A      1.357378  
     697A      1.365361   698A      1.365839   699A      1.365867  
     700A      1.365990   701A      1.367845   702A      1.376049  
     703A      1.376054   704A      1.379601   705A      1.379604  
     706A      1.387551   707A      1.387649   708A      1.392275  
     709A      1.397266   710A      1.400696   711A      1.401022  
     712A      1.401074   713A      1.407639   714A      1.412945  
     715A      1.412973   716A      1.416039   717A      1.416070  
     718A      1.417396   719A      1.417454   720A      1.425367  
     721A      1.425393   722A      1.435980   723A      1.448732  
     724A      1.454973   725A      1.461279   726A      1.461304  
     727A      1.466391   728A      1.466418   729A      1.468888  
     730A      1.468934   731A      1.477994   732A      1.478254  
     733A      1.483670   734A      1.483700   735A      1.487735  
     736A      1.488202   737A      1.493160   738A      1.493172  
     739A      1.495056   740A      1.496592   741A      1.496724  
     742A      1.497121   743A      1.505249   744A      1.505266  
     745A      1.507895   746A      1.522545   747A      1.522556  
     748A      1.532094   749A      1.532288   750A      1.573615  
     751A      1.573683   752A      1.579330   753A      1.579359  
     754A      1.585770   755A      1.610462   756A      1.632363  
     757A      1.637470   758A      1.637544   759A      1.640412  
     760A      1.657485   761A      1.657832   762A      1.658365  
     763A      1.667413   764A      1.667505   765A      1.667537  
     766A      1.672776   767A      1.672943   768A      1.677417  
     769A      1.680420   770A      1.680530   771A      1.689538  
     772A      1.689878   773A      1.697694   774A      1.697730  
     775A      1.701924   776A      1.701946   777A      1.702024  
     778A      1.702715   779A      1.707943   780A      1.718625  
     781A      1.718645   782A      1.724911   783A      1.733736  
     784A      1.733794   785A      1.735262   786A      1.735291  
     787A      1.735411   788A      1.739773   789A      1.744661  
     790A      1.744714   791A      1.753401   792A      1.754536  
     793A      1.756380   794A      1.756427   795A      1.759311  
     796A      1.763685   797A      1.763756   798A      1.772757  
     799A      1.772778   800A      1.799358   801A      1.809638  
     802A      1.816589   803A      1.816609   804A      1.816790  
     805A      1.818998   806A      1.834157   807A      1.834177  
     808A      1.848852   809A      1.848872   810A      1.873283  
     811A      1.873324   812A      1.873435   813A      1.875945  
     814A      1.882976   815A      1.883075   816A      1.888374  
     817A      1.888439   818A      1.893902   819A      1.900594  
     820A      1.900980   821A      1.917294   822A      1.917340  
     823A      1.918416   824A      1.918461   825A      1.920929  
     826A      1.925983   827A      1.929746   828A      1.938092  
     829A      1.938146   830A      1.940820   831A      1.940907  
     832A      1.953874   833A      1.953971   834A      1.955624  
     835A      1.959128   836A      1.959250   837A      1.966656  
     838A      1.966808   839A      1.971039   840A      1.971296  
     841A      1.975335   842A      1.975489   843A      1.977026  
     844A      1.979668   845A      1.979753   846A      1.995986  
     847A      1.998893   848A      1.999051   849A      1.999298  
     850A      2.001724   851A      2.001796   852A      2.002336  
     853A      2.002436   854A      2.012174   855A      2.012237  
     856A      2.012611   857A      2.012636   858A      2.014322  
     859A      2.015574   860A      2.026759   861A      2.032170  
     862A      2.038004   863A      2.038200   864A      2.043243  
     865A      2.043338   866A      2.047326   867A      2.054480  
     868A      2.055490   869A      2.055547   870A      2.060674  
     871A      2.064285   872A      2.069491   873A      2.069654  
     874A      2.085028   875A      2.085954   876A      2.087447  
     877A      2.087684   878A      2.088108   879A      2.088681  
     880A      2.088777   881A      2.105472   882A      2.109096  
     883A      2.109402   884A      2.115348   885A      2.115990  
     886A      2.117405   887A      2.117580   888A      2.124449  
     889A      2.126368   890A      2.128820   891A      2.129200  
     892A      2.129369   893A      2.134021   894A      2.134060  
     895A      2.138350   896A      2.138456   897A      2.139626  
     898A      2.148450   899A      2.148551   900A      2.150038  
     901A      2.150974   902A      2.151722   903A      2.153690  
     904A      2.157873   905A      2.157934   906A      2.162224  
     907A      2.165584   908A      2.165628   909A      2.168402  
     910A      2.168579   911A      2.168942   912A      2.171160  
     913A      2.174382   914A      2.176259   915A      2.176330  
     916A      2.178683   917A      2.178746   918A      2.183436  
     919A      2.183479   920A      2.191197   921A      2.191924  
     922A      2.192613   923A      2.192678   924A      2.200088  
     925A      2.200109   926A      2.212923   927A      2.218073  
     928A      2.218126   929A      2.220504   930A      2.220549  
     931A      2.229919   932A      2.235516   933A      2.235592  
     934A      2.246450   935A      2.246814   936A      2.249549  
     937A      2.250504   938A      2.254898   939A      2.255012  
     940A      2.257240   941A      2.277000   942A      2.278751  
     943A      2.278793   944A      2.284652   945A      2.286527  
     946A      2.286833   947A      2.288147   948A      2.298766  
     949A      2.299077   950A      2.300179   951A      2.300580  
     952A      2.303170   953A      2.316144   954A      2.316258  
     955A      2.327193   956A      2.327202   957A      2.328561  
     958A      2.328606   959A      2.336680   960A      2.356862  
     961A      2.363515   962A      2.368358   963A      2.370101  
     964A      2.378283   965A      2.380436   966A      2.389075  
     967A      2.389898   968A      2.389995   969A      2.392258  
     970A      2.408722   971A      2.409300   972A      2.409814  
     973A      2.409996   974A      2.424414   975A      2.424505  
     976A      2.433706   977A      2.436581   978A      2.472462  
     979A      2.481581   980A      2.481735   981A      2.481773  
     982A      2.493216   983A      2.499060   984A      2.499100  
     985A      2.527663   986A      2.529638   987A      2.529793  
     988A      2.542454   989A      2.542461   990A      2.559695  
     991A      2.575788   992A      2.587032   993A      2.587519  
     994A      2.600082   995A      2.602140   996A      2.602185  
     997A      2.610182   998A      2.610253   999A      2.613320  
    1000A      2.617136  1001A      2.617143  1002A      2.630545  
    1003A      2.630580  1004A      2.630650  1005A      2.631199  
    1006A      2.643114  1007A      2.643250  1008A      2.645026  
    1009A      2.647021  1010A      2.647161  1011A      2.662825  
    1012A      2.680032  1013A      2.680095  1014A      2.682808  
    1015A      2.689285  1016A      2.689816  1017A      2.697686  
    1018A      2.697755  1019A      2.707093  1020A      2.707442  
    1021A      2.713680  1022A      2.739815  1023A      2.740831  
    1024A      2.741031  1025A      2.742675  1026A      2.760680  
    1027A      2.761014  1028A      2.771059  1029A      2.771066  
    1030A      2.776447  1031A      2.776464  1032A      2.779985  
    1033A      2.780214  1034A      2.795562  1035A      2.808900  
    1036A      2.809298  1037A      2.835416  1038A      2.852531  
    1039A      2.852685  1040A      2.873367  1041A      2.885040  
    1042A      2.885408  1043A      2.908245  1044A      2.908385  
    1045A      2.914962  1046A      2.917126  1047A      2.917278  
    1048A      2.917457  1049A      2.924110  1050A      2.950984  
    1051A      2.951090  1052A      2.952141  1053A      2.973268  
    1054A      2.973288  1055A      2.980442  1056A      2.990355  
    1057A      2.990417  1058A      3.006643  1059A      3.006669  
    1060A      3.019434  1061A      3.064681  1062A      3.064870  
    1063A      3.067794  1064A      3.085667  1065A      3.122429  
    1066A      3.122471  1067A      3.128175  1068A      3.128275  
    1069A      3.166153  1070A      3.166956  1071A      3.184032  
    1072A      3.186521  1073A      3.186797  1074A      3.194318  
    1075A      3.203073  1076A      3.203144  1077A      3.203188  
    1078A      3.205712  1079A      3.205713  1080A      3.214505  
    1081A      3.214883  1082A      3.222589  1083A      3.223044  
    1084A      3.247911  1085A      3.267393  1086A      3.269837  
    1087A      3.277320  1088A      3.294472  1089A      3.331046  
    1090A      3.334498  1091A      3.334651  1092A      3.339500  
    1093A      3.339658  1094A      3.474483  1095A      3.474948  
    1096A      3.504109  1097A      3.540017  1098A      3.542668  
    1099A      3.608118  1100A      3.636094  1101A      3.638055  
    1102A      3.652680  1103A      3.684147  1104A      3.686146  
    1105A      3.720388  1106A      3.725235  1107A      3.827231  
    1108A      3.841247  1109A      3.842216  1110A      3.927661  
    1111A      3.927672  1112A      3.970446  1113A      3.970559  
    1114A      4.035248  1115A      4.069274  1116A      4.092641  
    1117A      4.104552  1118A      4.140829  1119A      4.175556  
    1120A      4.175597  1121A      4.175632  1122A      4.203254  
    1123A      4.203279  1124A      4.203794  1125A      4.203878  
    1126A      4.204078  1127A      4.236232  1128A      4.236249  
    1129A      4.236618  1130A      4.450478  1131A      4.450809  
    1132A      4.451144  1133A      4.650993  1134A      4.651067  
    1135A      4.651348  1136A      4.752150  1137A      4.787565  
    1138A      4.787876  

    Final Occupation by Irrep:
              A 
    DOCC [   192 ]
    NA   [   192 ]
    NB   [   192 ]

  @DF-RHF Final Energy: -2478.65801238817539

   => Energetics <=

    Nuclear Repulsion Energy =           7496.2219938971329611
    One-Electron Energy =              -18343.6625585688598221
    Two-Electron Energy =                8368.7825522835519223
    Total Energy =                      -2478.6580123881758482

Computation Completed


Properties will be evaluated at   0.000000,   0.000000,   0.000000 [a0]

Properties computed using the SCF density matrix


 Multipole Moments:

 ------------------------------------------------------------------------------------
     Multipole            Electronic (a.u.)      Nuclear  (a.u.)        Total (a.u.)
 ------------------------------------------------------------------------------------

 L = 1.  Multiply by 2.5417464519 to convert [e a0] to [Debye]
 Dipole X            :         -0.0005632            0.0000481           -0.0005151
 Dipole Y            :          0.0010991           -0.0001453            0.0009538
 Dipole Z            :         32.8415097          -44.1382459          -11.2967362
 Magnitude           :                                                   11.2967363

 ------------------------------------------------------------------------------------

*** tstop() called on d-17-1-1 at Mon Jan 22 10:32:24 2024
Module time:
	user time   =    3203.30 seconds =      53.39 minutes
	system time =      74.84 seconds =       1.25 minutes
	total time  =        346 seconds =       5.77 minutes
Total time:
	user time   =    3203.30 seconds =      53.39 minutes
	system time =      74.84 seconds =       1.25 minutes
	total time  =        346 seconds =       5.77 minutes

  //>>>>>>>>>>>>>>>>>>>>>>>>>>>>>>>>>>>//
  //            Monomer A HF           //
  //<<<<<<<<<<<<<<<<<<<<<<<<<<<<<<<<<<<//

   => Libint2 <=

    Primary   basis highest AM E, G, H:  7, 7, 4
    Auxiliary basis highest AM E, G, H:  7, 7, 5
    Onebody   basis highest AM E, G, H:  7, 7, 5
    Solid Harmonics ordering:            gaussian

*** tstart() called on d-17-1-1
*** at Mon Jan 22 10:32:24 2024

   => Loading Basis Set <=

    Name: JUN-CC-PVDZ
    Role: ORBITAL
    Keyword: BASIS
    atoms 1     entry B          line   130 file /home/gridsan/tfroembgen/.conda/envs/psi4test/share/psi4/basis/jun-cc-pvdz.gbs 
    atoms 2-5   entry F          line   266 file /home/gridsan/tfroembgen/.conda/envs/psi4test/share/psi4/basis/jun-cc-pvdz.gbs 
    atoms 6-59  entry C          line   164 file /home/gridsan/tfroembgen/.conda/envs/psi4test/share/psi4/basis/jun-cc-pvdz.gbs 
    atoms 60-77 entry H          line    36 file /home/gridsan/tfroembgen/.conda/envs/psi4test/share/psi4/basis/jun-cc-pvdz.gbs 


         ---------------------------------------------------------
                                   SCF
               by Justin Turney, Rob Parrish, Andy Simmonett
                          and Daniel G. A. Smith
                              RHF Reference
                       12 Threads,  30517 MiB Core
         ---------------------------------------------------------

  ==> Geometry <==

    Molecular point group: c1
    Full point group: C1

    Geometry (in Angstrom), charge = -1, multiplicity = 1:

       Center              X                  Y                   Z               Mass       
    ------------   -----------------  -----------------  -----------------  -----------------
         B           -0.000198161052     0.000273808717     6.368294602485    11.009305360000
         F           -0.000000401852    -0.000000464183     7.781079602485    18.998403162730
         F            1.147859598148     0.675780735817     5.897153602485    18.998403162730
         F            0.011917658148    -1.332011464183     5.897355602485    18.998403162730
         F           -1.159666401852     0.656073035817     5.897434602485    18.998403162730
      Gh(C)           1.225311973413     0.707538196736    -0.825601770231    12.000000000000
      Gh(C)           1.225323934041    -0.707538986754    -0.837932579802    12.000000000000
      Gh(C)          -0.000006075942     1.414965821907    -0.838466203322    12.000000000000
      Gh(C)           2.456448831939     1.418327794995    -0.822714912831    12.000000000000
      Gh(C)           0.000010905269    -1.414976590818    -0.828266645998    12.000000000000
      Gh(C)          -1.225300870919     0.707545281801    -0.823350249909    12.000000000000
      Gh(C)           2.456437833310    -1.418323396064    -0.840177736658    12.000000000000
      Gh(C)          -0.000001254988     2.836800939098    -0.840869753456    12.000000000000
      Gh(C)           3.681826775460     0.709317863818    -0.839828946861    12.000000000000
      Gh(C)           2.455120126855     2.834223569306    -0.839931503821    12.000000000000
      Gh(C)           3.681821183209    -0.709333931612    -0.823756462842    12.000000000000
      Gh(C)          -1.225313520698    -0.707527607727    -0.836859818375    12.000000000000
      Gh(C)           1.226699659192     3.543469391811    -0.823572430912    12.000000000000
      Gh(C)           0.000004862847    -2.836782231419    -0.823418478376    12.000000000000
      Gh(C)          -2.456435954859     1.418316826102    -0.823314854063    12.000000000000
      Gh(C)           2.455123495769    -2.834230120772    -0.823908371210    12.000000000000
      Gh(C)          -1.226714286599     3.543468971567    -0.823469097692    12.000000000000
      Gh(C)           4.914517373191     1.427172780306    -0.833348263831    12.000000000000
      Gh(C)           3.693150269466     3.542795200362    -0.833298464195    12.000000000000
      Gh(C)          -2.456437522078    -1.418313373022    -0.840202774783    12.000000000000
      Gh(C)           1.226704919933    -3.543474334090    -0.839542561661    12.000000000000
      Gh(C)          -2.455125320518     2.834216570451    -0.839925127475    12.000000000000
      Gh(C)           4.914524458772    -1.427187002127    -0.830375521097    12.000000000000
      Gh(C)           1.221424691688     4.970133973077    -0.830237086837    12.000000000000
      Gh(C)           4.893008307311     2.825187907843    -0.832131595472    12.000000000000
      Gh(C)          -1.226696930499    -3.543471089260    -0.839275357252    12.000000000000
      Gh(C)          -3.681818898536     0.709324874549    -0.839816266381    12.000000000000
      Gh(C)           3.693147179140    -3.542801433574    -0.830257630536    12.000000000000
      Gh(C)          -1.221432174004     4.970128205680    -0.830053591464    12.000000000000
      Gh(C)           6.134771050916     0.680547854922    -0.832578489281    12.000000000000
      Gh(C)           3.656788958600     4.972953151384    -0.832389826412    12.000000000000
      Gh(C)          -2.455126829744    -2.834215185244    -0.824152729008    12.000000000000
      Gh(C)          -3.681819101071    -0.709325795652    -0.823638841264    12.000000000000
      Gh(C)           4.893012695903    -2.825200197815    -0.831520443577    12.000000000000
      Gh(C)          -0.000000995123     5.650447273849    -0.831284900171    12.000000000000
      Gh(C)           6.134775190322    -0.680554946258    -0.831313168766    12.000000000000
      Gh(C)           2.478131560845     5.653576659148    -0.831101046762    12.000000000000
      Gh(C)           1.221422482727    -4.970127147116    -0.833036583860    12.000000000000
      Gh(C)          -3.693162305975     3.542796862009    -0.833132956736    12.000000000000
      Gh(C)          -1.221428442955    -4.970118395779    -0.833149345692    12.000000000000
      Gh(C)          -4.914521729952     1.427175354812    -0.833271318824    12.000000000000
      Gh(C)           3.656787097669    -4.972955318422    -0.830939325878    12.000000000000
      Gh(C)          -2.478138452116     5.653574330345    -0.830816521754    12.000000000000
      Gh(C)          -3.693141660574    -3.542790311162    -0.830373756692    12.000000000000
      Gh(C)          -4.914512405063    -1.427181092211    -0.830340823923    12.000000000000
      Gh(C)          -0.000005930936    -5.650438379197    -0.831680404292    12.000000000000
      Gh(C)          -4.893020406111     2.825188506736    -0.832141677332    12.000000000000
      Gh(C)           2.478126071288    -5.653573636072    -0.832029926670    12.000000000000
      Gh(C)          -3.656798632268     4.972956089858    -0.832213146038    12.000000000000
      Gh(C)          -4.892999400866    -2.825191859243    -0.831674479275    12.000000000000
      Gh(C)          -2.478128420093    -5.653566262190    -0.832305114318    12.000000000000
      Gh(C)          -6.134770425341     0.680548674073    -0.832604040984    12.000000000000
      Gh(C)          -3.656788755199    -4.972944115154    -0.831153613695    12.000000000000
      Gh(C)          -6.134764964923    -0.680554007665    -0.831333644561    12.000000000000
      Gh(H)           5.835288573806     3.369275802771    -0.827772269810     1.007825032230
      Gh(H)           7.073859250737     1.228217156716    -0.832116845888     1.007825032230
      Gh(H)           4.600663342164     5.512380710270    -0.831884625660     1.007825032230
      Gh(H)           5.835283465295    -3.369306148912    -0.835974910891     1.007825032230
      Gh(H)          -0.000012073316     6.738530581953    -0.835634145179     1.007825032230
      Gh(H)           7.073861249820    -1.228227034927    -0.831821906860     1.007825032230
      Gh(H)           2.473313809789     6.740684199211    -0.831567767693     1.007825032230
      Gh(H)           4.600668569371    -5.512376221359    -0.831349323047     1.007825032230
      Gh(H)          -2.473318602548     6.740681627423    -0.831266421068     1.007825032230
      Gh(H)          -0.000010190238    -6.738528268635    -0.827150719308     1.007825032230
      Gh(H)          -5.835301836354     3.369270858113    -0.827636247661     1.007825032230
      Gh(H)           2.473308001821    -6.740685466612    -0.831459596246     1.007825032230
      Gh(H)          -4.600674763218     5.512377934420    -0.831719297337     1.007825032230
      Gh(H)          -5.835279428845    -3.369289055963    -0.836254216772     1.007825032230
      Gh(H)          -2.473300269450    -6.740679170323    -0.831908912790     1.007825032230
      Gh(H)          -7.073857688778     1.228220380657    -0.832200837369     1.007825032230
      Gh(H)          -4.600673708095    -5.512362761970    -0.831521631069     1.007825032230
      Gh(H)          -7.073856856419    -1.228220724160    -0.831916763326     1.007825032230

  Running in c1 symmetry.

  Rotational constants: A =      0.00144  B =      0.00144  C =      0.00110 [cm^-1]
  Rotational constants: A =     43.22713  B =     43.22280  C =     33.02251 [MHz]
  Nuclear repulsion =  178.879455044809106

  Charge       = -1
  Multiplicity = 1
  Electrons    = 42
  Nalpha       = 21
  Nbeta        = 21

  ==> Algorithm <==

  SCF Algorithm Type is DF.
  DIIS enabled.
  MOM disabled.
  Fractional occupation disabled.
  Guess Type is SAD.
  Energy threshold   = 1.00e-08
  Density threshold  = 1.00e-08
  Integral threshold = 1.00e-12

  ==> Primary Basis <==

  Basis Set: JUN-CC-PVDZ
    Blend: JUN-CC-PVDZ
    Number of shells: 526
    Number of basis functions: 1152
    Number of Cartesian functions: 1211
    Spherical Harmonics?: true
    Max angular momentum: 2

   => Loading Basis Set <=

    Name: (JUN-CC-PVDZ AUX)
    Role: JKFIT
    Keyword: DF_BASIS_SCF
    atoms 1     entry B          line    90 file /home/gridsan/tfroembgen/.conda/envs/psi4test/share/psi4/basis/jun-cc-pvdz-jkfit.gbs 
    atoms 2-5   entry F          line   314 file /home/gridsan/tfroembgen/.conda/envs/psi4test/share/psi4/basis/jun-cc-pvdz-jkfit.gbs 
    atoms 6-59  entry C          line   146 file /home/gridsan/tfroembgen/.conda/envs/psi4test/share/psi4/basis/jun-cc-pvdz-jkfit.gbs 
    atoms 60-77 entry H          line    70 file /home/gridsan/tfroembgen/.conda/envs/psi4test/share/psi4/basis/jun-cc-pvdz-jkfit.gbs 

  ==> Integral Setup <==

  ==> DiskDFJK: Density-Fitted J/K Matrices <==

    J tasked:                  Yes
    K tasked:                  Yes
    wK tasked:                  No
    OpenMP threads:             12
    Integrals threads:          12
    Memory [MiB]:            22888
    Algorithm:                Core
    Integral Cache:           LOAD
    Schwarz Cutoff:          1E-12
    Fitting Condition:       1E-10

   => Auxiliary Basis Set <=

  Basis Set: (JUN-CC-PVDZ AUX)
    Blend: JUN-CC-PVDZ-JKFIT
    Number of shells: 1755
    Number of basis functions: 5075
    Number of Cartesian functions: 5819
    Spherical Harmonics?: true
    Max angular momentum: 3

  Minimum eigenvalue in the overlap matrix is 8.3981472044E-10.
  Reciprocal condition number of the overlap matrix is 3.7538456942E-11.
    Using canonical orthogonalization.
  Overall, 14 of 1152 possible MOs eliminated.


  ==> Pre-Iterations <==

  SCF Guess: Superposition of Atomic Densities via on-the-fly atomic UHF (no occupation information).

   -------------------------
    Irrep   Nso     Nmo    
   -------------------------
     A       1152    1138 
   -------------------------
    Total    1152    1138
   -------------------------

  ==> Iterations <==

                           Total Energy        Delta E     RMS |[F,P]|

   @DF-RHF iter SAD:  -421.23044301901581   -4.21230e+02   0.00000e+00 
   @DF-RHF iter   1:  -422.64971142918142   -1.41927e+00   5.29796e-04 ADIIS/DIIS
   @DF-RHF iter   2:  -422.73248464060180   -8.27732e-02   3.22883e-04 ADIIS/DIIS
   @DF-RHF iter   3:  -422.77105767141188   -3.85730e-02   1.73797e-05 DIIS
   @DF-RHF iter   4:  -422.77141804429181   -3.60373e-04   2.75067e-06 DIIS
   @DF-RHF iter   5:  -422.77142668132808   -8.63704e-06   7.00722e-07 DIIS
   @DF-RHF iter   6:  -422.77142723723159   -5.55904e-07   1.44595e-07 DIIS
   @DF-RHF iter   7:  -422.77142725812422   -2.08926e-08   1.46961e-08 DIIS
   @DF-RHF iter   8:  -422.77142725833562   -2.11401e-10   5.32078e-09 DIIS
  Energy and wave function converged.


  ==> Post-Iterations <==

    Orbital Energies [Eh]
    ---------------------

    Doubly Occupied:                                                      

       1A    -26.067093     2A    -26.067021     3A    -26.066996  
       4A    -26.066912     5A     -7.539293     6A     -1.410956  
       7A     -1.351243     8A     -1.351191     9A     -1.351058  
      10A     -0.602238    11A     -0.528448    12A     -0.528416  
      13A     -0.528360    14A     -0.447302    15A     -0.447260  
      16A     -0.408462    17A     -0.408429    18A     -0.408367  
      19A     -0.384989    20A     -0.384951    21A     -0.384903  

    Virtual:                                                              

      22A      0.076787    23A      0.079062    24A      0.079065  
      25A      0.087392    26A      0.087395    27A      0.098638  
      28A      0.100302    29A      0.100678    30A      0.116395  
      31A      0.116399    32A      0.116737    33A      0.116743  
      34A      0.124777    35A      0.132442    36A      0.132445  
      37A      0.134517    38A      0.134534    39A      0.135121  
      40A      0.135124    41A      0.142242    42A      0.145358  
      43A      0.145364    44A      0.155189    45A      0.156323  
      46A      0.156563    47A      0.157445    48A      0.162702  
      49A      0.165938    50A      0.168426    51A      0.168428  
      52A      0.168811    53A      0.175037    54A      0.175047  
      55A      0.177740    56A      0.177745    57A      0.180403  
      58A      0.180421    59A      0.185540    60A      0.185558  
      61A      0.186990    62A      0.188194    63A      0.188197  
      64A      0.191783    65A      0.191799    66A      0.195640  
      67A      0.197704    68A      0.197724    69A      0.202406  
      70A      0.202417    71A      0.203879    72A      0.203881  
      73A      0.206679    74A      0.207857    75A      0.209826  
      76A      0.209845    77A      0.211690    78A      0.212828  
      79A      0.215048    80A      0.215052    81A      0.221184  
      82A      0.221188    83A      0.223949    84A      0.224859  
      85A      0.232466    86A      0.234020    87A      0.234020  
      88A      0.234046    89A      0.235773    90A      0.235813  
      91A      0.236017    92A      0.245277    93A      0.245290  
      94A      0.246933    95A      0.248101    96A      0.248700  
      97A      0.251831    98A      0.251974    99A      0.258540  
     100A      0.258543   101A      0.259666   102A      0.260044  
     103A      0.260122   104A      0.263806   105A      0.263821  
     106A      0.264119   107A      0.264129   108A      0.273298  
     109A      0.273311   110A      0.275345   111A      0.278474  
     112A      0.278477   113A      0.283202   114A      0.283666  
     115A      0.283680   116A      0.284391   117A      0.289935  
     118A      0.289951   119A      0.290658   120A      0.290703  
     121A      0.294444   122A      0.300820   123A      0.301111  
     124A      0.304319   125A      0.304334   126A      0.307370  
     127A      0.310587   128A      0.310591   129A      0.314887  
     130A      0.314898   131A      0.318667   132A      0.318671  
     133A      0.319061   134A      0.319069   135A      0.320610  
     136A      0.332549   137A      0.332554   138A      0.336082  
     139A      0.336650   140A      0.336915   141A      0.336925  
     142A      0.340410   143A      0.340412   144A      0.341703  
     145A      0.341705   146A      0.341876   147A      0.345608  
     148A      0.349360   149A      0.353288   150A      0.356516  
     151A      0.356553   152A      0.358029   153A      0.360859  
     154A      0.360889   155A      0.367575   156A      0.376903  
     157A      0.376912   158A      0.379263   159A      0.379279  
     160A      0.379507   161A      0.383424   162A      0.383505  
     163A      0.383601   164A      0.385660   165A      0.388592  
     166A      0.388595   167A      0.394084   168A      0.394190  
     169A      0.397053   170A      0.399658   171A      0.401388  
     172A      0.401435   173A      0.409957   174A      0.412657  
     175A      0.412683   176A      0.416415   177A      0.416648  
     178A      0.416900   179A      0.419978   180A      0.422311  
     181A      0.423797   182A      0.425009   183A      0.425082  
     184A      0.425137   185A      0.428717   186A      0.428866  
     187A      0.429279   188A      0.431817   189A      0.431897  
     190A      0.435916   191A      0.436592   192A      0.439016  
     193A      0.439047   194A      0.441797   195A      0.441818  
     196A      0.443457   197A      0.453324   198A      0.453584  
     199A      0.453610   200A      0.455961   201A      0.456046  
     202A      0.461612   203A      0.461688   204A      0.465554  
     205A      0.468149   206A      0.468378   207A      0.473204  
     208A      0.475401   209A      0.475418   210A      0.475433  
     211A      0.481579   212A      0.481592   213A      0.484178  
     214A      0.487061   215A      0.488678   216A      0.489341  
     217A      0.489349   218A      0.493098   219A      0.493298  
     220A      0.496022   221A      0.498068   222A      0.498129  
     223A      0.500459   224A      0.503780   225A      0.503872  
     226A      0.504724   227A      0.504789   228A      0.506112  
     229A      0.510135   230A      0.512550   231A      0.512584  
     232A      0.513211   233A      0.513507   234A      0.518658  
     235A      0.521112   236A      0.522370   237A      0.522547  
     238A      0.528496   239A      0.528965   240A      0.530242  
     241A      0.530293   242A      0.536631   243A      0.536645  
     244A      0.539841   245A      0.539907   246A      0.540174  
     247A      0.544608   248A      0.547372   249A      0.547385  
     250A      0.550233   251A      0.550526   252A      0.551068  
     253A      0.554411   254A      0.554434   255A      0.558670  
     256A      0.558834   257A      0.562377   258A      0.565776  
     259A      0.567528   260A      0.567631   261A      0.575659  
     262A      0.577039   263A      0.577056   264A      0.578563  
     265A      0.580076   266A      0.580148   267A      0.585894  
     268A      0.586332   269A      0.588796   270A      0.588876  
     271A      0.590347   272A      0.591417   273A      0.592410  
     274A      0.592513   275A      0.596760   276A      0.606361  
     277A      0.606382   278A      0.608164   279A      0.610635  
     280A      0.611641   281A      0.615523   282A      0.615567  
     283A      0.627766   284A      0.627776   285A      0.629366  
     286A      0.629427   287A      0.631680   288A      0.633758  
     289A      0.637501   290A      0.639809   291A      0.639816  
     292A      0.641140   293A      0.641171   294A      0.648592  
     295A      0.649685   296A      0.656291   297A      0.656316  
     298A      0.666899   299A      0.666951   300A      0.669347  
     301A      0.669394   302A      0.670651   303A      0.670661  
     304A      0.671315   305A      0.673453   306A      0.673458  
     307A      0.678567   308A      0.678593   309A      0.685431  
     310A      0.696299   311A      0.697103   312A      0.697420  
     313A      0.700719   314A      0.700833   315A      0.700841  
     316A      0.703701   317A      0.703734   318A      0.703776  
     319A      0.704635   320A      0.704638   321A      0.707062  
     322A      0.718920   323A      0.723224   324A      0.729331  
     325A      0.731893   326A      0.736814   327A      0.736922  
     328A      0.736928   329A      0.737690   330A      0.737711  
     331A      0.744093   332A      0.745525   333A      0.746906  
     334A      0.746930   335A      0.753419   336A      0.753425  
     337A      0.759653   338A      0.763268   339A      0.763357  
     340A      0.768710   341A      0.768762   342A      0.772523  
     343A      0.773399   344A      0.773438   345A      0.775426  
     346A      0.775470   347A      0.782700   348A      0.787010  
     349A      0.787030   350A      0.791657   351A      0.791867  
     352A      0.801224   353A      0.804104   354A      0.804128  
     355A      0.818058   356A      0.818067   357A      0.819496  
     358A      0.823950   359A      0.829496   360A      0.829537  
     361A      0.829602   362A      0.831637   363A      0.832801  
     364A      0.832842   365A      0.838350   366A      0.838943  
     367A      0.839114   368A      0.843507   369A      0.843631  
     370A      0.846666   371A      0.849498   372A      0.853871  
     373A      0.853887   374A      0.855454   375A      0.858718  
     376A      0.858806   377A      0.862570   378A      0.862606  
     379A      0.864414   380A      0.867067   381A      0.874039  
     382A      0.895969   383A      0.895975   384A      0.907284  
     385A      0.907306   386A      0.924926   387A      0.925086  
     388A      0.931148   389A      0.931276   390A      0.933692  
     391A      0.934534   392A      0.940797   393A      0.940823  
     394A      0.942361   395A      0.948988   396A      0.949053  
     397A      0.957365   398A      0.957393   399A      0.957546  
     400A      0.962842   401A      0.989427   402A      0.991897  
     403A      0.991915   404A      1.008227   405A      1.017610  
     406A      1.017636   407A      1.027818   408A      1.027862  
     409A      1.035829   410A      1.043785   411A      1.052212  
     412A      1.052228   413A      1.066899   414A      1.070814  
     415A      1.093199   416A      1.093251   417A      1.112729  
     418A      1.112786   419A      1.119466   420A      1.122011  
     421A      1.122027   422A      1.130981   423A      1.131019  
     424A      1.156257   425A      1.159194   426A      1.159211  
     427A      1.166240   428A      1.218333   429A      1.218394  
     430A      1.222908   431A      1.223056   432A      1.228950  
     433A      1.236929   434A      1.240265   435A      1.240271  
     436A      1.258363   437A      1.258414   438A      1.274534  
     439A      1.280783   440A      1.280788   441A      1.286965  
     442A      1.293992   443A      1.344493   444A      1.344599  
     445A      1.351780   446A      1.358760   447A      1.358812  
     448A      1.360397   449A      1.367626   450A      1.367772  
     451A      1.367819   452A      1.381819   453A      1.381915  
     454A      1.390434   455A      1.393056   456A      1.422606  
     457A      1.433363   458A      1.433411   459A      1.480847  
     460A      1.507675   461A      1.508226   462A      1.525789  
     463A      1.525816   464A      1.530674   465A      1.532352  
     466A      1.532473   467A      1.535624   468A      1.545935  
     469A      1.546809   470A      1.610171   471A      1.618659  
     472A      1.618789   473A      1.621722   474A      1.622981  
     475A      1.631370   476A      1.632807   477A      1.632875  
     478A      1.635676   479A      1.688088   480A      1.700375  
     481A      1.702770   482A      1.713220   483A      1.716128  
     484A      1.724039   485A      1.729208   486A      1.729427  
     487A      1.748743   488A      1.749479   489A      1.752028  
     490A      1.752218   491A      1.764923   492A      1.804463  
     493A      1.805853   494A      1.806035   495A      1.806945  
     496A      1.808127   497A      1.814815   498A      1.818430  
     499A      1.818763   500A      1.820986   501A      1.828299  
     502A      1.828392   503A      1.841807   504A      1.851829  
     505A      1.852985   506A      1.857842   507A      1.858402  
     508A      1.864027   509A      1.876055   510A      1.879768  
     511A      1.887141   512A      1.887393   513A      1.890571  
     514A      1.890860   515A      1.891025   516A      1.892483  
     517A      1.895384   518A      1.896239   519A      1.900717  
     520A      1.900820   521A      1.902573   522A      1.902660  
     523A      1.912985   524A      1.920869   525A      1.921519  
     526A      1.929818   527A      1.929844   528A      1.936768  
     529A      1.938933   530A      1.944995   531A      1.946825  
     532A      1.946859   533A      1.950430   534A      1.951326  
     535A      1.955045   536A      1.955140   537A      1.968499  
     538A      1.968750   539A      1.969449   540A      1.969693  
     541A      1.970392   542A      1.971315   543A      1.981598  
     544A      1.981907   545A      1.989369   546A      1.990243  
     547A      1.990595   548A      1.995376   549A      1.995458  
     550A      1.997180   551A      1.999016   552A      1.999698  
     553A      1.999883   554A      2.011012   555A      2.011199  
     556A      2.024865   557A      2.030481   558A      2.031340  
     559A      2.031451   560A      2.031699   561A      2.035138  
     562A      2.035150   563A      2.040988   564A      2.041063  
     565A      2.049373   566A      2.049411   567A      2.054881  
     568A      2.057711   569A      2.059617   570A      2.059630  
     571A      2.064032   572A      2.064176   573A      2.064426  
     574A      2.070059   575A      2.082798   576A      2.082833  
     577A      2.091912   578A      2.092134   579A      2.119549  
     580A      2.128720   581A      2.128735   582A      2.134005  
     583A      2.137219   584A      2.137273   585A      2.137446  
     586A      2.141935   587A      2.146880   588A      2.146965  
     589A      2.155963   590A      2.156516   591A      2.156823  
     592A      2.161298   593A      2.164735   594A      2.177211  
     595A      2.177282   596A      2.182213   597A      2.182994  
     598A      2.186184   599A      2.190638   600A      2.190683  
     601A      2.201058   602A      2.201139   603A      2.201249  
     604A      2.203628   605A      2.203651   606A      2.208600  
     607A      2.208659   608A      2.210209   609A      2.211002  
     610A      2.211505   611A      2.211627   612A      2.211696  
     613A      2.216487   614A      2.216537   615A      2.222600  
     616A      2.222611   617A      2.223742   618A      2.226628  
     619A      2.226629   620A      2.230095   621A      2.231434  
     622A      2.231837   623A      2.232061   624A      2.233254  
     625A      2.234597   626A      2.237167   627A      2.237277  
     628A      2.238393   629A      2.238555   630A      2.241026  
     631A      2.241127   632A      2.245003   633A      2.245037  
     634A      2.246779   635A      2.249587   636A      2.249697  
     637A      2.253428   638A      2.254881   639A      2.255706  
     640A      2.255774   641A      2.256603   642A      2.278334  
     643A      2.278363   644A      2.299743   645A      2.300966  
     646A      2.305120   647A      2.305151   648A      2.309541  
     649A      2.309770   650A      2.311578   651A      2.314005  
     652A      2.314010   653A      2.329083   654A      2.329864  
     655A      2.329980   656A      2.336363   657A      2.336450  
     658A      2.337445   659A      2.348227   660A      2.348272  
     661A      2.354613   662A      2.354642   663A      2.359930  
     664A      2.371885   665A      2.371963   666A      2.379653  
     667A      2.388390   668A      2.388398   669A      2.391036  
     670A      2.391106   671A      2.396178   672A      2.403013  
     673A      2.406752   674A      2.406787   675A      2.406983  
     676A      2.421058   677A      2.422361   678A      2.426654  
     679A      2.426695   680A      2.429976   681A      2.430024  
     682A      2.432168   683A      2.432276   684A      2.433295  
     685A      2.434843   686A      2.441539   687A      2.442147  
     688A      2.442255   689A      2.444230   690A      2.444430  
     691A      2.450899   692A      2.456892   693A      2.457730  
     694A      2.465781   695A      2.471029   696A      2.471364  
     697A      2.472653   698A      2.472767   699A      2.479860  
     700A      2.481352   701A      2.481473   702A      2.485132  
     703A      2.485178   704A      2.494229   705A      2.499478  
     706A      2.499516   707A      2.499712   708A      2.510440  
     709A      2.510458   710A      2.517485   711A      2.517546  
     712A      2.527103   713A      2.529437   714A      2.532892  
     715A      2.532935   716A      2.538417   717A      2.547961  
     718A      2.548748   719A      2.548917   720A      2.564164  
     721A      2.564181   722A      2.568228   723A      2.568269  
     724A      2.577173   725A      2.586934   726A      2.589661  
     727A      2.597859   728A      2.597916   729A      2.603201  
     730A      2.605139   731A      2.610193   732A      2.610254  
     733A      2.610444   734A      2.610515   735A      2.617449  
     736A      2.622881   737A      2.622949   738A      2.627643  
     739A      2.635791   740A      2.641728   741A      2.642691  
     742A      2.642812   743A      2.667657   744A      2.667717  
     745A      2.684005   746A      2.687432   747A      2.687502  
     748A      2.694226   749A      2.694254   750A      2.695353  
     751A      2.695410   752A      2.696350   753A      2.710522  
     754A      2.710892   755A      2.711124   756A      2.715792  
     757A      2.719779   758A      2.720151   759A      2.720757  
     760A      2.720792   761A      2.738934   762A      2.739041  
     763A      2.755224   764A      2.755248   765A      2.763647  
     766A      2.763938   767A      2.771220   768A      2.771407  
     769A      2.774667   770A      2.776295   771A      2.776488  
     772A      2.782076   773A      2.782101   774A      2.787172  
     775A      2.787261   776A      2.805450   777A      2.805587  
     778A      2.807260   779A      2.807325   780A      2.808897  
     781A      2.813147   782A      2.820350   783A      2.820462  
     784A      2.822381   785A      2.825948   786A      2.828939  
[...]
     709A      1.366979   710A      1.380071   711A      1.391389  
     712A      1.398694   713A      1.404177   714A      1.404201  
     715A      1.408156   716A      1.408184   717A      1.412360  
     718A      1.412407   719A      1.420050   720A      1.421751  
     721A      1.426224   722A      1.426247   723A      1.429567  
     724A      1.430102   725A      1.432882   726A      1.436342  
     727A      1.436374   728A      1.439428   729A      1.439698  
     730A      1.439892   731A      1.448181   732A      1.448202  
     733A      1.450503   734A      1.463779   735A      1.463790  
     736A      1.473392   737A      1.473589   738A      1.516482  
     739A      1.516538   740A      1.521241   741A      1.521268  
     742A      1.529466   743A      1.552342   744A      1.571302  
     745A      1.582488   746A      1.598562   747A      1.599576  
     748A      1.600143   749A      1.608614   750A      1.608657  
     751A      1.609183   752A      1.612878   753A      1.613060  
     754A      1.617336   755A      1.621938   756A      1.622053  
     757A      1.629745   758A      1.630081   759A      1.635570  
     760A      1.635586   761A      1.638615   762A      1.640024  
     763A      1.640065   764A      1.643521   765A      1.643841  
     766A      1.643924   767A      1.644233   768A      1.651382  
     769A      1.661121   770A      1.661140   771A      1.667417  
     772A      1.676268   773A      1.676341   774A      1.676738  
     775A      1.676750   776A      1.677014   777A      1.682932  
     778A      1.686614   779A      1.686669   780A      1.696041  
     781A      1.697640   782A      1.699294   783A      1.699343  
     784A      1.700840   785A      1.704752   786A      1.704824  
     787A      1.715721   788A      1.715742   789A      1.740383  
     790A      1.740573   791A      1.741671   792A      1.751386  
     793A      1.760278   794A      1.760298   795A      1.761062  
     796A      1.761755   797A      1.776735   798A      1.776757  
     799A      1.791501   800A      1.791522   801A      1.816545  
     802A      1.816576   803A      1.816687   804A      1.817930  
     805A      1.824648   806A      1.824749   807A      1.826621  
     808A      1.830869   809A      1.830937   810A      1.837184  
     811A      1.842397   812A      1.842716   813A      1.860768  
     814A      1.860816   815A      1.861254   816A      1.861305  
     817A      1.864037   818A      1.869007   819A      1.872254  
     820A      1.880150   821A      1.880204   822A      1.896154  
     823A      1.896247   824A      1.899445   825A      1.902944  
     826A      1.903069   827A      1.908538   828A      1.908686  
     829A      1.913922   830A      1.914180   831A      1.917644  
     832A      1.917795   833A      1.919222   834A      1.921969  
     835A      1.922055   836A      1.940434   837A      1.941205  
     838A      1.941842   839A      1.942013   840A      1.946416  
     841A      1.946448   842A      1.954139   843A      1.954148  
     844A      1.954431   845A      1.954479   846A      1.957989  
     847A      1.970535   848A      1.983120   849A      1.983185  
     850A      1.990063   851A      1.997092   852A      1.998528  
     853A      1.998552   854A      2.004166   855A      2.008054  
     856A      2.012302   857A      2.012469   858A      2.027781  
     859A      2.027853   860A      2.030058   861A      2.030197  
     862A      2.030583   863A      2.031231   864A      2.031350  
     865A      2.047859   866A      2.051871   867A      2.052250  
     868A      2.057416   869A      2.058097   870A      2.059724  
     871A      2.059966   872A      2.068233   873A      2.070425  
     874A      2.071305   875A      2.071669   876A      2.075681  
     877A      2.075728   878A      2.081088   879A      2.084788  
     880A      2.084830   881A      2.092853   882A      2.094662  
     883A      2.095667   884A      2.096846   885A      2.100525  
     886A      2.100590   887A      2.106652   888A      2.108210  
     889A      2.108269   890A      2.109792   891A      2.109879  
     892A      2.111838   893A      2.114400   894A      2.119259  
     895A      2.119316   896A      2.120506   897A      2.120571  
     898A      2.126184   899A      2.126208   900A      2.133550  
     901A      2.134558   902A      2.135801   903A      2.135877  
     904A      2.143161   905A      2.143180   906A      2.155587  
     907A      2.159639   908A      2.159688   909A      2.162800  
     910A      2.162840   911A      2.171284   912A      2.178271  
     913A      2.178341   914A      2.190350   915A      2.190736  
     916A      2.192485   917A      2.193752   918A      2.195772  
     919A      2.195881   920A      2.198453   921A      2.219653  
     922A      2.220249   923A      2.220281   924A      2.227880  
     925A      2.228129   926A      2.228559   927A      2.228998  
     928A      2.243226   929A      2.243564   930A      2.243836  
     931A      2.244233   932A      2.247088   933A      2.260049  
     934A      2.260160   935A      2.270126   936A      2.270137  
     937A      2.272009   938A      2.272055   939A      2.281040  
     940A      2.300172   941A      2.306659   942A      2.310307  
     943A      2.312137   944A      2.319954   945A      2.322309  
     946A      2.330923   947A      2.330974   948A      2.331077  
     949A      2.333823   950A      2.350671   951A      2.351352  
     952A      2.352350   953A      2.352430   954A      2.366255  
     955A      2.366368   956A      2.374575   957A      2.379383  
     958A      2.415834   959A      2.423990   960A      2.424362  
     961A      2.424387   962A      2.436440   963A      2.441083  
     964A      2.441123   965A      2.469879   966A      2.472623  
     967A      2.472782   968A      2.485363   969A      2.485381  
     970A      2.502285   971A      2.519197   972A      2.529748  
     973A      2.529850   974A      2.543593   975A      2.545414  
     976A      2.545447   977A      2.554223   978A      2.554291  
     979A      2.554783   980A      2.559813   981A      2.559818  
     982A      2.572959   983A      2.572994   984A      2.574637  
     985A      2.575190   986A      2.586211   987A      2.586324  
     988A      2.587237   989A      2.589695   990A      2.591381  
     991A      2.606014   992A      2.623434   993A      2.623501  
     994A      2.625163   995A      2.631328   996A      2.631870  
     997A      2.641155   998A      2.641223   999A      2.650747  
    1000A      2.651103  1001A      2.656833  1002A      2.681893  
    1003A      2.683066  1004A      2.683960  1005A      2.686781  
    1006A      2.701915  1007A      2.702241  1008A      2.712993  
    1009A      2.713000  1010A      2.718646  1011A      2.718666  
    1012A      2.722531  1013A      2.722762  1014A      2.737337  
    1015A      2.752042  1016A      2.752431  1017A      2.776955  
    1018A      2.794431  1019A      2.794586  1020A      2.810571  
    1021A      2.811208  1022A      2.812870  1023A      2.817226  
    1024A      2.827075  1025A      2.827455  1026A      2.851734  
    1027A      2.851889  1028A      2.856005  1029A      2.858294  
    1030A      2.859344  1031A      2.859440  1032A      2.867647  
    1033A      2.916691  1034A      2.916713  1035A      2.923656  
    1036A      2.933509  1037A      2.933570  1038A      2.949544  
    1039A      2.949568  1040A      2.962727  1041A      3.006814  
    1042A      3.007016  1043A      3.011850  1044A      3.029301  
    1045A      3.064057  1046A      3.064100  1047A      3.070388  
    1048A      3.070491  1049A      3.109348  1050A      3.110155  
    1051A      3.127849  1052A      3.129481  1053A      3.129756  
    1054A      3.137436  1055A      3.146135  1056A      3.146248  
    1057A      3.146292  1058A      3.148991  1059A      3.148993  
    1060A      3.157631  1061A      3.158002  1062A      3.165631  
    1063A      3.166094  1064A      3.191606  1065A      3.211128  
    1066A      3.218479  1067A      3.237340  1068A      3.272534  
    1069A      3.276892  1070A      3.277035  1071A      3.281764  
    1072A      3.281932  1073A      3.416168  1074A      3.416642  
    1075A      3.442823  1076A      3.481302  1077A      3.483970  
    1078A      3.549097  1079A      3.577006  1080A      3.578985  
    1081A      3.593797  1082A      3.626450  1083A      3.628441  
    1084A      3.662765  1085A      3.667625  1086A      3.769206  
    1087A      3.782648  1088A      3.783598  1089A      3.870714  
    1090A      3.870725  1091A      3.913072  1092A      3.913186  
    1093A      3.976889  1094A      4.010845  1095A      4.032664  
    1096A      4.044553  1097A      4.080664  1098A      4.184024  
    1099A      4.184787  1100A      4.184862  1101A      4.323684  
    1102A      5.746779  1103A      5.746780  1104A      5.747854  
    1105A      5.751153  1106A      5.751155  1107A      5.757287  
    1108A      5.757290  1109A      5.757816  1110A      5.776493  
    1111A      5.776535  1112A      5.777865  1113A      6.017894  
    1114A      6.018218  1115A      6.018967  1116A      6.190574  
    1117A      6.324861  1118A      6.325190  1119A      6.371435  
    1120A      6.371944  1121A      6.372280  1122A      7.146001  
    1123A      7.146107  1124A      7.220848  1125A      7.220974  
    1126A      7.232529  1127A      7.240705  1128A      7.248140  
    1129A      7.248182  1130A      7.452444  1131A      7.452592  
    1132A      7.461099  1133A      7.593368  1134A     12.590088  
    1135A     42.905741  1136A     42.907790  1137A     42.907838  
    1138A     42.936148  

    Final Occupation by Irrep:
              A 
    DOCC [   171 ]
    NA   [   171 ]
    NB   [   171 ]

  @DF-RHF Final Energy: -2055.89165300796822

   => Energetics <=

    Nuclear Repulsion Energy =           6452.5568002797772351
    One-Electron Energy =              -15636.4252916313944297
    Two-Electron Energy =                7127.9768383436485237
    Total Energy =                      -2055.8916530079686709

Computation Completed


Properties will be evaluated at   0.000000,   0.000000,   0.000000 [a0]

Properties computed using the SCF density matrix


 Multipole Moments:

 ------------------------------------------------------------------------------------
     Multipole            Electronic (a.u.)      Nuclear  (a.u.)        Total (a.u.)
 ------------------------------------------------------------------------------------

 L = 1.  Multiply by 2.5417464519 to convert [e a0] to [Debye]
 Dipole X            :          0.0000510            0.0000419            0.0000929
 Dipole Y            :          0.0000266           -0.0000426           -0.0000159
 Dipole Z            :        537.5422981         -537.5432498           -0.0009517
 Magnitude           :                                                    0.0009563

 ------------------------------------------------------------------------------------

*** tstop() called on d-17-1-1 at Mon Jan 22 10:39:46 2024
Module time:
	user time   =    2380.44 seconds =      39.67 minutes
	system time =      67.63 seconds =       1.13 minutes
	total time  =        308 seconds =       5.13 minutes
Total time:
	user time   =    6547.49 seconds =     109.12 minutes
	system time =     161.24 seconds =       2.69 minutes
	total time  =        788 seconds =      13.13 minutes
  Constructing Basis Sets for SAPT...

   => Loading Basis Set <=

    Name: (JUN-CC-PVDZ AUX)
    Role: RIFIT
    Keyword: DF_BASIS_SAPT
    atoms 1     entry B          line    56 file /home/gridsan/tfroembgen/.conda/envs/psi4test/share/psi4/basis/jun-cc-pvdz-ri.gbs 
    atoms 2-5   entry F          line   232 file /home/gridsan/tfroembgen/.conda/envs/psi4test/share/psi4/basis/jun-cc-pvdz-ri.gbs 
    atoms 6-59  entry C          line   100 file /home/gridsan/tfroembgen/.conda/envs/psi4test/share/psi4/basis/jun-cc-pvdz-ri.gbs 
    atoms 60-77 entry H          line    30 file /home/gridsan/tfroembgen/.conda/envs/psi4test/share/psi4/basis/jun-cc-pvdz-ri.gbs 

   => Loading Basis Set <=

    Name: (JUN-CC-PVDZ AUX)
    Role: JKFIT
    Keyword: DF_BASIS_ELST
    atoms 1     entry B          line    90 file /home/gridsan/tfroembgen/.conda/envs/psi4test/share/psi4/basis/jun-cc-pvdz-jkfit.gbs 
    atoms 2-5   entry F          line   314 file /home/gridsan/tfroembgen/.conda/envs/psi4test/share/psi4/basis/jun-cc-pvdz-jkfit.gbs 
    atoms 6-59  entry C          line   146 file /home/gridsan/tfroembgen/.conda/envs/psi4test/share/psi4/basis/jun-cc-pvdz-jkfit.gbs 
    atoms 60-77 entry H          line    70 file /home/gridsan/tfroembgen/.conda/envs/psi4test/share/psi4/basis/jun-cc-pvdz-jkfit.gbs 


  //>>>>>>>>>>>>>>>>>>>>>>>>>>>>>>>>>>>//
  //               SSAPT0              //
  //<<<<<<<<<<<<<<<<<<<<<<<<<<<<<<<<<<<//


*** tstart() called on d-17-1-1
*** at Mon Jan 22 10:39:47 2024

        SAPT0  
    Ed Hohenstein
     6 June 2009

      Orbital Information
  --------------------------
    NSO        =      1152
    NMO        =      1138
    NRI        =      4087
    NRI (Elst) =      5075
    NOCC A     =        21
    NOCC B     =       171
    FOCC A     =         5
    FOCC B     =        54
    NVIR A     =      1117
    NVIR B     =       967

    Elst10,r            =     0.007150073783 [Eh]
    Exch10              =    -0.000000166672 [Eh]
    Exch10 (S^2)        =    -0.000000166672 [Eh]

    Iter     Energy [mEh]          dE [mEh]         Residual      Time [s]
       1      -0.00406917       0.004069173       0.449517374            61
       2      -0.00475605       0.000686876       0.230955111           102
       3      -0.00501263       0.000256577       0.048417483           116
       4      -0.00502488       0.000012251       0.009164666           129
       5      -0.00501571      -0.000009172       0.001173669           143
       6      -0.00501653       0.000000822       0.000282390           157
       7      -0.00501653       0.000000004       0.000094284           169
       8      -0.00501651      -0.000000025       0.000022749           181
       9      -0.00501650      -0.000000004       0.000003530           198
      10      -0.00501650       0.000000001       0.000000828           214

    CHF Iterations converged


    Iter     Energy [mEh]          dE [mEh]         Residual      Time [s]
       1      -2.99658882       2.996588823      28.631451739           112
       2      -2.03761373      -0.958975088       3.573052895           294
       3      -2.03989136       0.002277626       1.289245245           569
       4      -2.08829611       0.048404754       0.289665349           588
       5      -2.09046886       0.002172747       0.079846434           604
       6      -2.08955456      -0.000914301       0.036041420           622
       7      -2.08925094      -0.000303621       0.015053087           639
       8      -2.08939130       0.000140363       0.009596421           658
       9      -2.08944330       0.000052002       0.005935116           678
      10      -2.08939942      -0.000043882       0.003372640           698
      11      -2.08939463      -0.000004791       0.001357987           716
      12      -2.08940064       0.000006010       0.000596081           734
      13      -2.08940236       0.000001720       0.000232628           753
      14      -2.08940201      -0.000000354       0.000082286           771
      15      -2.08940151      -0.000000500       0.000024146           788
      16      -2.08940157       0.000000060       0.000013365           805
      17      -2.08940162       0.000000054       0.000006725           822
      18      -2.08940162      -0.000000004       0.000002380           840
      19      -2.08940161      -0.000000010       0.000001021           858
      20      -2.08940161      -0.000000001       0.000000367           874

    CHF Iterations converged

    Ind20,r (A<-B)      =    -0.000005016504 [Eh]
    Ind20,r (B<-A)      =    -0.002089401606 [Eh]
    Ind20,r             =    -0.002094418110 [Eh]
    Exch-Ind20,r (A<-B) =     0.000000018583 [Eh]
    Exch-Ind20,r (B<-A) =     0.000000029515 [Eh]
    Exch-Ind20,r        =     0.000000048098 [Eh]
    Disp20              =    -0.000326397180 [Eh]
    Disp20 (SS)         =    -0.000163198590 [Eh]
    Disp20 (OS)         =    -0.000163198590 [Eh]
    Exch-Disp20         =     0.000000042243 [Eh]
    Exch-Disp20 (SS)    =     0.000000032811 [Eh]
    Exch-Disp20 (OS)    =     0.000000009432 [Eh]

    SAPT Results 
  --------------------------------------------------------------------------------------------------------
    Electrostatics                  7.15007378 [mEh]       4.48673904 [kcal/mol]      18.77251613 [kJ/mol]
      Elst10,r                      7.15007378 [mEh]       4.48673904 [kcal/mol]      18.77251613 [kJ/mol]

    Exchange                       -0.00016667 [mEh]      -0.00010459 [kcal/mol]      -0.00043760 [kJ/mol]
      Exch10                       -0.00016667 [mEh]      -0.00010459 [kcal/mol]      -0.00043760 [kJ/mol]
      Exch10(S^2)                  -0.00016667 [mEh]      -0.00010459 [kcal/mol]      -0.00043760 [kJ/mol]

    Induction                      -2.08202898 [mEh]      -1.30649291 [kcal/mol]      -5.46636634 [kJ/mol]
      Ind20,r                      -2.09441811 [mEh]      -1.31426721 [kcal/mol]      -5.49889399 [kJ/mol]
      Exch-Ind20,r                  0.00004810 [mEh]       0.00003018 [kcal/mol]       0.00012628 [kJ/mol]
      delta HF,r (2)                0.01234103 [mEh]       0.00774411 [kcal/mol]       0.03240137 [kJ/mol]

    Dispersion                     -0.32635494 [mEh]      -0.20479081 [kcal/mol]      -0.85684477 [kJ/mol]
      Disp20                       -0.32639718 [mEh]      -0.20481732 [kcal/mol]      -0.85695568 [kJ/mol]
      Exch-Disp20                   0.00004224 [mEh]       0.00002651 [kcal/mol]       0.00011091 [kJ/mol]
      Disp20 (SS)                  -0.16319859 [mEh]      -0.10240866 [kcal/mol]      -0.42847784 [kJ/mol]
      Disp20 (OS)                  -0.16319859 [mEh]      -0.10240866 [kcal/mol]      -0.42847784 [kJ/mol]
      Exch-Disp20 (SS)              0.00003281 [mEh]       0.00002059 [kcal/mol]       0.00008615 [kJ/mol]
      Exch-Disp20 (OS)              0.00000943 [mEh]       0.00000592 [kcal/mol]       0.00002476 [kJ/mol]

  Total HF                          5.06787813 [mEh]       3.18014154 [kcal/mol]      13.30571219 [kJ/mol]
  Total SAPT0                       4.74152319 [mEh]       2.97535072 [kcal/mol]      12.44886743 [kJ/mol]

  Special recipe for scaled SAPT0 (see Manual):
    Electrostatics sSAPT0           7.15007378 [mEh]       4.48673904 [kcal/mol]      18.77251613 [kJ/mol]
    Exchange sSAPT0                -0.00016667 [mEh]      -0.00010459 [kcal/mol]      -0.00043760 [kJ/mol]
    Induction sSAPT0               -2.08202898 [mEh]      -1.30649291 [kcal/mol]      -5.46636634 [kJ/mol]
    Dispersion sSAPT0              -0.32635494 [mEh]      -0.20479081 [kcal/mol]      -0.85684477 [kJ/mol]
  Total sSAPT0                      4.74152319 [mEh]       2.97535072 [kcal/mol]      12.44886743 [kJ/mol]
  --------------------------------------------------------------------------------------------------------

*** tstop() called on d-17-1-1 at Mon Jan 22 11:35:33 2024
Module time:
	user time   =    6899.71 seconds =     115.00 minutes
	system time =     670.99 seconds =      11.18 minutes
	total time  =       3346 seconds =      55.77 minutes
Total time:
	user time   =   13448.54 seconds =     224.14 minutes
	system time =     832.25 seconds =      13.87 minutes
	total time  =       4135 seconds =      68.92 minutes

    Psi4 stopped on: Monday, 22 January 2024 11:35AM
    Psi4 wall time for execution: 1:08:56.30

*** Psi4 exiting successfully. Buy a developer a beer!
