
    -----------------------------------------------------------------------
          Psi4: An Open-Source Ab Initio Electronic Structure Package
                               Psi4 1.9 release

                         Git: Rev {} zzzzzzz 


    D. G. A. Smith, L. A. Burns, A. C. Simmonett, R. M. Parrish,
    M. C. Schieber, R. Galvelis, P. Kraus, H. Kruse, R. Di Remigio,
    A. Alenaizan, A. M. James, S. Lehtola, J. P. Misiewicz, M. Scheurer,
    R. A. Shaw, J. B. Schriber, Y. Xie, Z. L. Glick, D. A. Sirianni,
    J. S. O'Brien, J. M. Waldrop, A. Kumar, E. G. Hohenstein,
    B. P. Pritchard, B. R. Brooks, H. F. Schaefer III, A. Yu. Sokolov,
    K. Patkowski, A. E. DePrince III, U. Bozkaya, R. A. King,
    F. A. Evangelista, J. M. Turney, T. D. Crawford, C. D. Sherrill,
    J. Chem. Phys. 152(18) 184108 (2020). https://doi.org/10.1063/5.0006002

                            Additional Code Authors
    E. T. Seidl, C. L. Janssen, E. F. Valeev, M. L. Leininger,
    J. F. Gonthier, R. M. Richard, H. R. McAlexander, M. Saitow, X. Wang,
    P. Verma, M. H. Lechner, A. Jiang, S. Behnle, A. G. Heide,
    M. F. Herbst, and D. L. Poole

             Previous Authors, Complete List of Code Contributors,
                       and Citations for Specific Modules
    https://github.com/psi4/psi4/blob/master/codemeta.json
    https://github.com/psi4/psi4/graphs/contributors
    http://psicode.org/psi4manual/master/introduction.html#citing-psifour

    -----------------------------------------------------------------------


    Psi4 started on: Saturday, 10 February 2024 01:42PM

    Process ID: 120482
    Host:       n2cn0625.ab2021.local
    PSIDATADIR: /opt/software/pc2/EB-SW/software/PSI4/1.9-foss-2022a/share/psi4
    Memory:     500.0 MiB
    Threads:    16
    
  ==> Input File <==

--------------------------------------------------------------------------
memory 80 GB # how much memory is available ! Depends on the nodes/cores !

molecule dimer {
# monomer A
+1 1    # Charge and multiplicity
C  0.680067 1.417258 -5.315929
C -0.680504 1.419286 -5.315545
N -1.085635 1.420284 -3.997221
C  0.000108 1.423560 -3.215820
C -2.477365 1.469690 -3.529242
N  1.085222 1.420284 -3.997221
H  1.385146 1.409430 -6.133368
H -1.385302 1.419096 -6.133214
H -0.000009 1.425307 -2.134731
C  2.478117 1.403392 -3.532123
H  2.490592 1.430737 -2.441870
H  2.967028 0.489946 -3.879299
H  3.001428 2.278875 -3.923595
H -2.857359 2.491761 -3.609201
H -3.082679 0.799606 -4.142306
H -2.518128 1.142706 -2.489294
--
# monomer B
0 1     # Charge and multiplicity
C   -3.66844126402057      7.80375217008252      0.00190004133558
C   -4.84759871934653      7.13124183134024     -0.00046653359696
C   -4.89495929917518      5.69633040353158     -0.00103944469517
C   -3.65374067877320      4.98073034095895      0.00662099703436
C   -2.40942512149445      7.11398103667468      0.00209438359570
C   -2.42547734410473      5.68112195090346     -0.00491050527438
C   -1.19474401643570      7.78614419430947      0.00356656413763
C   0.03795902893699      7.09942164575698      0.00139585983271
C   0.03033258741920      5.66948955970466     -0.00408752508301
C   -1.20098450790502      4.96927034791531      0.00488220885047
C   1.27795782581485      7.77285944319479      0.00277170839332
C   2.48535808472416      7.08769688523756      0.00049722048857
C   2.48612868491717      5.65477081024076     -0.00644052849921
C   1.25408291964399      4.95607811366431      0.00518741308898
C   3.75171459140595      7.76391215098033      0.00062407186893
C   4.92356605618520      7.07878077698995     -0.00143240883900
C   4.95560727132542      5.64344746336949     -0.00159282164606
C   3.70680153420475      4.94121020833308      0.00349873852374
H   -3.65852113775815      8.89082741913536      0.00358502958574
H   -1.18921332975660      8.87412108735996      0.00753844057883
H   1.28429423888630      8.86083343548850      0.00693053253426
H   3.75354208679975      8.85103527897216      0.00214659618464
H   5.86995870320703      7.61379483465560     -0.00235777588134
H   -5.78823170750226      7.67630221293400     -0.00202638095293
C   -6.09197395869619      4.99326001364347     -0.00291168518608
C   -6.12866148031747      3.58258016879823     -0.00171050815740
C   -3.66457974004527      3.56418217974434     -0.00463560277484
C   -4.89429820469869      2.86108077590057      0.00453338221034
C   -2.43733499489796      2.84761165708481      0.00719617576166
C   -1.20922785759670      3.54788693497833     -0.00648285103018
C   1.24714157216223      3.53468075142962     -0.00729145743546
C   0.01517603956900      2.83311183930540      0.00439272578912
C   2.46764517244071      2.82128997725533      0.00449278391269
C   3.70254947457969      3.52466015442405     -0.00899517692985
C   6.14498038638375      4.92757236613191     -0.00282626685777
C   6.16658835886151      3.51658447594213     -0.00065971342101
C   4.92460995845939      2.80840792535402      0.00587903281610
H   7.08990550964105      5.46688776622306     -0.00658814770723
H   -7.03104175110130      5.54268795285765     -0.00714490013730
C   -7.33969804112295      2.85841153457957     -0.00333767559888
C   -7.36488195805880      1.47032337158330     -0.00157213747140
C   -4.90350460894690      1.44442681216000     -0.00628840166334
C   -6.13225715261081      0.73993935705394      0.00600164231964
C   -3.67687480051673      0.72669714267312      0.00433931473643
C   -2.44565658606518      1.42964113326212     -0.00597039546461
C   -1.22360068130162      0.71532450163492      0.00545886906656
C   0.00763786931376      1.41738314923765      0.00392452278437
C   1.23121980774686      0.70211669058719     -0.01490206287210
C   2.46082110053113      1.40329203612573      0.00460244601878
C   3.68443025419614      0.68719842821222      0.00377365974158
C   4.91870890153864      1.39173456118907     -0.00862816189375
C   7.36980207796101      2.77948220318441     -0.00242013321349
C   7.38016266612146      1.39121750785509     -0.00087345036788
C   6.13979953912259      0.67411862320065      0.00545489144369
H   -8.27919079934664      3.40711804112415     -0.00763522772059
H   8.31511347147953      3.31811809662368     -0.00663070901292
C   -8.59175593758115      0.72483255304480     -0.00123170985383
C   -8.59902460370342     -0.63263980622873      0.00089141472904
C   -6.13981313911873     -0.67413663715361     -0.00609792660607
C   -7.38018411213749     -1.39126618958160      0.00131813493501
C   -4.91868448025621     -1.39175501803000      0.00624257154343
C   -3.68443829568458     -0.68723731573599     -0.00478966852105
C   -2.46081704024768     -1.40334517882457      0.00575341766833
C   -1.23116201232071     -0.70217386488055     -0.00636696112346
C   -0.00756962538737     -1.41741884941102      0.00108956317991
C   1.22364771588843     -0.71527537726392      0.01109518512883
C   2.44567064933149     -1.42964328900682     -0.00065482763106
C   3.67686670284649     -0.72670743155550     -0.00479541202602
C   6.13224884641929     -0.73997883984993     -0.00632338623858
C   4.90351914550401     -1.44445752054090      0.00751768830159
C   8.59901484869081      0.63260386666793     -0.00101133422380
C   8.59174548810050     -0.72485086719319      0.00072504603735
C   7.36486276438985     -1.47033266560598      0.00049486934466
H   -9.52830597181814      1.27684744919284     -0.00270163681798
H   9.54141097460619      1.17457248844457     -0.00206336648518
C   -7.36983790976868     -2.77954514593389      0.00312634335708
C   -4.92459910905015     -2.80843725734101     -0.00460528907921
C   -6.16662249566744     -3.51665219282533      0.00169655107992
C   -3.70251035970491     -3.52468154912026      0.00571878010666
C   -2.46764698511392     -2.82132596280400     -0.00632585824990
C   -0.01513347410770     -2.83314164539971     -0.00604426974092
C   -1.24712184122656     -3.53473217556300      0.00551968366725
C   1.20924506964357     -3.54791467864352      0.00805871345849
C   2.43733602215464     -2.84764173817541     -0.00608104485234
C   4.89430234377080     -2.86112296828604     -0.00526030478103
C   3.66461525504104     -3.56421984553201      0.00761911515957
C   6.12863901474565     -3.58258405771778      0.00096495711699
C   7.33967266469532     -2.85841330737039      0.00248018319869
H   -9.54144911125902     -1.17456346666430      0.00226083090216
H   9.52826186807155     -1.27691907390448      0.00197485379837
H   -8.31516504384864     -3.31814985321231      0.00729857188773
H   8.27915514249207     -3.40714078989363      0.00681973918158
C   -6.14499418870218     -4.92764727278338      0.00302254913999
C   -3.70678334799751     -4.94126171411716     -0.00679841894792
C   -4.95559005800169     -5.64349397349412      0.00116871569699
C   -2.48612132622665     -5.65478557440947      0.00614125209662
C   -1.25405833548005     -4.95612205000132     -0.00503435388927
C   1.20101257386816     -4.96928038819302     -0.00385322963129
C   -0.03033667441341     -5.66952030313900      0.00398997003238
C   3.65375010132847     -4.98074377541453     -0.00309522988330
C   2.42549269587528     -5.68117463552727      0.00628170066869
C   6.09196561781097     -4.99325796338655      0.00325918379042
C   4.89497644461045     -5.69634842095790      0.00202298796027
H   -7.08989238804069     -5.46699984223871      0.00742531082125
H   7.03105520920009     -5.54265853633254      0.00683896355417
C   -4.92354532219813     -7.07882109967734      0.00061394679214
C   -2.48534208823777     -7.08772807792913     -0.00189594564379
C   -3.75168589177895     -7.76394715763627     -0.00170126671874
C   -0.03794895698805     -7.09946487446944     -0.00168022049625
C   -1.27795610040136     -7.77290438466689     -0.00366491325785
C   2.40944432072629     -7.11402201200282     -0.00081701968533
C   1.19474993715296     -7.78618536556242     -0.00296931056689
C   4.84762105249800     -7.13126211057943      0.00168979497423
C   3.66847160587561     -7.80378799294376     -0.00065863938960
H   -5.86994035041618     -7.61383059804164      0.00215798365757
H   5.78824962538815     -7.67633218931421      0.00281691445618
H   -3.75352693944918     -8.85107156923607     -0.00353718114765
H   -1.28430440589466     -8.86087539249706     -0.00809229711623
H   1.18922157469537     -8.87416062058945     -0.00706194725726
H   3.65854661482387     -8.89086063405326     -0.00231318081200

    units angstrom      # Angstroms are the default
    no_reorient         # Geometry fixed, default
    symmetry c1         # C1 symmetry, default
}

set {
    scf_type DF         # Density fitting, faster than exact integrals
    freeze_core True    # Freeze core electrons
    basis jun-cc-pVDZ   # Jun-cc-pVDZ basis set, recommended for sSAPT0 in https://doi.org/10.1063/1.4867135
}

energy('ssapt0')        # Compute sSAPT0 energy, includes also SAPT0
--------------------------------------------------------------------------

  Memory set to  74.506 GiB by Python driver.

Scratch directory: /tmp/
   => Loading Basis Set <=

    Name: JUN-CC-PVDZ
    Role: ORBITAL
    Keyword: BASIS
    atoms 1-2, 4-5, 10, 17-34, 41-53, 56-70, 73-89, 92-104, 109-119, 122-130 entry C          line   164 file /opt/software/pc2/EB-SW/software/PSI4/1.9-foss-2022a/share/psi4/basis/jun-cc-pvdz.gbs 
    atoms 3, 6                                                               entry N          line   198 file /opt/software/pc2/EB-SW/software/PSI4/1.9-foss-2022a/share/psi4/basis/jun-cc-pvdz.gbs 
    atoms 7-9, 11-16, 35-40, 54-55, 71-72, 90-91, 105-108, 120-121, 131-136  entry H          line    36 file /opt/software/pc2/EB-SW/software/PSI4/1.9-foss-2022a/share/psi4/basis/jun-cc-pvdz.gbs 

   => Loading Basis Set <=

    Name: JUN-CC-PVDZ
    Role: ORBITAL
    Keyword: BASIS
    atoms 1-2, 4-5, 10, 17-34, 41-53, 56-70, 73-89, 92-104, 109-119, 122-130 entry C          line   164 file /opt/software/pc2/EB-SW/software/PSI4/1.9-foss-2022a/share/psi4/basis/jun-cc-pvdz.gbs 
    atoms 3, 6                                                               entry N          line   198 file /opt/software/pc2/EB-SW/software/PSI4/1.9-foss-2022a/share/psi4/basis/jun-cc-pvdz.gbs 
    atoms 7-9, 11-16, 35-40, 54-55, 71-72, 90-91, 105-108, 120-121, 131-136  entry H          line    36 file /opt/software/pc2/EB-SW/software/PSI4/1.9-foss-2022a/share/psi4/basis/jun-cc-pvdz.gbs 


  //>>>>>>>>>>>>>>>>>>>>>>>>>>>>>>>>>>>//
  //              Dimer HF             //
  //<<<<<<<<<<<<<<<<<<<<<<<<<<<<<<<<<<<//

   => Libint2 <=

    Primary   basis highest AM E, G, H:  5, 4, 3
    Auxiliary basis highest AM E, G, H:  6, 5, 4
    Onebody   basis highest AM E, G, H:  6, 5, 4
    Solid Harmonics ordering:            gaussian

*** tstart() called on n2cn0625.ab2021.local
*** at Sat Feb 10 13:42:26 2024

   => Loading Basis Set <=

    Name: JUN-CC-PVDZ
    Role: ORBITAL
    Keyword: BASIS
    atoms 1-2, 4-5, 10, 17-34, 41-53, 56-70, 73-89, 92-104, 109-119, 122-130 entry C          line   164 file /opt/software/pc2/EB-SW/software/PSI4/1.9-foss-2022a/share/psi4/basis/jun-cc-pvdz.gbs 
    atoms 3, 6                                                               entry N          line   198 file /opt/software/pc2/EB-SW/software/PSI4/1.9-foss-2022a/share/psi4/basis/jun-cc-pvdz.gbs 
    atoms 7-9, 11-16, 35-40, 54-55, 71-72, 90-91, 105-108, 120-121, 131-136  entry H          line    36 file /opt/software/pc2/EB-SW/software/PSI4/1.9-foss-2022a/share/psi4/basis/jun-cc-pvdz.gbs 


         ---------------------------------------------------------
                                   SCF
               by Justin Turney, Rob Parrish, Andy Simmonett
                          and Daniel G. A. Smith
                              RHF Reference
                       16 Threads,  76293 MiB Core
         ---------------------------------------------------------

  ==> Geometry <==

    Molecular point group: c1
    Full point group: C1

    Geometry (in Angstrom), charge = 1, multiplicity = 1:

       Center              X                  Y                   Z               Mass       
    ------------   -----------------  -----------------  -----------------  -----------------
         C            0.680062820275     1.308604348936    -5.003341447889    12.000000000000
         C           -0.680508179725     1.310632348936    -5.002957447889    12.000000000000
         N           -1.085639179725     1.311630348936    -3.684633447889    14.003074004430
         C            0.000103820275     1.314906348936    -2.903232447889    12.000000000000
         C           -2.477369179725     1.361036348936    -3.216654447889    12.000000000000
         N            1.085217820275     1.311630348936    -3.684633447889    14.003074004430
         H            1.385141820275     1.300776348936    -5.820780447889     1.007825032230
         H           -1.385306179725     1.310442348936    -5.820626447889     1.007825032230
         H           -0.000013179725     1.316653348936    -1.822143447889     1.007825032230
         C            2.478112820275     1.294738348936    -3.219535447889    12.000000000000
         H            2.490587820275     1.322083348936    -2.129282447889     1.007825032230
         H            2.967023820275     0.381292348936    -3.566711447889     1.007825032230
         H            3.001423820275     2.170221348936    -3.611007447889     1.007825032230
         H           -2.857363179725     2.383107348936    -3.296613447889     1.007825032230
         H           -3.082683179725     0.690952348936    -3.829718447889     1.007825032230
         H           -2.518132179725     1.034052348936    -2.176706447889     1.007825032230
         C           -3.668445443746     7.695098519018     0.314487593446    12.000000000000
         C           -4.847602899072     7.022588180276     0.312121018514    12.000000000000
         C           -4.894963478901     5.587676752467     0.311548107415    12.000000000000
         C           -3.653744858499     4.872076689895     0.319208549145    12.000000000000
         C           -2.409429301220     7.005327385610     0.314681935706    12.000000000000
         C           -2.425481523830     5.572468299839     0.307677046836    12.000000000000
         C           -1.194748196161     7.677490543245     0.316154116248    12.000000000000
         C            0.037954849212     6.990767994693     0.313983411943    12.000000000000
         C            0.030328407694     5.560835908640     0.308500027028    12.000000000000
         C           -1.200988687630     4.860616696851     0.317469760961    12.000000000000
         C            1.277953646089     7.664205792130     0.315359260504    12.000000000000
         C            2.485353904999     6.979043234173     0.313084772599    12.000000000000
         C            2.486124505192     5.546117159176     0.306147023611    12.000000000000
         C            1.254078739919     4.847424462600     0.317774965200    12.000000000000
         C            3.751710411681     7.655258499916     0.313211623980    12.000000000000
         C            4.923561876460     6.970127125926     0.311155143272    12.000000000000
         C            4.955603091600     5.534793812305     0.310994730465    12.000000000000
         C            3.706797354479     4.832556557269     0.316086290634    12.000000000000
         H           -3.658525317484     8.782173768071     0.316172581696     1.007825032230
         H           -1.189217509482     8.765467436296     0.320125992689     1.007825032230
         H            1.284290059161     8.752179784424     0.319518084645     1.007825032230
         H            3.753537907074     8.742381627908     0.314734148295     1.007825032230
         H            5.869954523482     7.505141183591     0.310229776229     1.007825032230
         H           -5.788235887228     7.567648561870     0.310561171158     1.007825032230
         C           -6.091978138422     4.884606362579     0.309675866925    12.000000000000
         C           -6.128665660043     3.473926517734     0.310877043953    12.000000000000
         C           -3.664583919771     3.455528528680     0.307951949336    12.000000000000
         C           -4.894302384424     2.752427124836     0.317120934321    12.000000000000
         C           -2.437339174623     2.738958006020     0.319783727872    12.000000000000
         C           -1.209232037322     3.439233283914     0.306104701080    12.000000000000
         C            1.247137392437     3.426027100365     0.305296094675    12.000000000000
         C            0.015171859844     2.724458188241     0.316980277900    12.000000000000
         C            2.467640992715     2.712636326191     0.317080336023    12.000000000000
         C            3.702545294854     3.416006503360     0.303592375181    12.000000000000
         C            6.144976206658     4.818918715067     0.309761285253    12.000000000000
         C            6.166584179136     3.407930824878     0.311927838690    12.000000000000
         C            4.924605778734     2.699754274290     0.318466584927    12.000000000000
         H            7.089901329916     5.358234115159     0.305999404403     1.007825032230
         H           -7.031045930827     5.434034301793     0.305442651973     1.007825032230
         C           -7.339702220848     2.749757883515     0.309249876512    12.000000000000
         C           -7.364886137784     1.361669720519     0.311015414639    12.000000000000
         C           -4.903508788672     1.335773161096     0.306299150447    12.000000000000
         C           -6.132261332336     0.631285705989     0.318589194430    12.000000000000
         C           -3.676878980242     0.618043491609     0.316926866847    12.000000000000
         C           -2.445660765791     1.320987482198     0.306617156646    12.000000000000
         C           -1.223604861027     0.606670850570     0.318046421177    12.000000000000
         C            0.007633689588     1.308729498173     0.316512074895    12.000000000000
         C            1.231215628021     0.593463039523     0.297685489239    12.000000000000
         C            2.460816920806     1.294638385061     0.317189998129    12.000000000000
         C            3.684426074471     0.578544777148     0.316361211852    12.000000000000
         C            4.918704721813     1.283080910125     0.303959390217    12.000000000000
         C            7.369797898236     2.670828552120     0.310167418897    12.000000000000
         C            7.380158486396     1.282563856791     0.311714101743    12.000000000000
         C            6.139795359397     0.565464972136     0.318042443554    12.000000000000
         H           -8.279194979072     3.298464390060     0.304952324390     1.007825032230
         H            8.315109291754     3.209464445559     0.305956843098     1.007825032230
         C           -8.591760117307     0.616178901980     0.311355842257    12.000000000000
         C           -8.599028783429    -0.741293457293     0.313478966840    12.000000000000
         C           -6.139817318844    -0.782790288218     0.306489625505    12.000000000000
         C           -7.380188291863    -1.499919840646     0.313905687046    12.000000000000
         C           -4.918688659982    -1.500408669094     0.318830123654    12.000000000000
         C           -3.684442475410    -0.795890966800     0.307797883590    12.000000000000
         C           -2.460821219973    -1.511998829889     0.318340969779    12.000000000000
         C           -1.231166192046    -0.810827515945     0.306220590987    12.000000000000
         C           -0.007573805113    -1.526072500475     0.313677115291    12.000000000000
         C            1.223643536163    -0.823929028328     0.323682737239    12.000000000000
         C            2.445666469606    -1.538296940071     0.311932724480    12.000000000000
         C            3.676862523121    -0.835361082620     0.307792140085    12.000000000000
         C            6.132244666694    -0.848632490914     0.306264165872    12.000000000000
         C            4.903514965779    -1.553111171605     0.320105240412    12.000000000000
         C            8.599010668965     0.523950215603     0.311576217887    12.000000000000
         C            8.591741308375    -0.833504518258     0.313312598148    12.000000000000
         C            7.364858584664    -1.578986316670     0.313082421455    12.000000000000
         H           -9.528310151544     1.168193798128     0.309885915293     1.007825032230
         H            9.541406794881     1.065918837380     0.310524185625     1.007825032230
         C           -7.369842089494    -2.888198796998     0.315713895468    12.000000000000
         C           -4.924603288776    -2.917090908405     0.307982263031    12.000000000000
         C           -6.166626675393    -3.625305843890     0.314284103191    12.000000000000
         C           -3.702514539430    -3.633335200185     0.318306332217    12.000000000000
         C           -2.467651164839    -2.929979613868     0.306261693861    12.000000000000
         C           -0.015137653833    -2.941795296464     0.306543282370    12.000000000000
         C           -1.247126020952    -3.643385826627     0.318107235778    12.000000000000
         C            1.209240889918    -3.656568329708     0.320646265569    12.000000000000
         C            2.437331842429    -2.956295389240     0.306506507258    12.000000000000
         C            4.894298164045    -2.969776619350     0.307327247330    12.000000000000
         C            3.664611075316    -3.672873496596     0.320206667270    12.000000000000
         C            6.128634835020    -3.691237708782     0.313552509228    12.000000000000
         C            7.339668484970    -2.967066958435     0.315067735309    12.000000000000
         H           -9.541453290984    -1.283217117729     0.314848383013     1.007825032230
         H            9.528257688346    -1.385572724969     0.314562405909     1.007825032230
         H           -8.315169223574    -3.426803504277     0.319886123998     1.007825032230
         H            8.279150962767    -3.515794440958     0.319407291292     1.007825032230
         C           -6.144998368428    -5.036300923848     0.315610101251    12.000000000000
         C           -3.706787527723    -5.049915365182     0.305789133163    12.000000000000
         C           -4.955594237727    -5.752147624559     0.313756267808    12.000000000000
         C           -2.486125505952    -5.763439225474     0.318728804207    12.000000000000
         C           -1.254062515205    -5.064775701066     0.307553198221    12.000000000000
         C            1.201008394143    -5.077934039257     0.308734322479    12.000000000000
         C           -0.030340854139    -5.778173954203     0.316577522143    12.000000000000
         C            3.653745921603    -5.089397426479     0.309492322227    12.000000000000
         C            2.425488516150    -5.789828286592     0.318869252779    12.000000000000
         C            6.091961438086    -5.101911614451     0.315846735901    12.000000000000
         C            4.894972264885    -5.805002072022     0.314610540071    12.000000000000
         H           -7.089896567766    -5.575653493303     0.320012862932     1.007825032230
         H            7.031051029475    -5.651312187397     0.319426515665     1.007825032230
         C           -4.923549501924    -7.187474750742     0.313201498903    12.000000000000
         C           -2.485346267963    -7.196381728994     0.310691606467    12.000000000000
         C           -3.751690071504    -7.872600808701     0.310886285392    12.000000000000
         C           -0.037953136713    -7.208118525534     0.310907331614    12.000000000000
         C           -1.277960280127    -7.881558035731     0.308922638853    12.000000000000
         C            2.409440141001    -7.222675663067     0.311770532425    12.000000000000
         C            1.194745757428    -7.894839016627     0.309618241544    12.000000000000
         C            4.847616872773    -7.239915761644     0.314277347085    12.000000000000
         C            3.668467426150    -7.912441644008     0.311928912721    12.000000000000
         H           -5.869944530142    -7.722484249106     0.314745535768     1.007825032230
         H            5.788245445663    -7.784985840379     0.315404466567     1.007825032230
         H           -3.753531119175    -8.959725220301     0.309050370963     1.007825032230
         H           -1.284308585620    -8.969529043562     0.304495254994     1.007825032230
         H            1.189217394970    -8.982814271654     0.305525604853     1.007825032230
         H            3.658542435098    -8.999514285118     0.310274371299     1.007825032230

  Running in c1 symmetry.

  Rotational constants: A =      0.00066  B =      0.00066  C =      0.00035 [cm^-1]
  Rotational constants: A =     19.69211  B =     19.65972  C =     10.47676 [MHz]
  Nuclear repulsion = 18282.296881091722753

  Charge       = 1
  Multiplicity = 1
  Electrons    = 652
  Nalpha       = 326
  Nbeta        = 326

  ==> Algorithm <==

  SCF Algorithm Type is DF.
  DIIS enabled.
  MOM disabled.
  Fractional occupation disabled.
  Guess Type is SAD.
  Energy threshold   = 1.00e-08
  Density threshold  = 1.00e-08
  Integral threshold = 1.00e-12

  ==> Primary Basis <==

  Basis Set: JUN-CC-PVDZ
    Blend: JUN-CC-PVDZ
    Number of shells: 923
    Number of basis functions: 2019
    Number of Cartesian functions: 2122
    Spherical Harmonics?: true
    Max angular momentum: 2

   => Loading Basis Set <=

    Name: (JUN-CC-PVDZ AUX)
    Role: JKFIT
    Keyword: DF_BASIS_SCF
    atoms 1-2, 4-5, 10, 17-34, 41-53, 56-70, 73-89, 92-104, 109-119, 122-130 entry C          line   146 file /opt/software/pc2/EB-SW/software/PSI4/1.9-foss-2022a/share/psi4/basis/jun-cc-pvdz-jkfit.gbs 
    atoms 3, 6                                                               entry N          line   202 file /opt/software/pc2/EB-SW/software/PSI4/1.9-foss-2022a/share/psi4/basis/jun-cc-pvdz-jkfit.gbs 
    atoms 7-9, 11-16, 35-40, 54-55, 71-72, 90-91, 105-108, 120-121, 131-136  entry H          line    70 file /opt/software/pc2/EB-SW/software/PSI4/1.9-foss-2022a/share/psi4/basis/jun-cc-pvdz-jkfit.gbs 

  ==> Integral Setup <==

  ==> DiskDFJK: Density-Fitted J/K Matrices <==

    J tasked:                  Yes
    K tasked:                  Yes
    wK tasked:                  No
    OpenMP threads:             16
    Integrals threads:          16
    Memory [MiB]:            57220
    Algorithm:                Disk
    Integral Cache:           SAVE
    Schwarz Cutoff:          1E-12
    Fitting Condition:       1E-10

   => Auxiliary Basis Set <=

  Basis Set: (JUN-CC-PVDZ AUX)
    Blend: JUN-CC-PVDZ-JKFIT
    Number of shells: 3078
    Number of basis functions: 8896
    Number of Cartesian functions: 10198
    Spherical Harmonics?: true
    Max angular momentum: 3

  Minimum eigenvalue in the overlap matrix is 6.8471711022E-11.
  Reciprocal condition number of the overlap matrix is 2.7427885835E-12.
    Using canonical orthogonalization.
  Overall, 39 of 2019 possible MOs eliminated.


  ==> Pre-Iterations <==

  SCF Guess: Superposition of Atomic Densities via on-the-fly atomic UHF (no occupation information).

   -------------------------
    Irrep   Nso     Nmo    
   -------------------------
     A       2019    1980 
   -------------------------
    Total    2019    1980
   -------------------------

  ==> Iterations <==

                           Total Energy        Delta E     RMS |[F,P]|

   @DF-RHF iter SAD: -3967.61580980907456   -3.96762e+03   0.00000e+00 
   @DF-RHF iter   1: -3952.11676390555658    1.54990e+01   7.15345e-04 ADIIS/DIIS
   @DF-RHF iter   2: -3953.49686679473143   -1.38010e+00   2.39865e-04 ADIIS/DIIS
   @DF-RHF iter   3: -3953.61754727199559   -1.20680e-01   1.17406e-04 ADIIS/DIIS
   @DF-RHF iter   4: -3953.64602354080034   -2.84763e-02   5.15873e-05 DIIS
   @DF-RHF iter   5: -3953.65283124581765   -6.80771e-03   1.24100e-05 DIIS
   @DF-RHF iter   6: -3953.65339590299754   -5.64657e-04   4.76182e-06 DIIS
   @DF-RHF iter   7: -3953.65359839384109   -2.02491e-04   2.28507e-06 DIIS
   @DF-RHF iter   8: -3953.65366487412120   -6.64803e-05   1.13221e-06 DIIS
   @DF-RHF iter   9: -3953.65368371864361   -1.88445e-05   3.82377e-07 DIIS
   @DF-RHF iter  10: -3953.65368503289892   -1.31426e-06   1.59135e-07 DIIS
   @DF-RHF iter  11: -3953.65368520638094   -1.73482e-07   6.73811e-08 DIIS
   @DF-RHF iter  12: -3953.65368524270434   -3.63234e-08   3.62791e-08 DIIS
   @DF-RHF iter  13: -3953.65368525253871   -9.83437e-09   1.19493e-08 DIIS
   @DF-RHF iter  14: -3953.65368525290569   -3.66981e-10   5.25744e-09 DIIS
  Energy and wave function converged.


  ==> Post-Iterations <==

    Orbital Energies [Eh]
    ---------------------

    Doubly Occupied:                                                      

       1A    -15.786760     2A    -15.786397     3A    -11.475806  
       4A    -11.417846     5A    -11.416291     6A    -11.401725  
       7A    -11.401224     8A    -11.344983     9A    -11.344124  
      10A    -11.343833    11A    -11.343161    12A    -11.341696  
      13A    -11.341594    14A    -11.340811    15A    -11.340663  
      16A    -11.340249    17A    -11.340034    18A    -11.339856  
      19A    -11.339696    20A    -11.337729    21A    -11.337235  
      22A    -11.337080    23A    -11.336673    24A    -11.336526  
      25A    -11.335718    26A    -11.335547    27A    -11.334530  
      28A    -11.334381    29A    -11.334166    30A    -11.334132  
      31A    -11.334112    32A    -11.332714    33A    -11.332693  
      34A    -11.332116    35A    -11.332006    36A    -11.331212  
      37A    -11.331155    38A    -11.331049    39A    -11.331044  
      40A    -11.330917    41A    -11.330445    42A    -11.330431  
      43A    -11.330137    44A    -11.330119    45A    -11.329868  
      46A    -11.329808    47A    -11.329782    48A    -11.329042  
      49A    -11.328976    50A    -11.328607    51A    -11.328512  
      52A    -11.328177    53A    -11.328153    54A    -11.327874  
      55A    -11.327792    56A    -11.327591    57A    -11.327552  
      58A    -11.327269    59A    -11.327200    60A    -11.326557  
      61A    -11.326478    62A    -11.326406    63A    -11.326232  
      64A    -11.325923    65A    -11.325875    66A    -11.324970  
      67A    -11.324921    68A    -11.324582    69A    -11.324553  
      70A    -11.324542    71A    -11.324480    72A    -11.323873  
      73A    -11.323546    74A    -11.323521    75A    -11.322860  
      76A    -11.322707    77A    -11.322676    78A    -11.321739  
      79A    -11.321733    80A    -11.321055    81A    -11.320979  
      82A    -11.320826    83A    -11.320751    84A    -11.319032  
      85A    -11.318934    86A    -11.318077    87A    -11.318020  
      88A    -11.317781    89A    -11.317714    90A    -11.316295  
      91A    -11.316228    92A    -11.315628    93A    -11.315605  
      94A    -11.315518    95A    -11.315449    96A    -11.315155  
      97A    -11.315070    98A    -11.313842    99A    -11.313775  
     100A    -11.312187   101A    -11.312170   102A    -11.310663  
     103A    -11.310649   104A     -1.531338   105A     -1.386873  
     106A     -1.329903   107A     -1.310550   108A     -1.309510  
     109A     -1.289187   110A     -1.289167   111A     -1.287467  
     112A     -1.267911   113A     -1.263393   114A     -1.259497  
     115A     -1.259028   116A     -1.240201   117A     -1.240144  
     118A     -1.225750   119A     -1.225737   120A     -1.223740  
     121A     -1.210595   122A     -1.210555   123A     -1.196806  
     124A     -1.193758   125A     -1.184603   126A     -1.183080  
     127A     -1.182752   128A     -1.178905   129A     -1.176953  
     130A     -1.156518   131A     -1.156446   132A     -1.142875  
     133A     -1.142468   134A     -1.142318   135A     -1.136793  
     136A     -1.136558   137A     -1.134878   138A     -1.114003  
     139A     -1.113942   140A     -1.107952   141A     -1.104171  
     142A     -1.104156   143A     -1.095696   144A     -1.093351  
     145A     -1.093283   146A     -1.074950   147A     -1.073493  
     148A     -1.073202   149A     -1.070474   150A     -1.069365  
     151A     -1.069114   152A     -1.055931   153A     -1.039026  
     154A     -1.038998   155A     -1.021997   156A     -1.021873  
     157A     -0.977607   158A     -0.977227   159A     -0.976774  
     160A     -0.976438   161A     -0.970315   162A     -0.970261  
     163A     -0.963119   164A     -0.962992   165A     -0.960306  
     166A     -0.959730   167A     -0.957226   168A     -0.951169  
     169A     -0.937745   170A     -0.932509   171A     -0.918983  
     172A     -0.917607   173A     -0.916981   174A     -0.914119  
     175A     -0.911008   176A     -0.901441   177A     -0.901308  
     178A     -0.892885   179A     -0.892852   180A     -0.871769  
     181A     -0.854589   182A     -0.854348   183A     -0.852156  
     184A     -0.849983   185A     -0.849146   186A     -0.848218  
     187A     -0.847908   188A     -0.834811   189A     -0.831154  
     190A     -0.819059   191A     -0.804362   192A     -0.799190  
     193A     -0.794674   194A     -0.794249   195A     -0.792886  
     196A     -0.791976   197A     -0.791708   198A     -0.787721  
     199A     -0.782644   200A     -0.782415   201A     -0.773344  
     202A     -0.769349   203A     -0.765707   204A     -0.765539  
     205A     -0.755386   206A     -0.752024   207A     -0.751946  
     208A     -0.748771   209A     -0.748761   210A     -0.746459  
     211A     -0.745293   212A     -0.740915   213A     -0.739433  
     214A     -0.719740   215A     -0.719157   216A     -0.718959  
     217A     -0.717465   218A     -0.717107   219A     -0.714936  
     220A     -0.709884   221A     -0.709680   222A     -0.706403  
     223A     -0.705111   224A     -0.703777   225A     -0.703708  
     226A     -0.703449   227A     -0.696079   228A     -0.687500  
     229A     -0.680460   230A     -0.680331   231A     -0.676652  
     232A     -0.675303   233A     -0.675261   234A     -0.672166  
     235A     -0.668846   236A     -0.668143   237A     -0.667744  
     238A     -0.667090   239A     -0.665967   240A     -0.665418  
     241A     -0.662016   242A     -0.661511   243A     -0.661386  
     244A     -0.660876   245A     -0.657292   246A     -0.657280  
     247A     -0.657231   248A     -0.644052   249A     -0.643805  
     250A     -0.641546   251A     -0.641535   252A     -0.640135  
     253A     -0.639315   254A     -0.637492   255A     -0.637096  
     256A     -0.632803   257A     -0.632484   258A     -0.626049  
     259A     -0.626043   260A     -0.624409   261A     -0.622602  
     262A     -0.620930   263A     -0.617022   264A     -0.611592  
     265A     -0.610756   266A     -0.605364   267A     -0.605202  
     268A     -0.600291   269A     -0.599903   270A     -0.596926  
     271A     -0.593625   272A     -0.593592   273A     -0.584534  
     274A     -0.584418   275A     -0.581147   276A     -0.581098  
     277A     -0.574921   278A     -0.574666   279A     -0.564397  
     280A     -0.563921   281A     -0.563674   282A     -0.563191  
     283A     -0.563131   284A     -0.560966   285A     -0.551332  
     286A     -0.546668   287A     -0.542553   288A     -0.542514  
     289A     -0.540058   290A     -0.537660   291A     -0.533777  
     292A     -0.533494   293A     -0.526909   294A     -0.516503  
     295A     -0.516253   296A     -0.512115   297A     -0.511546  
     298A     -0.510551   299A     -0.499153   300A     -0.498967  
     301A     -0.480725   302A     -0.475262   303A     -0.475157  
     304A     -0.455897   305A     -0.455812   306A     -0.454114  
     307A     -0.450318   308A     -0.450229   309A     -0.421508  
     310A     -0.421401   311A     -0.418265   312A     -0.411568  
     313A     -0.410354   314A     -0.409977   315A     -0.397095  
     316A     -0.396997   317A     -0.376407   318A     -0.372319  
     319A     -0.372108   320A     -0.367152   321A     -0.352194  
     322A     -0.323134   323A     -0.323064   324A     -0.319426  
     325A     -0.271282   326A     -0.270913  

    Virtual:                                                              

     327A     -0.079040   328A     -0.078606   329A     -0.035796  
     330A     -0.035140   331A     -0.033097   332A     -0.024673  
     333A     -0.023638   334A     -0.022979   335A     -0.012027  
     336A     -0.005634   337A     -0.005345   338A     -0.004855  
     339A     -0.003970   340A     -0.003007   341A     -0.001234  
     342A     -0.000273   343A      0.000151   344A      0.001168  
     345A      0.003638   346A      0.004597   347A      0.004734  
     348A      0.007498   349A      0.008195   350A      0.010021  
     351A      0.010939   352A      0.013270   353A      0.013783  
     354A      0.014003   355A      0.014843   356A      0.017993  
     357A      0.019377   358A      0.024443   359A      0.024965  
     360A      0.025011   361A      0.026731   362A      0.028067  
     363A      0.032614   364A      0.033781   365A      0.034584  
     366A      0.035137   367A      0.035519   368A      0.037887  
     369A      0.039798   370A      0.039828   371A      0.042412  
     372A      0.042814   373A      0.043181   374A      0.044217  
     375A      0.048584   376A      0.049920   377A      0.050647  
     378A      0.051116   379A      0.051876   380A      0.052324  
     381A      0.052464   382A      0.053879   383A      0.054064  
     384A      0.055318   385A      0.057443   386A      0.058846  
     387A      0.059211   388A      0.062749   389A      0.063337  
     390A      0.067230   391A      0.067326   392A      0.069781  
     393A      0.070510   394A      0.073436   395A      0.074372  
     396A      0.075202   397A      0.075457   398A      0.078074  
     399A      0.078435   400A      0.078860   401A      0.080221  
     402A      0.080381   403A      0.081868   404A      0.084314  
     405A      0.085464   406A      0.085898   407A      0.087794  
     408A      0.088870   409A      0.090359   410A      0.090592  
     411A      0.095252   412A      0.097007   413A      0.099318  
     414A      0.101768   415A      0.102714   416A      0.105114  
     417A      0.105591   418A      0.105708   419A      0.107046  
     420A      0.107469   421A      0.108023   422A      0.108940  
     423A      0.111894   424A      0.112055   425A      0.112973  
     426A      0.114400   427A      0.114863   428A      0.115998  
     429A      0.117067   430A      0.118974   431A      0.124381  
     432A      0.124775   433A      0.126234   434A      0.126503  
     435A      0.127922   436A      0.129572   437A      0.132011  
     438A      0.133763   439A      0.134545   440A      0.134739  
     441A      0.134888   442A      0.135423   443A      0.136863  
     444A      0.138357   445A      0.138890   446A      0.140113  
     447A      0.141893   448A      0.143558   449A      0.143921  
     450A      0.145349   451A      0.145931   452A      0.146755  
     453A      0.147344   454A      0.147898   455A      0.149175  
     456A      0.150376   457A      0.151526   458A      0.151871  
     459A      0.152426   460A      0.152591   461A      0.153619  
     462A      0.154349   463A      0.154840   464A      0.157741  
     465A      0.158500   466A      0.158857   467A      0.160206  
     468A      0.161026   469A      0.163799   470A      0.164656  
     471A      0.164901   472A      0.165473   473A      0.166810  
     474A      0.167070   475A      0.168518   476A      0.169479  
     477A      0.169780   478A      0.170076   479A      0.172020  
     480A      0.173450   481A      0.173859   482A      0.174196  
     483A      0.175481   484A      0.176435   485A      0.178890  
     486A      0.179158   487A      0.180902   488A      0.182071  
     489A      0.182821   490A      0.184250   491A      0.186712  
     492A      0.187534   493A      0.189695   494A      0.190847  
     495A      0.191243   496A      0.192670   497A      0.193946  
     498A      0.194749   499A      0.194967   500A      0.196136  
     501A      0.196371   502A      0.199495   503A      0.200417  
     504A      0.201270   505A      0.202426   506A      0.203901  
     507A      0.204869   508A      0.205485   509A      0.205986  
     510A      0.207271   511A      0.208051   512A      0.208237  
     513A      0.208780   514A      0.211345   515A      0.211683  
     516A      0.212423   517A      0.213682   518A      0.214941  
     519A      0.216094   520A      0.218122   521A      0.219197  
     522A      0.219990   523A      0.221434   524A      0.222188  
     525A      0.223447   526A      0.223728   527A      0.224733  
     528A      0.225537   529A      0.226205   530A      0.227700  
     531A      0.228038   532A      0.228651   533A      0.229353  
     534A      0.229844   535A      0.231714   536A      0.235244  
     537A      0.235436   538A      0.236424   539A      0.237363  
     540A      0.237784   541A      0.238777   542A      0.239104  
     543A      0.242801   544A      0.243531   545A      0.244108  
     546A      0.244629   547A      0.245914   548A      0.246869  
     549A      0.247970   550A      0.249813   551A      0.251040  
     552A      0.252404   553A      0.253301   554A      0.254477  
     555A      0.254759   556A      0.255363   557A      0.256641  
     558A      0.258222   559A      0.258846   560A      0.259884  
     561A      0.260141   562A      0.260813   563A      0.261503  
     564A      0.261787   565A      0.263120   566A      0.263727  
     567A      0.265601   568A      0.266896   569A      0.267957  
     570A      0.269284   571A      0.269694   572A      0.270828  
     573A      0.271281   574A      0.271743   575A      0.273432  
     576A      0.273607   577A      0.274158   578A      0.274307  
     579A      0.275013   580A      0.275448   581A      0.278662  
     582A      0.279724   583A      0.280254   584A      0.280944  
     585A      0.281617   586A      0.282102   587A      0.283128  
     588A      0.284179   589A      0.286103   590A      0.286990  
     591A      0.287210   592A      0.288145   593A      0.288513  
     594A      0.288742   595A      0.290710   596A      0.292194  
     597A      0.292985   598A      0.295506   599A      0.296142  
     600A      0.297957   601A      0.299171   602A      0.300122  
     603A      0.300297   604A      0.301071   605A      0.302201  
     606A      0.304040   607A      0.304370   608A      0.306416  
     609A      0.306619   610A      0.307868   611A      0.308280  
     612A      0.309064   613A      0.309564   614A      0.310675  
     615A      0.312809   616A      0.314112   617A      0.315126  
     618A      0.316498   619A      0.316925   620A      0.317333  
     621A      0.317834   622A      0.318161   623A      0.319013  
     624A      0.319894   625A      0.321073   626A      0.321773  
     627A      0.322554   628A      0.323299   629A      0.324255  
     630A      0.325168   631A      0.326192   632A      0.328078  
     633A      0.329070   634A      0.329568   635A      0.329660  
     636A      0.330926   637A      0.331841   638A      0.332798  
     639A      0.333763   640A      0.334511   641A      0.334931  
     642A      0.336567   643A      0.337057   644A      0.338671  
     645A      0.339692   646A      0.340652   647A      0.341178  
     648A      0.341379   649A      0.341976   650A      0.342891  
     651A      0.343072   652A      0.343402   653A      0.343930  
     654A      0.344253   655A      0.345896   656A      0.347371  
     657A      0.348828   658A      0.349874   659A      0.350929  
     660A      0.351319   661A      0.352052   662A      0.352772  
     663A      0.353499   664A      0.354309   665A      0.355037  
     666A      0.357032   667A      0.357617   668A      0.358404  
     669A      0.358885   670A      0.359187   671A      0.360680  
     672A      0.363191   673A      0.363685   674A      0.365407  
     675A      0.365602   676A      0.366421   677A      0.367021  
     678A      0.367416   679A      0.368438   680A      0.368917  
     681A      0.369542   682A      0.371447   683A      0.371935  
     684A      0.374005   685A      0.374512   686A      0.375649  
     687A      0.375966   688A      0.377921   689A      0.379597  
     690A      0.380852   691A      0.381390   692A      0.382681  
     693A      0.385097   694A      0.385986   695A      0.388490  
     696A      0.389181   697A      0.390088   698A      0.390441  
     699A      0.391287   700A      0.392190   701A      0.392632  
     702A      0.393378   703A      0.393448   704A      0.394313  
     705A      0.394795   706A      0.396254   707A      0.396754  
     708A      0.398854   709A      0.401514   710A      0.402116  
     711A      0.402781   712A      0.403394   713A      0.404129  
     714A      0.404366   715A      0.404927   716A      0.406473  
     717A      0.407692   718A      0.408262   719A      0.409264  
     720A      0.410481   721A      0.411839   722A      0.412098  
     723A      0.412991   724A      0.413723   725A      0.414051  
     726A      0.416330   727A      0.417936   728A      0.419330  
     729A      0.420335   730A      0.421095   731A      0.424106  
     732A      0.425395   733A      0.426131   734A      0.426861  
     735A      0.427890   736A      0.428653   737A      0.430419  
     738A      0.431862   739A      0.432336   740A      0.434579  
     741A      0.435051   742A      0.435935   743A      0.437443  
     744A      0.438253   745A      0.438632   746A      0.440212  
     747A      0.442771   748A      0.444250   749A      0.444513  
     750A      0.445094   751A      0.446455   752A      0.447257  
     753A      0.449784   754A      0.449932   755A      0.451630  
     756A      0.452311   757A      0.453436   758A      0.455736  
     759A      0.456454   760A      0.456615   761A      0.457292  
     762A      0.459226   763A      0.459402   764A      0.459972  
     765A      0.462942   766A      0.463700   767A      0.466070  
     768A      0.466617   769A      0.467050   770A      0.468066  
     771A      0.470819   772A      0.472838   773A      0.474954  
     774A      0.475451   775A      0.477298   776A      0.477829  
     777A      0.480696   778A      0.481646   779A      0.483121  
     780A      0.486426   781A      0.487522   782A      0.493940  
     783A      0.496025   784A      0.496850   785A      0.498577  
     786A      0.499346   787A      0.500173   788A      0.502054  
     789A      0.502856   790A      0.503621   791A      0.504206  
     792A      0.505168   793A      0.506826   794A      0.507065  
     795A      0.508745   796A      0.510806   797A      0.511199  
     798A      0.512067   799A      0.513102   800A      0.515125  
     801A      0.516258   802A      0.518361   803A      0.519567  
     804A      0.520667   805A      0.522459   806A      0.524609  
     807A      0.526330   808A      0.528308   809A      0.528954  
     810A      0.530468   811A      0.531606   812A      0.531984  
     813A      0.534546   814A      0.535863   815A      0.537154  
     816A      0.539773   817A      0.540198   818A      0.540755  
     819A      0.541436   820A      0.542526   821A      0.550334  
     822A      0.554502   823A      0.555770   824A      0.556598  
     825A      0.557049   826A      0.558008   827A      0.558131  
     828A      0.563732   829A      0.565186   830A      0.566398  
     831A      0.568505   832A      0.569498   833A      0.574331  
     834A      0.574831   835A      0.578552   836A      0.583256  
     837A      0.585041   838A      0.588062   839A      0.589272  
     840A      0.590239   841A      0.591130   842A      0.592805  
     843A      0.594015   844A      0.594957   845A      0.598173  
     846A      0.601169   847A      0.604116   848A      0.605961  
     849A      0.613179   850A      0.614104   851A      0.615757  
     852A      0.620713   853A      0.622070   854A      0.622908  
     855A      0.624502   856A      0.625229   857A      0.626683  
     858A      0.629446   859A      0.632694   860A      0.633598  
     861A      0.633994   862A      0.636742   863A      0.638874  
     864A      0.640816   865A      0.644240   866A      0.649835  
     867A      0.659980   868A      0.660579   869A      0.662965  
     870A      0.670079   871A      0.673212   872A      0.674940  
     873A      0.675245   874A      0.676007   875A      0.676326  
     876A      0.678828   877A      0.679496   878A      0.683896  
     879A      0.685174   880A      0.688110   881A      0.706285  
     882A      0.717345   883A      0.719208   884A      0.720294  
     885A      0.723159   886A      0.723630   887A      0.724641  
     888A      0.727956   889A      0.729897   890A      0.732182  
     891A      0.738252   892A      0.739367   893A      0.742302  
     894A      0.743655   895A      0.746589   896A      0.748336  
     897A      0.750188   898A      0.753060   899A      0.755149  
     900A      0.757535   901A      0.757980   902A      0.759817  
     903A      0.760640   904A      0.762225   905A      0.763207  
     906A      0.764085   907A      0.767014   908A      0.769867  
     909A      0.770697   910A      0.771418   911A      0.772912  
     912A      0.775937   913A      0.780196   914A      0.782350  
     915A      0.782647   916A      0.784567   917A      0.787018  
     918A      0.787480   919A      0.789554   920A      0.789846  
     921A      0.791520   922A      0.793444   923A      0.796524  
     924A      0.797805   925A      0.799590   926A      0.799774  
     927A      0.802409   928A      0.803956   929A      0.806865  
     930A      0.808554   931A      0.810424   932A      0.811870  
     933A      0.812998   934A      0.814151   935A      0.815743  
     936A      0.816267   937A      0.820097   938A      0.822151  
     939A      0.823691   940A      0.824882   941A      0.825189  
     942A      0.826652   943A      0.827343   944A      0.828990  
     945A      0.829986   946A      0.831907   947A      0.834220  
     948A      0.835867   949A      0.836109   950A      0.840522  
     951A      0.842091   952A      0.842691   953A      0.843948  
     954A      0.844594   955A      0.847306   956A      0.848327  
     957A      0.852732   958A      0.854225   959A      0.855003  
     960A      0.856342   961A      0.856701   962A      0.858287  
     963A      0.859561   964A      0.861474   965A      0.864065  
     966A      0.865397   967A      0.866389   968A      0.867947  
     969A      0.869306   970A      0.870826   971A      0.871789  
     972A      0.872177   973A      0.873609   974A      0.875272  
     975A      0.877309   976A      0.877641   977A      0.879463  
     978A      0.882008   979A      0.883150   980A      0.884756  
     981A      0.886169   982A      0.887455   983A      0.888168  
     984A      0.890132   985A      0.890643   986A      0.892330  
     987A      0.892966   988A      0.893538   989A      0.895748  
     990A      0.896476   991A      0.897133   992A      0.900260  
     993A      0.900953   994A      0.902452   995A      0.903070  
     996A      0.905720   997A      0.907032   998A      0.908051  
     999A      0.912658  1000A      0.916725  1001A      0.917593  
    1002A      0.921603  1003A      0.924801  1004A      0.926743  
    1005A      0.926862  1006A      0.928247  1007A      0.929215  
    1008A      0.930242  1009A      0.932336  1010A      0.936128  
    1011A      0.936381  1012A      0.937983  1013A      0.938105  
    1014A      0.939582  1015A      0.940338  1016A      0.940664  
    1017A      0.943143  1018A      0.947852  1019A      0.949055  
    1020A      0.950870  1021A      0.952329  1022A      0.953949  
    1023A      0.955345  1024A      0.957270  1025A      0.958954  
    1026A      0.959958  1027A      0.961349  1028A      0.962098  
    1029A      0.965074  1030A      0.966416  1031A      0.967734  
    1032A      0.969471  1033A      0.970504  1034A      0.972531  
    1035A      0.974676  1036A      0.975687  1037A      0.977460  
    1038A      0.979251  1039A      0.980606  1040A      0.981611  
    1041A      0.982716  1042A      0.984046  1043A      0.984580  
    1044A      0.985052  1045A      0.985756  1046A      0.987589  
    1047A      0.989364  1048A      0.991075  1049A      0.992433  
    1050A      0.994532  1051A      0.994750  1052A      0.996776  
    1053A      0.997413  1054A      0.998303  1055A      0.999253  
    1056A      1.000007  1057A      1.001042  1058A      1.002074  
    1059A      1.002930  1060A      1.004148  1061A      1.005628  
    1062A      1.006457  1063A      1.007480  1064A      1.007815  
    1065A      1.007949  1066A      1.008446  1067A      1.010389  
    1068A      1.010936  1069A      1.012544  1070A      1.013334  
    1071A      1.013631  1072A      1.014160  1073A      1.014858  
    1074A      1.015950  1075A      1.016594  1076A      1.018272  
    1077A      1.018952  1078A      1.020125  1079A      1.021397  
    1080A      1.021723  1081A      1.022858  1082A      1.023898  
    1083A      1.024159  1084A      1.024906  1085A      1.026220  
    1086A      1.026793  1087A      1.027255  1088A      1.028690  
    1089A      1.030144  1090A      1.030748  1091A      1.032753  
    1092A      1.033303  1093A      1.034234  1094A      1.036232  
    1095A      1.038537  1096A      1.040476  1097A      1.042630  
    1098A      1.044190  1099A      1.045030  1100A      1.046450  
    1101A      1.048333  1102A      1.050619  1103A      1.051348  
    1104A      1.051947  1105A      1.052677  1106A      1.054527  
    1107A      1.055828  1108A      1.056710  1109A      1.057761  
    1110A      1.059734  1111A      1.060929  1112A      1.063672  
    1113A      1.066423  1114A      1.067316  1115A      1.068111  
    1116A      1.069923  1117A      1.070399  1118A      1.073153  
    1119A      1.075466  1120A      1.077206  1121A      1.077856  
    1122A      1.079447  1123A      1.080096  1124A      1.081337  
    1125A      1.084057  1126A      1.085505  1127A      1.086342  
    1128A      1.087953  1129A      1.089857  1130A      1.090498  
    1131A      1.091299  1132A      1.093656  1133A      1.097699  
    1134A      1.100013  1135A      1.100251  1136A      1.101526  
    1137A      1.102756  1138A      1.105992  1139A      1.106342  
    1140A      1.109010  1141A      1.109596  1142A      1.112913  
    1143A      1.113561  1144A      1.117471  1145A      1.118796  
    1146A      1.120765  1147A      1.122603  1148A      1.123379  
    1149A      1.127458  1150A      1.129693  1151A      1.130026  
    1152A      1.133637  1153A      1.135784  1154A      1.137737  
    1155A      1.138761  1156A      1.141342  1157A      1.144244  
    1158A      1.146472  1159A      1.148107  1160A      1.148961  
    1161A      1.151649  1162A      1.152762  1163A      1.155691  
    1164A      1.157108  1165A      1.158207  1166A      1.159873  
    1167A      1.162354  1168A      1.163122  1169A      1.164108  
    1170A      1.165139  1171A      1.167808  1172A      1.168323  
    1173A      1.178087  1174A      1.179604  1175A      1.181167  
    1176A      1.184101  1177A      1.185603  1178A      1.187905  
    1179A      1.189656  1180A      1.194550  1181A      1.197123  
    1182A      1.197809  1183A      1.198216  1184A      1.200810  
    1185A      1.201348  1186A      1.206343  1187A      1.208338  
    1188A      1.209616  1189A      1.213771  1190A      1.216109  
    1191A      1.220515  1192A      1.223573  1193A      1.223605  
    1194A      1.224297  1195A      1.225273  1196A      1.227648  
    1197A      1.230198  1198A      1.231127  1199A      1.233420  
    1200A      1.233757  1201A      1.237441  1202A      1.238609  
    1203A      1.240486  1204A      1.241928  1205A      1.245369  
    1206A      1.246986  1207A      1.248183  1208A      1.248832  
    1209A      1.249569  1210A      1.251849  1211A      1.254291  
    1212A      1.256305  1213A      1.256685  1214A      1.257703  
    1215A      1.259411  1216A      1.260452  1217A      1.263797  
    1218A      1.265413  1219A      1.268024  1220A      1.268740  
    1221A      1.271118  1222A      1.273429  1223A      1.273765  
    1224A      1.274850  1225A      1.276347  1226A      1.277660  
    1227A      1.280256  1228A      1.286998  1229A      1.287824  
    1230A      1.288125  1231A      1.290184  1232A      1.296511  
    1233A      1.297835  1234A      1.298602  1235A      1.300185  
    1236A      1.300762  1237A      1.302213  1238A      1.304587  
    1239A      1.306108  1240A      1.307954  1241A      1.308951  
    1242A      1.310691  1243A      1.314310  1244A      1.315514  
    1245A      1.320430  1246A      1.324868  1247A      1.327010  
    1248A      1.329652  1249A      1.330762  1250A      1.332926  
    1251A      1.333476  1252A      1.336764  1253A      1.339751  
    1254A      1.341551  1255A      1.343379  1256A      1.345359  
    1257A      1.349054  1258A      1.350353  1259A      1.351749  
    1260A      1.353092  1261A      1.355733  1262A      1.356985  
    1263A      1.359013  1264A      1.359287  1265A      1.363466  
    1266A      1.364669  1267A      1.365806  1268A      1.368098  
    1269A      1.370203  1270A      1.371036  1271A      1.371823  
    1272A      1.373218  1273A      1.375339  1274A      1.377278  
    1275A      1.378117  1276A      1.381790  1277A      1.384733  
    1278A      1.385726  1279A      1.387978  1280A      1.389183  
    1281A      1.391115  1282A      1.393022  1283A      1.394993  
    1284A      1.396549  1285A      1.398238  1286A      1.399872  
    1287A      1.404522  1288A      1.404878  1289A      1.407310  
    1290A      1.407734  1291A      1.408553  1292A      1.411553  
    1293A      1.418282  1294A      1.420015  1295A      1.422794  
    1296A      1.425484  1297A      1.426783  1298A      1.431166  
    1299A      1.434578  1300A      1.436010  1301A      1.439010  
    1302A      1.442169  1303A      1.446689  1304A      1.448069  
    1305A      1.453577  1306A      1.457387  1307A      1.471085  
    1308A      1.474923  1309A      1.476989  1310A      1.477421  
    1311A      1.482826  1312A      1.483811  1313A      1.488087  
    1314A      1.492799  1315A      1.511486  1316A      1.513953  
    1317A      1.516767  1318A      1.522693  1319A      1.524168  
    1320A      1.526419  1321A      1.531141  1322A      1.531734  
    1323A      1.536563  1324A      1.538453  1325A      1.541022  
    1326A      1.542525  1327A      1.543468  1328A      1.544117  
    1329A      1.546139  1330A      1.547890  1331A      1.550037  
    1332A      1.550431  1333A      1.551786  1334A      1.553646  
    1335A      1.555194  1336A      1.556155  1337A      1.556675  
    1338A      1.559080  1339A      1.560257  1340A      1.562564  
    1341A      1.563475  1342A      1.563663  1343A      1.567107  
    1344A      1.569117  1345A      1.569680  1346A      1.570920  
    1347A      1.572037  1348A      1.572216  1349A      1.573531  
    1350A      1.574861  1351A      1.576141  1352A      1.578646  
    1353A      1.579978  1354A      1.580480  1355A      1.583849  
    1356A      1.586289  1357A      1.587415  1358A      1.589875  
    1359A      1.591552  1360A      1.593056  1361A      1.593851  
    1362A      1.595475  1363A      1.596725  1364A      1.597873  
    1365A      1.598828  1366A      1.599764  1367A      1.601271  
    1368A      1.601647  1369A      1.602954  1370A      1.605001  
    1371A      1.608559  1372A      1.611397  1373A      1.612146  
    1374A      1.614885  1375A      1.620968  1376A      1.624351  
    1377A      1.626733  1378A      1.628122  1379A      1.629271  
    1380A      1.630173  1381A      1.631360  1382A      1.634836  
    1383A      1.635310  1384A      1.638341  1385A      1.639467  
    1386A      1.643021  1387A      1.645325  1388A      1.646771  
    1389A      1.650585  1390A      1.651475  1391A      1.653004  
    1392A      1.653203  1393A      1.654460  1394A      1.655906  
    1395A      1.658927  1396A      1.661499  1397A      1.664438  
    1398A      1.668317  1399A      1.673990  1400A      1.674638  
    1401A      1.679025  1402A      1.681124  1403A      1.683821  
    1404A      1.684965  1405A      1.690661  1406A      1.694329  
    1407A      1.698356  1408A      1.698826  1409A      1.702001  
    1410A      1.710634  1411A      1.715300  1412A      1.719590  
    1413A      1.722976  1414A      1.728211  1415A      1.731439  
    1416A      1.731672  1417A      1.732025  1418A      1.736092  
    1419A      1.744378  1420A      1.752478  1421A      1.755244  
    1422A      1.758818  1423A      1.760766  1424A      1.761745  
    1425A      1.762318  1426A      1.763142  1427A      1.765919  
    1428A      1.767917  1429A      1.768931  1430A      1.769906  
    1431A      1.772141  1432A      1.774378  1433A      1.777072  
    1434A      1.780420  1435A      1.782000  1436A      1.784003  
    1437A      1.788210  1438A      1.791906  1439A      1.792706  
    1440A      1.793527  1441A      1.794759  1442A      1.795595  
    1443A      1.797651  1444A      1.798652  1445A      1.802735  
    1446A      1.806050  1447A      1.808647  1448A      1.809109  
    1449A      1.811294  1450A      1.812387  1451A      1.812712  
    1452A      1.816192  1453A      1.816593  1454A      1.817619  
    1455A      1.819262  1456A      1.819681  1457A      1.820915  
    1458A      1.821721  1459A      1.822605  1460A      1.824318  
    1461A      1.827552  1462A      1.828922  1463A      1.835390  
    1464A      1.840828  1465A      1.841571  1466A      1.843184  
    1467A      1.843826  1468A      1.847904  1469A      1.849524  
    1470A      1.850668  1471A      1.853368  1472A      1.854147  
    1473A      1.854519  1474A      1.855393  1475A      1.857923  
    1476A      1.858989  1477A      1.861724  1478A      1.863870  
    1479A      1.865255  1480A      1.866740  1481A      1.869727  
    1482A      1.870828  1483A      1.872653  1484A      1.874977  
    1485A      1.876023  1486A      1.877041  1487A      1.878578  
    1488A      1.880875  1489A      1.882178  1490A      1.885737  
    1491A      1.887513  1492A      1.890107  1493A      1.891758  
    1494A      1.892067  1495A      1.893113  1496A      1.894077  
    1497A      1.896156  1498A      1.898148  1499A      1.899773  
    1500A      1.901320  1501A      1.904389  1502A      1.907459  
    1503A      1.908648  1504A      1.909441  1505A      1.914020  
    1506A      1.915612  1507A      1.917118  1508A      1.919196  
    1509A      1.920784  1510A      1.925460  1511A      1.926530  
    1512A      1.928374  1513A      1.930240  1514A      1.933059  
    1515A      1.934392  1516A      1.935677  1517A      1.938252  
    1518A      1.939705  1519A      1.944079  1520A      1.946303  
    1521A      1.948370  1522A      1.949131  1523A      1.950216  
    1524A      1.951103  1525A      1.953009  1526A      1.953439  
    1527A      1.955003  1528A      1.955297  1529A      1.956668  
    1530A      1.957782  1531A      1.959971  1532A      1.962707  
    1533A      1.965492  1534A      1.967183  1535A      1.968545  
    1536A      1.970841  1537A      1.971607  1538A      1.973326  
    1539A      1.976246  1540A      1.978156  1541A      1.978463  
    1542A      1.981918  1543A      1.985619  1544A      1.987552  
    1545A      1.989806  1546A      1.991163  1547A      1.992823  
    1548A      1.993323  1549A      1.994410  1550A      1.996470  
    1551A      2.000139  1552A      2.002919  1553A      2.004915  
    1554A      2.005852  1555A      2.009434  1556A      2.010270  
    1557A      2.011114  1558A      2.013569  1559A      2.014908  
    1560A      2.015412  1561A      2.016603  1562A      2.017984  
    1563A      2.018296  1564A      2.019977  1565A      2.020160  
    1566A      2.021606  1567A      2.022358  1568A      2.024033  
    1569A      2.025197  1570A      2.026733  1571A      2.027364  
    1572A      2.027863  1573A      2.029062  1574A      2.029779  
    1575A      2.031475  1576A      2.033271  1577A      2.035804  
    1578A      2.036706  1579A      2.037586  1580A      2.038522  
    1581A      2.039541  1582A      2.042876  1583A      2.045582  
    1584A      2.047340  1585A      2.048169  1586A      2.049290  
    1587A      2.051502  1588A      2.052294  1589A      2.053427  
    1590A      2.054072  1591A      2.056319  1592A      2.057209  
    1593A      2.057730  1594A      2.061470  1595A      2.062622  
    1596A      2.063459  1597A      2.064009  1598A      2.065053  
    1599A      2.065704  1600A      2.066536  1601A      2.067791  
    1602A      2.070792  1603A      2.072814  1604A      2.074366  
    1605A      2.077406  1606A      2.079372  1607A      2.080470  
    1608A      2.081178  1609A      2.083571  1610A      2.085970  
    1611A      2.087065  1612A      2.091004  1613A      2.093707  
    1614A      2.094695  1615A      2.095706  1616A      2.097266  
    1617A      2.097429  1618A      2.098794  1619A      2.101432  
    1620A      2.103367  1621A      2.106414  1622A      2.107432  
    1623A      2.110797  1624A      2.111597  1625A      2.113856  
    1626A      2.116500  1627A      2.118024  1628A      2.119510  
    1629A      2.121812  1630A      2.122769  1631A      2.125194  
    1632A      2.126110  1633A      2.127639  1634A      2.128712  
    1635A      2.130677  1636A      2.133189  1637A      2.134623  
    1638A      2.136338  1639A      2.138994  1640A      2.141028  
    1641A      2.143083  1642A      2.144353  1643A      2.147106  
    1644A      2.150238  1645A      2.151367  1646A      2.152833  
    1647A      2.154362  1648A      2.155817  1649A      2.157666  
    1650A      2.158720  1651A      2.161088  1652A      2.162784  
    1653A      2.165131  1654A      2.168036  1655A      2.168419  
    1656A      2.169437  1657A      2.170314  1658A      2.172052  
    1659A      2.172862  1660A      2.173349  1661A      2.176757  
    1662A      2.180453  1663A      2.182790  1664A      2.185365  
    1665A      2.187834  1666A      2.193473  1667A      2.195233  
    1668A      2.202035  1669A      2.203454  1670A      2.204360  
    1671A      2.208226  1672A      2.210330  1673A      2.212405  
    1674A      2.219052  1675A      2.220390  1676A      2.221907  
    1677A      2.226344  1678A      2.227825  1679A      2.229137  
    1680A      2.230902  1681A      2.232403  1682A      2.233589  
    1683A      2.239064  1684A      2.242224  1685A      2.244468  
    1686A      2.254407  1687A      2.258291  1688A      2.259256  
    1689A      2.260150  1690A      2.263425  1691A      2.263803  
    1692A      2.264658  1693A      2.266383  1694A      2.267475  
    1695A      2.268014  1696A      2.269404  1697A      2.273140  
    1698A      2.274850  1699A      2.275796  1700A      2.276480  
    1701A      2.277170  1702A      2.278343  1703A      2.279522  
    1704A      2.280390  1705A      2.281549  1706A      2.284384  
    1707A      2.287899  1708A      2.298279  1709A      2.303574  
    1710A      2.305747  1711A      2.311675  1712A      2.317039  
    1713A      2.320246  1714A      2.323005  1715A      2.324142  
    1716A      2.334386  1717A      2.335904  1718A      2.342202  
    1719A      2.350862  1720A      2.353438  1721A      2.355441  
    1722A      2.360117  1723A      2.361708  1724A      2.365595  
    1725A      2.376086  1726A      2.377545  1727A      2.383959  
    1728A      2.384204  1729A      2.387733  1730A      2.399730  
    1731A      2.400560  1732A      2.402419  1733A      2.405347  
    1734A      2.406233  1735A      2.406593  1736A      2.407403  
    1737A      2.427798  1738A      2.429632  1739A      2.429896  
    1740A      2.437011  1741A      2.438490  1742A      2.444261  
    1743A      2.445402  1744A      2.446916  1745A      2.452842  
    1746A      2.467004  1747A      2.471998  1748A      2.472615  
    1749A      2.475093  1750A      2.478318  1751A      2.479109  
    1752A      2.482360  1753A      2.484478  1754A      2.485675  
    1755A      2.486290  1756A      2.486547  1757A      2.487366  
    1758A      2.488910  1759A      2.497583  1760A      2.505823  
    1761A      2.508674  1762A      2.518153  1763A      2.520140  
    1764A      2.521394  1765A      2.523058  1766A      2.523844  
    1767A      2.525837  1768A      2.527216  1769A      2.527464  
    1770A      2.533181  1771A      2.536895  1772A      2.537356  
    1773A      2.541120  1774A      2.548358  1775A      2.549419  
    1776A      2.550653  1777A      2.550921  1778A      2.555491  
    1779A      2.561178  1780A      2.568925  1781A      2.572736  
    1782A      2.577444  1783A      2.579009  1784A      2.580215  
    1785A      2.581407  1786A      2.582287  1787A      2.587422  
    1788A      2.587821  1789A      2.592455  1790A      2.593848  
    1791A      2.594356  1792A      2.596757  1793A      2.597462  
    1794A      2.604220  1795A      2.605427  1796A      2.607262  
    1797A      2.609421  1798A      2.613497  1799A      2.616051  
    1800A      2.618329  1801A      2.622987  1802A      2.623963  
    1803A      2.625165  1804A      2.625481  1805A      2.627956  
    1806A      2.629582  1807A      2.631293  1808A      2.632183  
    1809A      2.634892  1810A      2.644644  1811A      2.658259  
    1812A      2.660897  1813A      2.661782  1814A      2.665841  
    1815A      2.667427  1816A      2.668599  1817A      2.670276  
    1818A      2.682943  1819A      2.689433  1820A      2.699947  
    1821A      2.701360  1822A      2.708843  1823A      2.712470  
    1824A      2.714006  1825A      2.716031  1826A      2.730439  
    1827A      2.731051  1828A      2.733153  1829A      2.733551  
    1830A      2.734908  1831A      2.741043  1832A      2.743864  
    1833A      2.746533  1834A      2.747423  1835A      2.751271  
    1836A      2.753474  1837A      2.756630  1838A      2.760444  
    1839A      2.762760  1840A      2.769615  1841A      2.773384  
    1842A      2.776179  1843A      2.777363  1844A      2.780557  
    1845A      2.783285  1846A      2.783797  1847A      2.796729  
    1848A      2.797810  1849A      2.802950  1850A      2.804960  
    1851A      2.806485  1852A      2.809004  1853A      2.818677  
    1854A      2.819713  1855A      2.823470  1856A      2.824552  
    1857A      2.837646  1858A      2.854258  1859A      2.855369  
    1860A      2.861035  1861A      2.864789  1862A      2.866789  
    1863A      2.869498  1864A      2.872837  1865A      2.879426  
    1866A      2.899536  1867A      2.902660  1868A      2.912499  
    1869A      2.912755  1870A      2.921194  1871A      2.928702  
    1872A      2.932712  1873A      2.954918  1874A      2.963226  
    1875A      2.964939  1876A      2.977745  1877A      2.981523  
    1878A      2.985741  1879A      2.987251  1880A      2.989392  
    1881A      2.991070  1882A      2.992237  1883A      3.005404  
    1884A      3.006831  1885A      3.010520  1886A      3.048398  
    1887A      3.051055  1888A      3.052804  1889A      3.057775  
    1890A      3.065673  1891A      3.066320  1892A      3.071469  
    1893A      3.073689  1894A      3.076306  1895A      3.080790  
    1896A      3.084809  1897A      3.089069  1898A      3.091365  
    1899A      3.092693  1900A      3.094427  1901A      3.097190  
    1902A      3.098234  1903A      3.099544  1904A      3.111723  
    1905A      3.115055  1906A      3.116294  1907A      3.125350  
    1908A      3.132053  1909A      3.133372  1910A      3.149299  
    1911A      3.158502  1912A      3.191362  1913A      3.196039  
    1914A      3.197338  1915A      3.198765  1916A      3.200473  
    1917A      3.201083  1918A      3.206733  1919A      3.208016  
    1920A      3.212450  1921A      3.212670  1922A      3.234848  
    1923A      3.235933  1924A      3.244328  1925A      3.249232  
    1926A      3.294910  1927A      3.295745  1928A      3.307824  
    1929A      3.349817  1930A      3.366148  1931A      3.377944  
    1932A      3.386722  1933A      3.392542  1934A      3.397157  
    1935A      3.399616  1936A      3.404879  1937A      3.408801  
    1938A      3.416844  1939A      3.427328  1940A      3.441532  
    1941A      3.443535  1942A      3.456821  1943A      3.463616  
    1944A      3.499657  1945A      3.515441  1946A      3.518930  
    1947A      3.525974  1948A      3.528600  1949A      3.549321  
    1950A      3.608473  1951A      3.613688  1952A      3.615316  
    1953A      3.632065  1954A      3.633400  1955A      3.650511  
    1956A      3.691520  1957A      3.695023  1958A      3.705110  
    1959A      3.713701  1960A      3.723813  1961A      3.770378  
    1962A      3.781592  1963A      3.788806  1964A      3.812324  
    1965A      3.817680  1966A      3.855069  1967A      3.867179  
    1968A      3.881627  1969A      3.882699  1970A      3.889291  
    1971A      3.908834  1972A      3.924571  1973A      3.931800  
    1974A      3.954336  1975A      3.956199  1976A      3.987807  
    1977A      4.054044  1978A      4.221178  1979A      4.269492  
    1980A      4.371408  

    Final Occupation by Irrep:
              A 
    DOCC [   326 ]
    NA   [   326 ]
    NB   [   326 ]

  @DF-RHF Final Energy: -3953.65368525290569

   => Energetics <=

    Nuclear Repulsion Energy =          18282.2968810917227529
    One-Electron Energy =              -41768.8663475813227706
    Two-Electron Energy =               19532.9157812366938742
    Total Energy =                      -3953.6536852529061434

Computation Completed


Properties will be evaluated at   0.000000,   0.000000,   0.000000 [a0]

Properties computed using the SCF density matrix


 Multipole Moments:

 ------------------------------------------------------------------------------------
     Multipole            Electronic (a.u.)      Nuclear  (a.u.)        Total (a.u.)
 ------------------------------------------------------------------------------------

 L = 1.  Multiply by 2.5417464519 to convert [e a0] to [Debye]
 Dipole X            :         -0.0068517            0.0004804           -0.0063713
 Dipole Y            :         -7.3583728            8.7122315            1.3538587
 Dipole Z            :         18.2351937          -23.0139532           -4.7787595
 Magnitude           :                                                    4.9668417

 ------------------------------------------------------------------------------------

*** tstop() called on n2cn0625.ab2021.local at Sat Feb 10 15:18:29 2024
Module time:
	user time   =   32183.21 seconds =     536.39 minutes
	system time =    6877.47 seconds =     114.62 minutes
	total time  =       5763 seconds =      96.05 minutes
Total time:
	user time   =   32183.21 seconds =     536.39 minutes
	system time =    6877.47 seconds =     114.62 minutes
	total time  =       5763 seconds =      96.05 minutes

  //>>>>>>>>>>>>>>>>>>>>>>>>>>>>>>>>>>>//
  //            Monomer A HF           //
  //<<<<<<<<<<<<<<<<<<<<<<<<<<<<<<<<<<<//

   => Libint2 <=

    Primary   basis highest AM E, G, H:  5, 4, 3
    Auxiliary basis highest AM E, G, H:  6, 5, 4
    Onebody   basis highest AM E, G, H:  6, 5, 4
    Solid Harmonics ordering:            gaussian

*** tstart() called on n2cn0625.ab2021.local
*** at Sat Feb 10 15:18:29 2024

   => Loading Basis Set <=

    Name: JUN-CC-PVDZ
    Role: ORBITAL
    Keyword: BASIS
    atoms 1-2, 4-5, 10, 17-34, 41-53, 56-70, 73-89, 92-104, 109-119, 122-130 entry C          line   164 file /opt/software/pc2/EB-SW/software/PSI4/1.9-foss-2022a/share/psi4/basis/jun-cc-pvdz.gbs 
    atoms 3, 6                                                               entry N          line   198 file /opt/software/pc2/EB-SW/software/PSI4/1.9-foss-2022a/share/psi4/basis/jun-cc-pvdz.gbs 
    atoms 7-9, 11-16, 35-40, 54-55, 71-72, 90-91, 105-108, 120-121, 131-136  entry H          line    36 file /opt/software/pc2/EB-SW/software/PSI4/1.9-foss-2022a/share/psi4/basis/jun-cc-pvdz.gbs 


         ---------------------------------------------------------
                                   SCF
               by Justin Turney, Rob Parrish, Andy Simmonett
                          and Daniel G. A. Smith
                              RHF Reference
                       16 Threads,  76293 MiB Core
         ---------------------------------------------------------

  ==> Geometry <==

    Molecular point group: c1
    Full point group: C1

    Geometry (in Angstrom), charge = 1, multiplicity = 1:

       Center              X                  Y                   Z               Mass       
    ------------   -----------------  -----------------  -----------------  -----------------
         C            0.680062820275     1.308604348936    -5.003341447889    12.000000000000
         C           -0.680508179725     1.310632348936    -5.002957447889    12.000000000000
         N           -1.085639179725     1.311630348936    -3.684633447889    14.003074004430
[...]
    1594A      2.214070  1595A      2.215913  1596A      2.218205  
    1597A      2.219225  1598A      2.221806  1599A      2.222930  
    1600A      2.224777  1601A      2.226337  1602A      2.229308  
    1603A      2.230025  1604A      2.231359  1605A      2.232284  
    1606A      2.233094  1607A      2.235091  1608A      2.236618  
    1609A      2.238236  1610A      2.240941  1611A      2.244162  
    1612A      2.247665  1613A      2.250018  1614A      2.250517  
    1615A      2.252305  1616A      2.257243  1617A      2.260910  
    1618A      2.263547  1619A      2.265763  1620A      2.266448  
    1621A      2.269610  1622A      2.270425  1623A      2.275264  
    1624A      2.276218  1625A      2.279268  1626A      2.281014  
    1627A      2.282783  1628A      2.285676  1629A      2.288116  
    1630A      2.295028  1631A      2.295903  1632A      2.297771  
    1633A      2.299772  1634A      2.301293  1635A      2.303721  
    1636A      2.305913  1637A      2.309318  1638A      2.316221  
    1639A      2.322025  1640A      2.323837  1641A      2.325690  
    1642A      2.328968  1643A      2.329927  1644A      2.330826  
    1645A      2.331641  1646A      2.332215  1647A      2.334658  
    1648A      2.337232  1649A      2.338357  1650A      2.340341  
    1651A      2.341055  1652A      2.342852  1653A      2.344745  
    1654A      2.346351  1655A      2.346497  1656A      2.349000  
    1657A      2.351106  1658A      2.352009  1659A      2.355014  
    1660A      2.358993  1661A      2.367989  1662A      2.374656  
    1663A      2.380329  1664A      2.385936  1665A      2.387414  
    1666A      2.389378  1667A      2.395498  1668A      2.398240  
    1669A      2.400233  1670A      2.405271  1671A      2.408448  
    1672A      2.416947  1673A      2.419659  1674A      2.421088  
    1675A      2.425465  1676A      2.428150  1677A      2.432290  
    1678A      2.436844  1679A      2.445803  1680A      2.446195  
    1681A      2.451030  1682A      2.451811  1683A      2.454107  
    1684A      2.463606  1685A      2.465899  1686A      2.466969  
    1687A      2.469125  1688A      2.471099  1689A      2.472435  
    1690A      2.472860  1691A      2.480823  1692A      2.489146  
    1693A      2.492709  1694A      2.494320  1695A      2.500913  
    1696A      2.505425  1697A      2.509190  1698A      2.510512  
    1699A      2.512638  1700A      2.517425  1701A      2.520889  
    1702A      2.525636  1703A      2.539823  1704A      2.541166  
    1705A      2.541484  1706A      2.542220  1707A      2.545334  
    1708A      2.546898  1709A      2.547425  1710A      2.549416  
    1711A      2.553189  1712A      2.555464  1713A      2.556724  
    1714A      2.557423  1715A      2.563750  1716A      2.565669  
    1717A      2.572046  1718A      2.572792  1719A      2.576983  
    1720A      2.583071  1721A      2.585950  1722A      2.586022  
    1723A      2.586627  1724A      2.587737  1725A      2.589705  
    1726A      2.592834  1727A      2.593422  1728A      2.595012  
    1729A      2.598902  1730A      2.604130  1731A      2.604770  
    1732A      2.612031  1733A      2.615089  1734A      2.616029  
    1735A      2.616831  1736A      2.619457  1737A      2.622516  
    1738A      2.625681  1739A      2.635820  1740A      2.640399  
    1741A      2.643935  1742A      2.645009  1743A      2.646370  
    1744A      2.648852  1745A      2.650614  1746A      2.653734  
    1747A      2.655527  1748A      2.658392  1749A      2.659604  
    1750A      2.664952  1751A      2.666066  1752A      2.667399  
    1753A      2.669520  1754A      2.671532  1755A      2.673025  
    1756A      2.677560  1757A      2.679755  1758A      2.682097  
    1759A      2.684416  1760A      2.685925  1761A      2.689408  
    1762A      2.691610  1763A      2.692827  1764A      2.693629  
    1765A      2.695064  1766A      2.696338  1767A      2.698515  
    1768A      2.700861  1769A      2.708899  1770A      2.713212  
    1771A      2.722303  1772A      2.727491  1773A      2.730407  
    1774A      2.731801  1775A      2.732375  1776A      2.733980  
    1777A      2.740385  1778A      2.750807  1779A      2.757375  
    1780A      2.759701  1781A      2.768215  1782A      2.773418  
    1783A      2.776000  1784A      2.780848  1785A      2.782534  
    1786A      2.784104  1787A      2.795667  1788A      2.800017  
    1789A      2.800709  1790A      2.802089  1791A      2.802603  
    1792A      2.803145  1793A      2.807289  1794A      2.813342  
    1795A      2.816393  1796A      2.819157  1797A      2.820032  
    1798A      2.823928  1799A      2.827883  1800A      2.832498  
    1801A      2.834558  1802A      2.837167  1803A      2.842098  
    1804A      2.843996  1805A      2.848252  1806A      2.853338  
    1807A      2.858162  1808A      2.861642  1809A      2.867292  
    1810A      2.868647  1811A      2.872272  1812A      2.876837  
    1813A      2.877025  1814A      2.896241  1815A      2.897191  
    1816A      2.905254  1817A      2.918790  1818A      2.919521  
    1819A      2.921952  1820A      2.929097  1821A      2.932027  
    1822A      2.937052  1823A      2.937755  1824A      2.945633  
    1825A      2.959965  1826A      2.962842  1827A      2.969247  
    1828A      2.969998  1829A      2.974200  1830A      2.978021  
    1831A      2.989343  1832A      2.998795  1833A      3.009247  
    1834A      3.015129  1835A      3.022191  1836A      3.031861  
    1837A      3.035856  1838A      3.038263  1839A      3.047522  
    1840A      3.050194  1841A      3.051149  1842A      3.055172  
    1843A      3.059809  1844A      3.062247  1845A      3.065896  
    1846A      3.070001  1847A      3.073621  1848A      3.103029  
    1849A      3.111294  1850A      3.115315  1851A      3.117415  
    1852A      3.124171  1853A      3.128607  1854A      3.132902  
    1855A      3.133739  1856A      3.136247  1857A      3.141721  
    1858A      3.145393  1859A      3.146868  1860A      3.150407  
    1861A      3.152288  1862A      3.155602  1863A      3.156939  
    1864A      3.162683  1865A      3.162855  1866A      3.167933  
    1867A      3.169326  1868A      3.174502  1869A      3.176444  
    1870A      3.179874  1871A      3.191310  1872A      3.195836  
    1873A      3.205379  1874A      3.212713  1875A      3.222705  
    1876A      3.257353  1877A      3.263089  1878A      3.263188  
    1879A      3.264913  1880A      3.266533  1881A      3.268513  
    1882A      3.273337  1883A      3.274632  1884A      3.278128  
    1885A      3.278510  1886A      3.301848  1887A      3.303077  
    1888A      3.309597  1889A      3.313385  1890A      3.322750  
    1891A      3.360895  1892A      3.364537  1893A      3.370260  
    1894A      3.380114  1895A      3.408245  1896A      3.421659  
    1897A      3.436093  1898A      3.446897  1899A      3.460240  
    1900A      3.465444  1901A      3.469059  1902A      3.472767  
    1903A      3.477125  1904A      3.480247  1905A      3.491481  
    1906A      3.497980  1907A      3.510171  1908A      3.512408  
    1909A      3.513060  1910A      3.534450  1911A      3.539672  
    1912A      3.565822  1913A      3.575412  1914A      3.585117  
    1915A      3.593366  1916A      3.595161  1917A      3.609597  
    1918A      3.655117  1919A      3.662016  1920A      3.679747  
    1921A      3.682799  1922A      3.702384  1923A      3.709338  
    1924A      3.723903  1925A      3.758271  1926A      3.764490  
    1927A      3.767392  1928A      3.774105  1929A      3.779274  
    1930A      3.793124  1931A      3.833410  1932A      3.843884  
    1933A      3.849470  1934A      3.854664  1935A      3.878446  
    1936A      3.884471  1937A      3.885367  1938A      3.922311  
    1939A      3.934213  1940A      3.949131  1941A      3.950180  
    1942A      3.955964  1943A      3.971469  1944A      3.994275  
    1945A      3.998870  1946A      4.009263  1947A      4.025183  
    1948A      4.027837  1949A      4.095999  1950A      4.135649  
    1951A      4.239080  1952A      4.263114  1953A      4.318804  
    1954A      4.350464  1955A      4.431756  1956A      4.454073  
    1957A      4.462081  1958A      4.535098  1959A      4.825225  
    1960A      4.859805  1961A      4.922935  1962A      4.950795  
    1963A      4.984710  1964A      5.089339  1965A      5.100189  
    1966A      5.120308  1967A      5.157757  1968A      5.239870  
    1969A      5.432954  1970A      5.447424  1971A      5.779672  
    1972A      5.813790  1973A      6.083144  1974A     18.207965  
    1975A     18.495170  1976A     18.523819  1977A     18.611515  
    1978A     18.864026  1979A     25.361080  1980A     25.396010  

    Final Occupation by Irrep:
              A 
    DOCC [   300 ]
    NA   [   300 ]
    NB   [   300 ]

  @DF-RHF Final Energy: -3650.34180791321251

   => Energetics <=

    Nuclear Repulsion Energy =          15611.4211649754306563
    One-Electron Energy =              -36072.1987025915441336
    Two-Electron Energy =               16810.4357297029018810
    Total Energy =                      -3650.3418079132134153

Computation Completed


Properties will be evaluated at   0.000000,   0.000000,   0.000000 [a0]

Properties computed using the SCF density matrix


 Multipole Moments:

 ------------------------------------------------------------------------------------
     Multipole            Electronic (a.u.)      Nuclear  (a.u.)        Total (a.u.)
 ------------------------------------------------------------------------------------

 L = 1.  Multiply by 2.5417464519 to convert [e a0] to [Debye]
 Dipole X            :         -0.0006962            0.0002112           -0.0004850
 Dipole Y            :        123.2196347         -123.2131634            0.0064713
 Dipole Z            :       -354.4207746          354.4263101            0.0055355
 Magnitude           :                                                    0.0085296

 ------------------------------------------------------------------------------------

*** tstop() called on n2cn0625.ab2021.local at Sat Feb 10 16:42:35 2024
Module time:
	user time   =   21352.39 seconds =     355.87 minutes
	system time =    4881.74 seconds =      81.36 minutes
	total time  =       3288 seconds =      54.80 minutes
Total time:
	user time   =   60780.19 seconds =    1013.00 minutes
	system time =   12830.64 seconds =     213.84 minutes
	total time  =      10809 seconds =     180.15 minutes
  Constructing Basis Sets for SAPT...

   => Loading Basis Set <=

    Name: (JUN-CC-PVDZ AUX)
    Role: RIFIT
    Keyword: DF_BASIS_SAPT
    atoms 1-2, 4-5, 10, 17-34, 41-53, 56-70, 73-89, 92-104, 109-119, 122-130 entry C          line   100 file /opt/software/pc2/EB-SW/software/PSI4/1.9-foss-2022a/share/psi4/basis/jun-cc-pvdz-ri.gbs 
    atoms 3, 6                                                               entry N          line   144 file /opt/software/pc2/EB-SW/software/PSI4/1.9-foss-2022a/share/psi4/basis/jun-cc-pvdz-ri.gbs 
    atoms 7-9, 11-16, 35-40, 54-55, 71-72, 90-91, 105-108, 120-121, 131-136  entry H          line    30 file /opt/software/pc2/EB-SW/software/PSI4/1.9-foss-2022a/share/psi4/basis/jun-cc-pvdz-ri.gbs 

   => Loading Basis Set <=

    Name: (JUN-CC-PVDZ AUX)
    Role: JKFIT
    Keyword: DF_BASIS_ELST
    atoms 1-2, 4-5, 10, 17-34, 41-53, 56-70, 73-89, 92-104, 109-119, 122-130 entry C          line   146 file /opt/software/pc2/EB-SW/software/PSI4/1.9-foss-2022a/share/psi4/basis/jun-cc-pvdz-jkfit.gbs 
    atoms 3, 6                                                               entry N          line   202 file /opt/software/pc2/EB-SW/software/PSI4/1.9-foss-2022a/share/psi4/basis/jun-cc-pvdz-jkfit.gbs 
    atoms 7-9, 11-16, 35-40, 54-55, 71-72, 90-91, 105-108, 120-121, 131-136  entry H          line    70 file /opt/software/pc2/EB-SW/software/PSI4/1.9-foss-2022a/share/psi4/basis/jun-cc-pvdz-jkfit.gbs 


  //>>>>>>>>>>>>>>>>>>>>>>>>>>>>>>>>>>>//
  //               SSAPT0              //
  //<<<<<<<<<<<<<<<<<<<<<<<<<<<<<<<<<<<//


*** tstart() called on n2cn0625.ab2021.local
*** at Sat Feb 10 16:42:37 2024

        SAPT0  
    Ed Hohenstein
     6 June 2009

      Orbital Information
  --------------------------
    NSO        =      2019
    NMO        =      1980
    NRI        =      7157
    NRI (Elst) =      8896
    NOCC A     =        26
    NOCC B     =       300
    FOCC A     =         7
    FOCC B     =        96
    NVIR A     =      1954
    NVIR B     =      1680

    Elst10,r            =    -0.020735535132 [Eh]
    Exch10              =     0.031804670144 [Eh]
    Exch10 (S^2)        =     0.031519310517 [Eh]

    Iter     Energy [mEh]          dE [mEh]         Residual      Time [s]
       1      -2.36776003       2.367760027       7.267245720           157
       2      -2.88045796       0.512697937       2.234119875           327
       3      -2.92923986       0.048781895       0.380295983           505
       4      -2.92429873      -0.004941126       0.116624065           697
       5      -2.92322352      -0.001075217       0.026782519           882
       6      -2.92360425       0.000380730       0.009354434          1030
       7      -2.92358121      -0.000023035       0.005383204          1210
       8      -2.92354561      -0.000035602       0.001521451          1341
       9      -2.92354834       0.000002733       0.000479383          1500
      10      -2.92355070       0.000002355       0.000127826          1639
      11      -2.92355059      -0.000000111       0.000033557          1763
      12      -2.92355045      -0.000000134       0.000009020          1895
      13      -2.92355045       0.000000002       0.000002912          2018
      14      -2.92355047       0.000000012       0.000000880          2149

    CHF Iterations converged


    Iter     Energy [mEh]          dE [mEh]         Residual      Time [s]
       1     -32.07221902      32.072219021      90.018745729           240
       2     -23.00225094      -9.069968078      13.493511108           413
       3     -23.58605800       0.583807059       6.194874787           590
       4     -24.38000850       0.793950498       1.667983305           751
       5     -24.43072356       0.050715055       0.774023929           913
       6     -24.38769810      -0.043025458       0.488990470          1089
       7     -24.37392300      -0.013775094       0.283050238          1287
       8     -24.38584955       0.011926551       0.182616533          1436
       9     -24.39108745       0.005237900       0.114924287          1621
      10     -24.38719932      -0.003888135       0.068975345          1801
      11     -24.38635324      -0.000846074       0.032085245          1959
      12     -24.38683919       0.000485940       0.016600542          2137
      13     -24.38719063       0.000351448       0.007775951          2360
      14     -24.38713227      -0.000058365       0.004399075          2539
      15     -24.38706290      -0.000069370       0.002216703          2736
      16     -24.38705175      -0.000011151       0.000969549          2925
      17     -24.38707408       0.000022335       0.000526983          3130
      18     -24.38707782       0.000003734       0.000317681          3308
      19     -24.38707246      -0.000005357       0.000164111          3489
      20     -24.38707023      -0.000002233       0.000070831          3711
      21     -24.38707113       0.000000902       0.000036432          3868
      22     -24.38707172       0.000000590       0.000017430          4038
      23     -24.38707157      -0.000000146       0.000010709          4208
      24     -24.38707140      -0.000000170       0.000006273          4381
      25     -24.38707141       0.000000010       0.000003485          4583
      26     -24.38707147       0.000000059       0.000001569          4770
      27     -24.38707147       0.000000002       0.000000673          4911

    CHF Iterations converged

    Ind20,r (A<-B)      =    -0.002923550467 [Eh]
    Ind20,r (B<-A)      =    -0.024387071473 [Eh]
    Ind20,r             =    -0.027310621939 [Eh]
    Exch-Ind20,r (A<-B) =     0.002765232674 [Eh]
    Exch-Ind20,r (B<-A) =     0.006049786087 [Eh]
    Exch-Ind20,r        =     0.008815018761 [Eh]
    Disp20              =    -0.031471736366 [Eh]
    Disp20 (SS)         =    -0.015735868183 [Eh]
    Disp20 (OS)         =    -0.015735868183 [Eh]
    Exch-Disp20         =     0.002323617319 [Eh]
    Exch-Disp20 (SS)    =     0.001429150292 [Eh]
    Exch-Disp20 (OS)    =     0.000894467026 [Eh]

    SAPT Results 
  --------------------------------------------------------------------------------------------------------
    Electrostatics                -20.73553513 [mEh]     -13.01174474 [kcal/mol]     -54.44113999 [kJ/mol]
      Elst10,r                    -20.73553513 [mEh]     -13.01174474 [kcal/mol]     -54.44113999 [kJ/mol]

    Exchange                       31.80467014 [mEh]      19.95773183 [kcal/mol]      83.50314996 [kJ/mol]
      Exch10                       31.80467014 [mEh]      19.95773183 [kcal/mol]      83.50314996 [kJ/mol]
      Exch10(S^2)                  31.51931052 [mEh]      19.77866596 [kcal/mol]      82.75393836 [kJ/mol]

    Induction                     -24.39134842 [mEh]     -15.30580221 [kcal/mol]     -64.03947646 [kJ/mol]
      Ind20,r                     -27.31062194 [mEh]     -17.13767400 [kcal/mol]     -71.70402802 [kJ/mol]
      Exch-Ind20,r                  8.81501876 [mEh]       5.53150778 [kcal/mol]      23.14382857 [kJ/mol]
      delta HF,r (2)               -5.89574524 [mEh]      -3.69963600 [kcal/mol]     -15.47927701 [kJ/mol]

    Dispersion                    -29.14811905 [mEh]     -18.29072084 [kcal/mol]     -76.52837601 [kJ/mol]
      Disp20                      -31.47173637 [mEh]     -19.74881273 [kcal/mol]     -82.62903244 [kJ/mol]
      Exch-Disp20                   2.32361732 [mEh]       1.45809188 [kcal/mol]       6.10065643 [kJ/mol]
      Disp20 (SS)                 -15.73586818 [mEh]      -9.87440636 [kcal/mol]     -41.31451622 [kJ/mol]
      Disp20 (OS)                 -15.73586818 [mEh]      -9.87440636 [kcal/mol]     -41.31451622 [kJ/mol]
      Exch-Disp20 (SS)              1.42915029 [mEh]       0.89680535 [kcal/mol]       3.75223358 [kJ/mol]
      Exch-Disp20 (OS)              0.89446703 [mEh]       0.56128653 [kcal/mol]       2.34842285 [kJ/mol]

  Total HF                        -13.32221341 [mEh]      -8.35981513 [kcal/mol]     -34.97746649 [kJ/mol]
  Total SAPT0                     -42.47033246 [mEh]     -26.65053597 [kcal/mol]    -111.50584251 [kJ/mol]

  Special recipe for scaled SAPT0 (see Manual):
    Electrostatics sSAPT0         -20.73553513 [mEh]     -13.01174474 [kcal/mol]     -54.44113999 [kJ/mol]
    Exchange sSAPT0                31.80467014 [mEh]      19.95773183 [kcal/mol]      83.50314996 [kJ/mol]
    Induction sSAPT0              -24.14975436 [mEh]     -15.15419965 [kcal/mol]     -63.40517133 [kJ/mol]
    Dispersion sSAPT0             -29.08443544 [mEh]     -18.25075878 [kcal/mol]     -76.36117474 [kJ/mol]
  Total sSAPT0                    -42.16505479 [mEh]     -26.45897134 [kcal/mol]    -110.70433610 [kJ/mol]
  --------------------------------------------------------------------------------------------------------

*** tstop() called on n2cn0625.ab2021.local at Sat Feb 10 21:33:29 2024
Module time:
	user time   =   87568.81 seconds =    1459.48 minutes
	system time =   10088.48 seconds =     168.14 minutes
	total time  =      17452 seconds =     290.87 minutes
Total time:
	user time   =  148350.56 seconds =    2472.51 minutes
	system time =   22919.12 seconds =     381.99 minutes
	total time  =      28263 seconds =     471.05 minutes

    Psi4 stopped on: Saturday, 10 February 2024 09:33PM
    Psi4 wall time for execution: 7:51:04.16

*** Psi4 exiting successfully. Buy a developer a beer!
