
    -----------------------------------------------------------------------
          Psi4: An Open-Source Ab Initio Electronic Structure Package
                               Psi4 1.9 release

                         Git: Rev {} zzzzzzz 


    D. G. A. Smith, L. A. Burns, A. C. Simmonett, R. M. Parrish,
    M. C. Schieber, R. Galvelis, P. Kraus, H. Kruse, R. Di Remigio,
    A. Alenaizan, A. M. James, S. Lehtola, J. P. Misiewicz, M. Scheurer,
    R. A. Shaw, J. B. Schriber, Y. Xie, Z. L. Glick, D. A. Sirianni,
    J. S. O'Brien, J. M. Waldrop, A. Kumar, E. G. Hohenstein,
    B. P. Pritchard, B. R. Brooks, H. F. Schaefer III, A. Yu. Sokolov,
    K. Patkowski, A. E. DePrince III, U. Bozkaya, R. A. King,
    F. A. Evangelista, J. M. Turney, T. D. Crawford, C. D. Sherrill,
    J. Chem. Phys. 152(18) 184108 (2020). https://doi.org/10.1063/5.0006002

                            Additional Code Authors
    E. T. Seidl, C. L. Janssen, E. F. Valeev, M. L. Leininger,
    J. F. Gonthier, R. M. Richard, H. R. McAlexander, M. Saitow, X. Wang,
    P. Verma, M. H. Lechner, A. Jiang, S. Behnle, A. G. Heide,
    M. F. Herbst, and D. L. Poole

             Previous Authors, Complete List of Code Contributors,
                       and Citations for Specific Modules
    https://github.com/psi4/psi4/blob/master/codemeta.json
    https://github.com/psi4/psi4/graphs/contributors
    http://psicode.org/psi4manual/master/introduction.html#citing-psifour

    -----------------------------------------------------------------------


    Psi4 started on: Monday, 22 January 2024 04:50PM

    Process ID: 2411830
    Host:       d-16-12-3
    PSIDATADIR: /home/gridsan/tfroembgen/.conda/envs/psi4test/share/psi4
    Memory:     500.0 MiB
    Threads:    12
    
  ==> Input File <==

--------------------------------------------------------------------------
memory 32 GB # how much memory is available ! Depends on the nodes/cores !

molecule dimer {
# monomer A
+1 1    # Charge and multiplicity
C  0.680067 -1.215929 4.808042
C -0.680504 -1.215545 4.806014
N -1.085635  0.102779 4.805016
C  0.000108  0.884180 4.801740
C -2.477365  0.570758 4.755610
N  1.085222  0.102779 4.805016
H  1.385146 -2.033368 4.815870
H -1.385302 -2.033214 4.806204
H -0.000009  1.965269 4.799993
C  2.478117  0.567877 4.821908
H  2.490592  1.658130 4.794563
H  2.967028  0.220701 5.735354
H  3.001428  0.176405 3.946425
H -2.857359  0.490799 3.733539
H -3.082679 -0.042306 5.425694
H -2.518128  1.610706 5.082594
--
# monomer B
0 1     # Charge and multiplicity
C   1.22531237526482      0.70753866091955      0.00613762728373
C   1.22532433589282     -0.70753852257020     -0.00619318228664
C   -0.00000567409046      1.41496628609039     -0.00672680580738
C   2.45644923379077      1.41832825917820      0.00902448468363
C   0.00001130712078     -1.41497612663474      0.00347275151708
C   -1.22530046906674      0.70754574598412      0.00838914760619
C   2.45643823516184     -1.41832293188077     -0.00843833914343
C   -0.00000085313587      2.83680140328112     -0.00913035594137
C   3.68182717731192      0.70931832800114     -0.00808954934571
C   2.45512052870677      2.83422403348893     -0.00819210630633
C   3.68182158506039     -0.70933346742900      0.00798293467272
C   -1.22531311884624     -0.70752714354401     -0.00512042085974
C   1.22670006104402      3.54346985599427      0.00816696660346
C   0.00000526469929     -2.83678176723568      0.00832091913869
C   -2.45643555300670      1.41831729028492      0.00842454345199
C   2.45512389762097     -2.83422965658853      0.00783102630520
C   -1.22671388474763      3.54346943575023      0.00827029982280
C   4.91451777504333      1.42717324448953     -0.00160886631602
C   3.69315067131765      3.54279566454522     -0.00155906667985
C   -2.45643712022637     -1.41831290883911     -0.00846337726810
C   1.22670532178455     -3.54347386990643     -0.00780316414624
C   -2.45512491866593      2.83421703463423     -0.00818572995999
C   4.91452486062398     -1.42718653794377      0.00136387641845
C   1.22142509354026      4.97013443726031      0.00150231067809
C   4.89300870916237      2.82518837202648     -0.00039219795739
C   -1.22669652864725     -3.54347062507680     -0.00753595973677
C   -3.68181849668397      0.70932533873199     -0.00807686886569
C   3.69314758099218     -3.54280096939050      0.00148176697923
C   -1.22143177215231      4.97012866986289      0.00168580605083
C   6.13477145276790      0.68054831910577     -0.00083909176631
C   3.65678936045204      4.97295361556775     -0.00065042889723
C   -2.45512642789169     -2.83421472106065      0.00758666850712
C   -3.68181869921921     -0.70932533146830      0.00810055625144
C   4.89301309775526     -2.82519973363176      0.00021895393805
C   -0.00000059327114      5.65044773803267      0.00045449734393
C   6.13477559217374     -0.68055448207492      0.00042622874941
C   2.47813196269732      5.65357712333155      0.00063835075260
C   1.22142288457925     -4.97012668293268     -0.00129718634452
C   -3.69316190412301      3.54279732619245     -0.00139355922051
C   -1.22142804110313     -4.97011793159564     -0.00140994817719
C   -4.91452132810043      1.42717581899491     -0.00153192130862
C   3.65678749952045     -4.97295485423912      0.00080007163680
C   -2.47813805026426      5.65357479452875      0.00092287576113
C   -3.69314125872231     -3.54278984697859      0.00136564082345
C   -4.91451200321153     -1.42718062802730      0.00139857359209
C   -0.00000552908399     -5.65043791501335      0.00005899322272
C   -4.89302000425900      2.82518897091939     -0.00040227981744
C   2.47812647313991     -5.65357317188818     -0.00029052915548
C   -3.65679823041642      4.97295655404175     -0.00047374852278
C   -4.89299899901461     -2.82519139505969      0.00006491824035
C   -2.47812801824129     -5.65356579800621     -0.00056571680280
C   -6.13477002348955      0.68054913825639     -0.00086464346868
C   -3.65678835334731     -4.97294365097028      0.00058578382008
C   -6.13476456307132     -0.68055354348201      0.00040575295444
H   5.83528897565761      3.36927626695423      0.00396712770529
H   7.07385965258860      1.22821762089947     -0.00037744837300
H   4.60066374401555      5.51238117445323     -0.00014522814529
H   5.83528386714679     -3.36930568472863     -0.00423551337640
H   -0.00001167146422      6.73853104613662     -0.00389474766392
H   7.07386165167227     -1.22822657074368     -0.00008250934481
H   2.47331421164041      6.74068466339473      0.00017162982210
H   4.60066897122302     -5.51237575717576      0.00039007446835
H   -2.47331820069565      6.74068209160650      0.00047297644710
H   -0.00000978838621     -6.73852780445195      0.00458867820736
H   -5.83530143450167      3.36927132229595      0.00410314985360
H   2.47330840367253     -6.74068500242887      0.00027980126949
H   -4.60067436136587      5.51237839860371      0.00002010017831
H   -5.83527902699321     -3.36928859177951     -0.00451481925734
H   -2.47329986759855     -6.74067870613986     -0.00016951527498
H   -7.07385728692578      1.22822084484047     -0.00046143985387
H   -4.60067330624313     -5.51236229778631      0.00021776644566
H   -7.07385645456741     -1.22822025997701     -0.00017736581114

    units angstrom      # Angstroms are the default
    no_reorient         # Geometry fixed, default
    symmetry c1         # C1 symmetry, default
}

set {
    scf_type DF         # Density fitting, faster than exact integrals
    freeze_core True    # Freeze core electrons
    basis jun-cc-pVDZ   # Jun-cc-pVDZ basis set, recommended for sSAPT0 in https://doi.org/10.1063/1.4867135
}

energy('ssapt0')        # Compute sSAPT0 energy, includes also SAPT0
--------------------------------------------------------------------------

  Memory set to  29.802 GiB by Python driver.

Scratch directory: /state/partition1/slurm_tmp/24798244.4294967291.0/
   => Loading Basis Set <=

    Name: JUN-CC-PVDZ
    Role: ORBITAL
    Keyword: BASIS
    atoms 1-2, 4-5, 10, 17-70 entry C          line   164 file /home/gridsan/tfroembgen/.conda/envs/psi4test/share/psi4/basis/jun-cc-pvdz.gbs 
    atoms 3, 6                entry N          line   198 file /home/gridsan/tfroembgen/.conda/envs/psi4test/share/psi4/basis/jun-cc-pvdz.gbs 
    atoms 7-9, 11-16, 71-88   entry H          line    36 file /home/gridsan/tfroembgen/.conda/envs/psi4test/share/psi4/basis/jun-cc-pvdz.gbs 

   => Loading Basis Set <=

    Name: JUN-CC-PVDZ
    Role: ORBITAL
    Keyword: BASIS
    atoms 1-2, 4-5, 10, 17-70 entry C          line   164 file /home/gridsan/tfroembgen/.conda/envs/psi4test/share/psi4/basis/jun-cc-pvdz.gbs 
    atoms 3, 6                entry N          line   198 file /home/gridsan/tfroembgen/.conda/envs/psi4test/share/psi4/basis/jun-cc-pvdz.gbs 
    atoms 7-9, 11-16, 71-88   entry H          line    36 file /home/gridsan/tfroembgen/.conda/envs/psi4test/share/psi4/basis/jun-cc-pvdz.gbs 


  //>>>>>>>>>>>>>>>>>>>>>>>>>>>>>>>>>>>//
  //              Dimer HF             //
  //<<<<<<<<<<<<<<<<<<<<<<<<<<<<<<<<<<<//

   => Libint2 <=

    Primary   basis highest AM E, G, H:  7, 7, 4
    Auxiliary basis highest AM E, G, H:  7, 7, 5
    Onebody   basis highest AM E, G, H:  7, 7, 5
    Solid Harmonics ordering:            gaussian

*** tstart() called on d-16-12-3
*** at Mon Jan 22 16:50:40 2024

   => Loading Basis Set <=

    Name: JUN-CC-PVDZ
    Role: ORBITAL
    Keyword: BASIS
    atoms 1-2, 4-5, 10, 17-70 entry C          line   164 file /home/gridsan/tfroembgen/.conda/envs/psi4test/share/psi4/basis/jun-cc-pvdz.gbs 
    atoms 3, 6                entry N          line   198 file /home/gridsan/tfroembgen/.conda/envs/psi4test/share/psi4/basis/jun-cc-pvdz.gbs 
    atoms 7-9, 11-16, 71-88   entry H          line    36 file /home/gridsan/tfroembgen/.conda/envs/psi4test/share/psi4/basis/jun-cc-pvdz.gbs 


         ---------------------------------------------------------
                                   SCF
               by Justin Turney, Rob Parrish, Andy Simmonett
                          and Daniel G. A. Smith
                              RHF Reference
                       12 Threads,  30517 MiB Core
         ---------------------------------------------------------

  ==> Geometry <==

    Molecular point group: c1
    Full point group: C1

    Geometry (in Angstrom), charge = 1, multiplicity = 1:

       Center              X                  Y                   Z               Mass       
    ------------   -----------------  -----------------  -----------------  -----------------
         C            0.680066520158    -1.215933861162     4.197513631878    12.000000000000
         C           -0.680504479842    -1.215549861162     4.195485631878    12.000000000000
         N           -1.085635479842     0.102774138838     4.194487631878    14.003074004430
         C            0.000107520158     0.884175138838     4.191211631878    12.000000000000
         C           -2.477365479842     0.570753138838     4.145081631878    12.000000000000
         N            1.085221520158     0.102774138838     4.194487631878    14.003074004430
         H            1.385145520158    -2.033372861162     4.205341631878     1.007825032230
         H           -1.385302479842    -2.033218861162     4.195675631878     1.007825032230
         H           -0.000009479842     1.965264138838     4.189464631878     1.007825032230
         C            2.478116520158     0.567872138838     4.211379631878    12.000000000000
         H            2.490591520158     1.658125138838     4.184034631878     1.007825032230
         H            2.967027520158     0.220696138838     5.124825631878     1.007825032230
         H            3.001427520158     0.176400138838     3.335896631878     1.007825032230
         H           -2.857359479842     0.490794138838     3.123010631878     1.007825032230
         H           -3.082679479842    -0.042310861162     4.815165631878     1.007825032230
         H           -2.518128479842     1.610701138838     4.472065631878     1.007825032230
         C            1.225311895423     0.707533799757    -0.604390740838    12.000000000000
         C            1.225323856051    -0.707543383733    -0.616721550408    12.000000000000
         C           -0.000006153932     1.414961424928    -0.617255173929    12.000000000000
         C            2.456448753949     1.418323398016    -0.601503883438    12.000000000000
         C            0.000010827279    -1.414980987797    -0.607055616604    12.000000000000
         C           -1.225300948908     0.707540884822    -0.602139220515    12.000000000000
         C            2.456437755320    -1.418327793043    -0.618966707265    12.000000000000
         C           -0.000001332978     2.836796542119    -0.619658724063    12.000000000000
         C            3.681826697470     0.709313466839    -0.618617917467    12.000000000000
         C            2.455120048865     2.834219172327    -0.618720474428    12.000000000000
         C            3.681821105219    -0.709338328591    -0.602545433449    12.000000000000
         C           -1.225313598688    -0.707532004706    -0.615648788981    12.000000000000
         C            1.226699581202     3.543464994832    -0.602361401518    12.000000000000
         C            0.000004784858    -2.836786628398    -0.602207448983    12.000000000000
         C           -2.456436032848     1.418312429123    -0.602103824670    12.000000000000
         C            2.455123417779    -2.834234517751    -0.602697341816    12.000000000000
         C           -1.226714364589     3.543464574588    -0.602258068299    12.000000000000
         C            4.914517295202     1.427168383327    -0.612137234438    12.000000000000
         C            3.693150191476     3.542790803383    -0.612087434801    12.000000000000
         C           -2.456437600068    -1.418317770001    -0.618991745390    12.000000000000
         C            1.226704841943    -3.543478731069    -0.618331532268    12.000000000000
         C           -2.455125398508     2.834212173472    -0.618714098082    12.000000000000
         C            4.914524380782    -1.427191399106    -0.609164491703    12.000000000000
         C            1.221424613699     4.970129576098    -0.609026057443    12.000000000000
         C            4.893008229321     2.825183510864    -0.610920566079    12.000000000000
         C           -1.226697008489    -3.543475486239    -0.618064327858    12.000000000000
         C           -3.681818976526     0.709320477570    -0.618605236987    12.000000000000
         C            3.693147101150    -3.542805830553    -0.609046601142    12.000000000000
         C           -1.221432251994     4.970123808701    -0.608842562071    12.000000000000
         C            6.134770972926     0.680543457943    -0.611367459888    12.000000000000
         C            3.656788880610     4.972948754405    -0.611178797019    12.000000000000
         C           -2.455126907733    -2.834219582223    -0.602941699614    12.000000000000
         C           -3.681819179061    -0.709330192631    -0.602427811870    12.000000000000
         C            4.893012617914    -2.825204594794    -0.610309414183    12.000000000000
         C           -0.000001073113     5.650442876870    -0.610073870778    12.000000000000
         C            6.134775112332    -0.680559343237    -0.610102139372    12.000000000000
         C            2.478131482856     5.653572262169    -0.609890017369    12.000000000000
         C            1.221422404738    -4.970131544095    -0.611825554466    12.000000000000
         C           -3.693162383965     3.542792465030    -0.611921927342    12.000000000000
         C           -1.221428520945    -4.970122792758    -0.611938316299    12.000000000000
         C           -4.914521807942     1.427170957833    -0.612060289430    12.000000000000
         C            3.656787019679    -4.972959715401    -0.609728296485    12.000000000000
         C           -2.478138530106     5.653569933366    -0.609605492360    12.000000000000
         C           -3.693141738564    -3.542794708141    -0.609162727298    12.000000000000
         C           -4.914512483053    -1.427185489190    -0.609129794529    12.000000000000
         C           -0.000006008926    -5.650442776176    -0.610469374899    12.000000000000
         C           -4.893020484101     2.825184109757    -0.610930647939    12.000000000000
         C            2.478125993298    -5.653578033051    -0.610818897277    12.000000000000
         C           -3.656798710258     4.972951692879    -0.611002116644    12.000000000000
         C           -4.892999478856    -2.825196256222    -0.610463449881    12.000000000000
         C           -2.478128498083    -5.653570659169    -0.611094084924    12.000000000000
         C           -6.134770503331     0.680544277094    -0.611393011590    12.000000000000
         C           -3.656788833189    -4.972948512133    -0.609942584301    12.000000000000
         C           -6.134765042913    -0.680558404644    -0.610122615167    12.000000000000
         H            5.835288495816     3.369271405792    -0.606561240416     1.007825032230
         H            7.073859172747     1.228212759737    -0.610905816495     1.007825032230
         H            4.600663264174     5.512376313291    -0.610673596267     1.007825032230
         H            5.835283387305    -3.369310545891    -0.614763881498     1.007825032230
         H           -0.000012151306     6.738526184974    -0.614423115785     1.007825032230
         H            7.073861171831    -1.228231431906    -0.610610877466     1.007825032230
         H            2.473313731799     6.740679802232    -0.610356738299     1.007825032230
         H            4.600668491381    -5.512380618338    -0.610138293653     1.007825032230
         H           -2.473318680537     6.740677230444    -0.610055391674     1.007825032230
         H           -0.000010268228    -6.738532665614    -0.605939689914     1.007825032230
         H           -5.835301914343     3.369266461134    -0.606425218268     1.007825032230
         H            2.473307923831    -6.740689863591    -0.610248566852     1.007825032230
         H           -4.600674841208     5.512373537441    -0.610508267943     1.007825032230
         H           -5.835279506835    -3.369293452942    -0.615043187379     1.007825032230
         H           -2.473300347440    -6.740683567302    -0.610697883397     1.007825032230
         H           -7.073857766768     1.228215983678    -0.610989807975     1.007825032230
         H           -4.600673786085    -5.512367158949    -0.610310601676     1.007825032230
         H           -7.073856934409    -1.228225121139    -0.610705733933     1.007825032230

  Running in c1 symmetry.

  Rotational constants: A =      0.00175  B =      0.00172  C =      0.00109 [cm^-1]
  Rotational constants: A =     52.48854  B =     51.56916  C =     32.56832 [MHz]
  Nuclear repulsion = 8187.154756068937786

  Charge       = 1
  Multiplicity = 1
  Electrons    = 394
  Nalpha       = 197
  Nbeta        = 197

  ==> Algorithm <==

  SCF Algorithm Type is DF.
  DIIS enabled.
  MOM disabled.
  Fractional occupation disabled.
  Guess Type is SAD.
  Energy threshold   = 1.00e-08
  Density threshold  = 1.00e-08
  Integral threshold = 1.00e-12

  ==> Primary Basis <==

  Basis Set: JUN-CC-PVDZ
    Blend: JUN-CC-PVDZ
    Number of shells: 569
    Number of basis functions: 1233
    Number of Cartesian functions: 1294
    Spherical Harmonics?: true
    Max angular momentum: 2

   => Loading Basis Set <=

    Name: (JUN-CC-PVDZ AUX)
    Role: JKFIT
    Keyword: DF_BASIS_SCF
    atoms 1-2, 4-5, 10, 17-70 entry C          line   146 file /home/gridsan/tfroembgen/.conda/envs/psi4test/share/psi4/basis/jun-cc-pvdz-jkfit.gbs 
    atoms 3, 6                entry N          line   202 file /home/gridsan/tfroembgen/.conda/envs/psi4test/share/psi4/basis/jun-cc-pvdz-jkfit.gbs 
    atoms 7-9, 11-16, 71-88   entry H          line    70 file /home/gridsan/tfroembgen/.conda/envs/psi4test/share/psi4/basis/jun-cc-pvdz-jkfit.gbs 

  ==> Integral Setup <==

  ==> DiskDFJK: Density-Fitted J/K Matrices <==

    J tasked:                  Yes
    K tasked:                  Yes
    wK tasked:                  No
    OpenMP threads:             12
    Integrals threads:          12
    Memory [MiB]:            22888
    Algorithm:                Disk
    Integral Cache:           SAVE
    Schwarz Cutoff:          1E-12
    Fitting Condition:       1E-10

   => Auxiliary Basis Set <=

  Basis Set: (JUN-CC-PVDZ AUX)
    Blend: JUN-CC-PVDZ-JKFIT
    Number of shells: 1890
    Number of basis functions: 5440
    Number of Cartesian functions: 6226
    Spherical Harmonics?: true
    Max angular momentum: 3

  Minimum eigenvalue in the overlap matrix is 8.0397518528E-10.
  Reciprocal condition number of the overlap matrix is 3.4845113051E-11.
    Using canonical orthogonalization.
  Overall, 14 of 1233 possible MOs eliminated.


  ==> Pre-Iterations <==

  SCF Guess: Superposition of Atomic Densities via on-the-fly atomic UHF (no occupation information).

   -------------------------
    Irrep   Nso     Nmo    
   -------------------------
     A       1233    1219 
   -------------------------
    Total    1233    1219
   -------------------------

  ==> Iterations <==

                           Total Energy        Delta E     RMS |[F,P]|

   @DF-RHF iter SAD: -2365.43249872040633   -2.36543e+03   0.00000e+00 
   @DF-RHF iter   1: -2358.20695574860929    7.22554e+00   9.45983e-04 DIIS/ADIIS
   @DF-RHF iter   2: -2359.10108868079305   -8.94133e-01   3.23832e-04 DIIS/ADIIS
   @DF-RHF iter   3: -2359.19266396732064   -9.15753e-02   1.19925e-04 DIIS/ADIIS
   @DF-RHF iter   4: -2359.20606895112633   -1.34050e-02   4.43595e-05 DIIS
   @DF-RHF iter   5: -2359.20798658066087   -1.91763e-03   1.05440e-05 DIIS
   @DF-RHF iter   6: -2359.20816902403931   -1.82443e-04   5.20983e-06 DIIS
   @DF-RHF iter   7: -2359.20823978628960   -7.07623e-05   2.30243e-06 DIIS
   @DF-RHF iter   8: -2359.20826070268504   -2.09164e-05   1.13403e-06 DIIS
   @DF-RHF iter   9: -2359.20826593555057   -5.23287e-06   2.73494e-07 DIIS
   @DF-RHF iter  10: -2359.20826619523359   -2.59683e-07   9.32934e-08 DIIS
   @DF-RHF iter  11: -2359.20826621399965   -1.87661e-08   3.88181e-08 DIIS
   @DF-RHF iter  12: -2359.20826621771221   -3.71256e-09   2.23889e-08 DIIS
   @DF-RHF iter  13: -2359.20826621868082   -9.68612e-10   6.55866e-09 DIIS
  Energy and wave function converged.


  ==> Post-Iterations <==

    Orbital Energies [Eh]
    ---------------------

    Doubly Occupied:                                                      

       1A    -15.812012     2A    -15.811465     3A    -11.507060  
       4A    -11.437535     5A    -11.435983     6A    -11.428036  
       7A    -11.427502     8A    -11.336225     9A    -11.335719  
      10A    -11.335522    11A    -11.334655    12A    -11.334608  
      13A    -11.333955    14A    -11.333072    15A    -11.332892  
      16A    -11.332814    17A    -11.332383    18A    -11.332303  
      19A    -11.331483    20A    -11.330813    21A    -11.330666  
      22A    -11.330612    23A    -11.330492    24A    -11.329883  
      25A    -11.329850    26A    -11.329788    27A    -11.329744  
      28A    -11.329620    29A    -11.329546    30A    -11.329205  
      31A    -11.329116    32A    -11.329062    33A    -11.329019  
      34A    -11.328830    35A    -11.328818    36A    -11.328770  
      37A    -11.328729    38A    -11.328671    39A    -11.328608  
      40A    -11.328178    41A    -11.328158    42A    -11.327626  
      43A    -11.327594    44A    -11.321987    45A    -11.321875  
      46A    -11.321632    47A    -11.321270    48A    -11.321254  
      49A    -11.320575    50A    -11.320512    51A    -11.320451  
      52A    -11.320426    53A    -11.320387    54A    -11.319317  
      55A    -11.319302    56A    -11.319073    57A    -11.319014  
      58A    -11.318990    59A    -11.318951    60A    -11.317872  
      61A    -11.317858    62A     -1.555305    63A     -1.411045  
      64A     -1.318169    65A     -1.292614    66A     -1.292179  
      67A     -1.261181    68A     -1.261126    69A     -1.253697  
      70A     -1.228133    71A     -1.220332    72A     -1.216012  
      73A     -1.207947    74A     -1.207597    75A     -1.183602  
      76A     -1.183575    77A     -1.166912    78A     -1.154274  
      79A     -1.154256    80A     -1.150424    81A     -1.136071  
      82A     -1.136065    83A     -1.110164    84A     -1.096873  
      85A     -1.096762    86A     -1.094413    87A     -1.094184  
      88A     -1.087986    89A     -1.082523    90A     -1.058559  
      91A     -1.058455    92A     -1.032242    93A     -1.032207  
      94A     -0.999968    95A     -0.974464    96A     -0.964974  
      97A     -0.964885    98A     -0.960346    99A     -0.958438  
     100A     -0.958231   101A     -0.952993   102A     -0.952922  
     103A     -0.932176   104A     -0.906381   105A     -0.894814  
     106A     -0.888798   107A     -0.888471   108A     -0.883536  
     109A     -0.883370   110A     -0.864415   111A     -0.864393  
     112A     -0.827760   113A     -0.818515   114A     -0.816371  
     115A     -0.804919   116A     -0.804701   117A     -0.802020  
     118A     -0.801939   119A     -0.794102   120A     -0.790696  
     121A     -0.787335   122A     -0.769388   123A     -0.769150  
     124A     -0.767827   125A     -0.764453   126A     -0.764214  
     127A     -0.763922   128A     -0.759583   129A     -0.730851  
     130A     -0.724001   131A     -0.722710   132A     -0.719751  
     133A     -0.719704   134A     -0.709477   135A     -0.709341  
     136A     -0.707968   137A     -0.704145   138A     -0.700576  
     139A     -0.698434   140A     -0.698390   141A     -0.694839  
     142A     -0.681726   143A     -0.673324   144A     -0.672960  
     145A     -0.669727   146A     -0.669439   147A     -0.664793  
     148A     -0.663150   149A     -0.662937   150A     -0.653772  
     151A     -0.650050   152A     -0.649333   153A     -0.637256  
     154A     -0.637054   155A     -0.636527   156A     -0.636441  
     157A     -0.629745   158A     -0.624231   159A     -0.624043  
     160A     -0.610247   161A     -0.610144   162A     -0.608087  
     163A     -0.608063   164A     -0.601589   165A     -0.600015  
     166A     -0.593193   167A     -0.592955   168A     -0.573596  
     169A     -0.569761   170A     -0.566146   171A     -0.562892  
     172A     -0.559289   173A     -0.556139   174A     -0.552206  
     175A     -0.552126   176A     -0.543463   177A     -0.542948  
     178A     -0.522953   179A     -0.522735   180A     -0.509285  
     181A     -0.509283   182A     -0.501017   183A     -0.477183  
     184A     -0.477088   185A     -0.475723   186A     -0.445198  
     187A     -0.445100   188A     -0.420286   189A     -0.411752  
     190A     -0.410763   191A     -0.410331   192A     -0.381687  
     193A     -0.366974   194A     -0.356990   195A     -0.356933  
     196A     -0.295872   197A     -0.295756  

    Virtual:                                                              

     198A     -0.056997   199A     -0.056808   200A     -0.053533  
     201A     -0.038899   202A     -0.037164   203A     -0.033179  
     204A     -0.018953   205A     -0.015280   206A     -0.011174  
     207A     -0.008965   208A     -0.007525   209A     -0.007362  
     210A     -0.005000   211A     -0.001625   212A      0.000643  
     213A      0.000989   214A      0.002256   215A      0.002884  
     216A      0.005793   217A      0.013473   218A      0.015328  
     219A      0.016253   220A      0.017026   221A      0.017780  
     222A      0.018769   223A      0.020207   224A      0.020392  
     225A      0.020537   226A      0.020941   227A      0.022226  
     228A      0.023164   229A      0.029544   230A      0.032338  
     231A      0.036069   232A      0.036178   233A      0.036772  
     234A      0.043417   235A      0.043916   236A      0.046785  
     237A      0.049806   238A      0.051054   239A      0.051550  
     240A      0.052595   241A      0.053845   242A      0.054594  
     243A      0.056299   244A      0.057327   245A      0.057690  
     246A      0.060413   247A      0.063264   248A      0.068401  
     249A      0.069700   250A      0.074742   251A      0.075012  
     252A      0.078081   253A      0.078756   254A      0.079114  
     255A      0.080336   256A      0.081474   257A      0.083338  
     258A      0.086358   259A      0.090180   260A      0.091309  
     261A      0.092596   262A      0.093405   263A      0.096536  
     264A      0.099256   265A      0.102439   266A      0.103784  
     267A      0.104327   268A      0.104772   269A      0.108712  
     270A      0.110979   271A      0.113190   272A      0.114519  
     273A      0.115434   274A      0.118092   275A      0.119677  
     276A      0.120418   277A      0.122257   278A      0.124763  
     279A      0.125565   280A      0.126666   281A      0.128551  
     282A      0.130405   283A      0.130561   284A      0.132734  
     285A      0.135685   286A      0.137814   287A      0.142474  
     288A      0.143840   289A      0.145586   290A      0.146412  
     291A      0.149143   292A      0.150738   293A      0.151592  
     294A      0.152265   295A      0.152546   296A      0.153467  
     297A      0.153533   298A      0.153758   299A      0.155563  
     300A      0.160464   301A      0.161681   302A      0.162228  
     303A      0.163814   304A      0.166261   305A      0.166808  
     306A      0.168508   307A      0.169354   308A      0.170882  
     309A      0.172244   310A      0.173844   311A      0.174663  
     312A      0.174918   313A      0.177153   314A      0.180073  
     315A      0.182063   316A      0.185072   317A      0.185878  
     318A      0.186755   319A      0.191138   320A      0.192144  
     321A      0.193192   322A      0.193903   323A      0.194227  
     324A      0.195056   325A      0.197951   326A      0.200105  
     327A      0.201214   328A      0.202391   329A      0.202750  
     330A      0.204693   331A      0.206526   332A      0.208183  
     333A      0.209208   334A      0.209395   335A      0.210353  
     336A      0.210915   337A      0.214504   338A      0.217091  
     339A      0.217627   340A      0.219760   341A      0.221921  
     342A      0.226580   343A      0.227427   344A      0.229705  
     345A      0.231385   346A      0.234526   347A      0.235517  
     348A      0.237458   349A      0.239063   350A      0.240587  
     351A      0.241253   352A      0.242730   353A      0.242998  
     354A      0.244210   355A      0.247103   356A      0.247788  
     357A      0.248100   358A      0.249178   359A      0.249363  
     360A      0.251323   361A      0.251523   362A      0.253721  
     363A      0.255959   364A      0.257716   365A      0.258278  
     366A      0.258529   367A      0.260847   368A      0.261743  
     369A      0.265242   370A      0.266549   371A      0.269583  
     372A      0.272759   373A      0.273371   374A      0.273689  
     375A      0.275043   376A      0.275796   377A      0.278167  
     378A      0.279886   379A      0.282087   380A      0.284105  
     381A      0.286140   382A      0.288247   383A      0.288920  
     384A      0.289494   385A      0.289669   386A      0.291307  
     387A      0.291383   388A      0.295752   389A      0.298062  
     390A      0.298959   391A      0.301216   392A      0.301718  
     393A      0.303594   394A      0.306634   395A      0.307728  
     396A      0.308484   397A      0.310457   398A      0.312470  
     399A      0.313940   400A      0.315863   401A      0.317019  
     402A      0.319746   403A      0.321435   404A      0.322403  
     405A      0.323389   406A      0.324663   407A      0.325178  
     408A      0.327332   409A      0.330046   410A      0.330957  
     411A      0.331632   412A      0.332897   413A      0.334029  
     414A      0.334492   415A      0.335205   416A      0.337615  
     417A      0.338673   418A      0.340040   419A      0.341571  
     420A      0.341856   421A      0.342588   422A      0.342710  
     423A      0.343061   424A      0.345524   425A      0.347471  
     426A      0.347709   427A      0.349363   428A      0.352285  
     429A      0.352851   430A      0.354761   431A      0.355796  
     432A      0.356943   433A      0.361003   434A      0.362608  
     435A      0.367098   436A      0.367486   437A      0.369752  
     438A      0.372905   439A      0.373945   440A      0.375704  
     441A      0.376722   442A      0.377960   443A      0.378712  
     444A      0.381913   445A      0.384802   446A      0.386969  
     447A      0.387427   448A      0.388279   449A      0.389389  
     450A      0.389634   451A      0.391770   452A      0.392328  
     453A      0.392650   454A      0.393803   455A      0.394763  
     456A      0.400346   457A      0.404483   458A      0.405588  
     459A      0.407480   460A      0.409583   461A      0.410712  
     462A      0.412188   463A      0.412451   464A      0.413198  
     465A      0.416606   466A      0.418897   467A      0.422226  
     468A      0.425717   469A      0.426838   470A      0.428879  
     471A      0.429488   472A      0.430254   473A      0.431405  
     474A      0.431987   475A      0.434023   476A      0.438533  
     477A      0.439180   478A      0.444636   479A      0.445070  
     480A      0.447697   481A      0.448560   482A      0.451087  
     483A      0.452221   484A      0.452776   485A      0.455296  
     486A      0.458599   487A      0.459203   488A      0.463536  
     489A      0.468568   490A      0.469166   491A      0.472549  
     492A      0.477889   493A      0.480465   494A      0.480944  
     495A      0.481882   496A      0.482382   497A      0.483315  
     498A      0.485259   499A      0.487441   500A      0.488297  
     501A      0.489163   502A      0.489436   503A      0.490811  
     504A      0.493918   505A      0.494475   506A      0.502249  
     507A      0.504290   508A      0.512769   509A      0.521033  
     510A      0.524574   511A      0.527284   512A      0.528015  
     513A      0.528355   514A      0.529150   515A      0.541408  
     516A      0.545768   517A      0.549285   518A      0.552383  
     519A      0.554214   520A      0.554783   521A      0.557837  
     522A      0.559397   523A      0.573104   524A      0.580858  
     525A      0.584184   526A      0.584890   527A      0.597456  
     528A      0.600306   529A      0.600964   530A      0.607896  
     531A      0.607991   532A      0.616715   533A      0.646677  
     534A      0.646766   535A      0.662809   536A      0.668035  
     537A      0.671250   538A      0.673719   539A      0.674555  
     540A      0.675609   541A      0.676522   542A      0.687360  
     543A      0.687925   544A      0.689118   545A      0.695856  
     546A      0.703691   547A      0.706278   548A      0.708810  
     549A      0.717856   550A      0.721886   551A      0.726380  
     552A      0.727863   553A      0.730035   554A      0.732473  
     555A      0.737961   556A      0.740124   557A      0.746538  
     558A      0.749748   559A      0.750359   560A      0.756854  
     561A      0.758870   562A      0.759509   563A      0.761273  
     564A      0.762769   565A      0.764874   566A      0.771857  
     567A      0.774883   568A      0.781151   569A      0.786361  
     570A      0.788777   571A      0.788976   572A      0.789884  
     573A      0.794259   574A      0.795658   575A      0.795963  
     576A      0.799758   577A      0.807733   578A      0.810014  
     579A      0.810357   580A      0.812585   581A      0.814978  
     582A      0.818756   583A      0.820479   584A      0.822633  
     585A      0.823551   586A      0.826778   587A      0.829810  
     588A      0.831094   589A      0.831212   590A      0.834848  
     591A      0.835851   592A      0.841646   593A      0.843183  
     594A      0.844194   595A      0.845929   596A      0.847390  
     597A      0.850298   598A      0.852724   599A      0.855186  
     600A      0.858320   601A      0.860004   602A      0.861304  
     603A      0.863343   604A      0.865147   605A      0.866716  
     606A      0.868785   607A      0.871055   608A      0.873124  
     609A      0.874943   610A      0.878185   611A      0.880210  
     612A      0.882571   613A      0.885580   614A      0.890315  
     615A      0.894781   616A      0.895023   617A      0.898072  
     618A      0.900223   619A      0.903768   620A      0.904376  
     621A      0.905541   622A      0.907456   623A      0.908796  
     624A      0.909788   625A      0.910992   626A      0.914818  
     627A      0.916673   628A      0.917106   629A      0.922136  
     630A      0.924717   631A      0.929042   632A      0.933908  
     633A      0.935531   634A      0.938198   635A      0.939174  
     636A      0.943351   637A      0.945618   638A      0.948795  
     639A      0.950627   640A      0.951797   641A      0.952212  
     642A      0.954083   643A      0.955729   644A      0.956737  
     645A      0.962113   646A      0.963652   647A      0.968520  
     648A      0.972050   649A      0.972724   650A      0.973028  
     651A      0.975029   652A      0.975710   653A      0.976192  
     654A      0.978801   655A      0.979566   656A      0.980224  
     657A      0.981901   658A      0.983760   659A      0.985231  
     660A      0.987318   661A      0.990754   662A      0.990877  
     663A      0.991398   664A      0.992383   665A      0.995099  
     666A      1.001756   667A      1.003817   668A      1.007004  
     669A      1.008495   670A      1.010711   671A      1.012383  
     672A      1.013990   673A      1.015068   674A      1.016595  
     675A      1.020792   676A      1.021957   677A      1.022808  
     678A      1.026696   679A      1.032699   680A      1.035021  
     681A      1.036579   682A      1.037850   683A      1.040513  
     684A      1.042403   685A      1.045295   686A      1.046658  
     687A      1.047200   688A      1.047488   689A      1.049430  
     690A      1.050936   691A      1.052697   692A      1.055514  
     693A      1.058072   694A      1.062447   695A      1.065716  
     696A      1.067427   697A      1.069047   698A      1.070741  
     699A      1.072795   700A      1.074021   701A      1.075370  
     702A      1.078525   703A      1.081046   704A      1.088924  
     705A      1.090396   706A      1.098988   707A      1.099857  
     708A      1.103045   709A      1.105161   710A      1.110390  
     711A      1.113104   712A      1.114648   713A      1.116901  
     714A      1.121146   715A      1.122752   716A      1.126680  
     717A      1.128213   718A      1.129686   719A      1.134484  
     720A      1.136987   721A      1.144369   722A      1.148679  
     723A      1.149536   724A      1.152601   725A      1.154717  
     726A      1.158627   727A      1.160114   728A      1.165881  
     729A      1.171439   730A      1.173329   731A      1.177071  
     732A      1.179215   733A      1.189938   734A      1.192596  
     735A      1.193725   736A      1.194195   737A      1.195387  
     738A      1.197276   739A      1.197956   740A      1.200470  
     741A      1.201050   742A      1.201925   743A      1.204420  
     744A      1.211065   745A      1.217146   746A      1.221381  
     747A      1.226970   748A      1.228926   749A      1.232681  
     750A      1.234210   751A      1.235635   752A      1.241261  
     753A      1.242892   754A      1.244276   755A      1.244970  
     756A      1.251628   757A      1.255303   758A      1.256856  
     759A      1.259384   760A      1.260151   761A      1.260792  
     762A      1.261345   763A      1.271329   764A      1.276158  
     765A      1.277143   766A      1.281481   767A      1.282284  
     768A      1.283655   769A      1.285622   770A      1.286422  
     771A      1.295733   772A      1.295964   773A      1.296492  
     774A      1.298083   775A      1.311406   776A      1.311501  
     777A      1.314622   778A      1.319670   779A      1.324214  
     780A      1.337561   781A      1.339075   782A      1.339894  
     783A      1.340573   784A      1.344418   785A      1.345047  
     786A      1.348703   787A      1.353216   788A      1.354726  
     789A      1.357400   790A      1.359314   791A      1.362071  
     792A      1.363111   793A      1.367700   794A      1.369672  
     795A      1.371545   796A      1.372720   797A      1.377462  
     798A      1.379192   799A      1.380256   800A      1.381725  
     801A      1.383729   802A      1.385643   803A      1.395960  
     804A      1.404542   805A      1.408644   806A      1.412984  
     807A      1.416081   808A      1.443388   809A      1.447698  
     810A      1.450213   811A      1.450742   812A      1.453549  
     813A      1.457673   814A      1.468414   815A      1.479613  
     816A      1.480691   817A      1.511618   818A      1.515771  
     819A      1.525502   820A      1.530719   821A      1.532358  
     822A      1.532973   823A      1.536619   824A      1.538714  
     825A      1.539107   826A      1.539338   827A      1.541209  
     828A      1.545830   829A      1.548016   830A      1.552616  
     831A      1.558500   832A      1.561987   833A      1.566029  
     834A      1.569215   835A      1.571521   836A      1.571933  
     837A      1.572658   838A      1.574647   839A      1.577956  
     840A      1.584096   841A      1.585720   842A      1.591630  
     843A      1.592062   844A      1.597696   845A      1.603832  
     846A      1.604570   847A      1.605035   848A      1.605256  
     849A      1.608654   850A      1.609145   851A      1.614563  
     852A      1.616480   853A      1.616879   854A      1.627567  
     855A      1.627708   856A      1.629166   857A      1.629368  
     858A      1.631858   859A      1.632111   860A      1.632227  
     861A      1.647244   862A      1.647894   863A      1.648880  
     864A      1.668944   865A      1.670783   866A      1.680164  
     867A      1.691850   868A      1.692574   869A      1.693079  
     870A      1.693953   871A      1.703233   872A      1.706610  
     873A      1.707467   874A      1.721185   875A      1.722254  
     876A      1.724216   877A      1.735932   878A      1.747524  
     879A      1.748302   880A      1.748425   881A      1.750789  
     882A      1.752757   883A      1.753027   884A      1.756399  
     885A      1.762375   886A      1.764166   887A      1.770767  
     888A      1.772196   889A      1.777730   890A      1.779636  
     891A      1.787378   892A      1.793309   893A      1.794878  
     894A      1.796824   895A      1.797440   896A      1.798365  
     897A      1.800061   898A      1.803066   899A      1.808293  
     900A      1.808545   901A      1.813807   902A      1.815797  
     903A      1.825910   904A      1.826802   905A      1.829263  
     906A      1.831776   907A      1.835226   908A      1.835675  
     909A      1.839105   910A      1.839247   911A      1.846770  
     912A      1.847525   913A      1.848222   914A      1.849909  
     915A      1.850500   916A      1.851509   917A      1.852263  
     918A      1.854011   919A      1.865246   920A      1.868944  
     921A      1.873346   922A      1.876148   923A      1.876402  
     924A      1.877381   925A      1.883334   926A      1.883571  
     927A      1.885360   928A      1.885990   929A      1.887104  
     930A      1.887657   931A      1.889025   932A      1.895512  
     933A      1.909785   934A      1.913026   935A      1.914590  
     936A      1.916065   937A      1.922411   938A      1.926883  
     939A      1.929379   940A      1.931336   941A      1.933383  
     942A      1.936011   943A      1.936669   944A      1.941647  
     945A      1.944334   946A      1.946057   947A      1.947156  
     948A      1.957401   949A      1.960691   950A      1.961477  
     951A      1.962683   952A      1.964623   953A      1.965221  
     954A      1.965688   955A      1.980007   956A      1.983753  
     957A      1.984314   958A      1.986639   959A      1.990332  
     960A      1.991305   961A      1.992543   962A      1.994308  
     963A      2.001959   964A      2.003274   965A      2.004415  
     966A      2.005271   967A      2.008963   968A      2.010492  
     969A      2.014219   970A      2.017562   971A      2.020430  
     972A      2.025263   973A      2.025601   974A      2.026162  
     975A      2.028547   976A      2.030408   977A      2.031568  
     978A      2.032449   979A      2.039610   980A      2.040718  
     981A      2.041080   982A      2.043663   983A      2.045360  
     984A      2.047434   985A      2.048253   986A      2.049379  
     987A      2.050836   988A      2.051033   989A      2.051679  
     990A      2.055941   991A      2.058984   992A      2.061364  
     993A      2.064360   994A      2.066654   995A      2.067531  
     996A      2.067668   997A      2.073767   998A      2.074538  
     999A      2.084721  1000A      2.087123  1001A      2.090088  
    1002A      2.091406  1003A      2.092418  1004A      2.093131  
    1005A      2.099679  1006A      2.111077  1007A      2.114541  
    1008A      2.120894  1009A      2.121571  1010A      2.122700  
    1011A      2.122820  1012A      2.124324  1013A      2.125489  
    1014A      2.127970  1015A      2.135714  1016A      2.147941  
    1017A      2.148560  1018A      2.148849  1019A      2.149369  
    1020A      2.155598  1021A      2.160120  1022A      2.162107  
    1023A      2.164949  1024A      2.175783  1025A      2.176201  
    1026A      2.177148  1027A      2.177284  1028A      2.179131  
    1029A      2.181816  1030A      2.192792  1031A      2.192892  
    1032A      2.197458  1033A      2.200700  1034A      2.200970  
    1035A      2.203980  1036A      2.204479  1037A      2.213631  
    1038A      2.218505  1039A      2.232001  1040A      2.237033  
    1041A      2.239400  1042A      2.242890  1043A      2.247022  
    1044A      2.251401  1045A      2.256361  1046A      2.258224  
    1047A      2.258250  1048A      2.258872  1049A      2.261331  
    1050A      2.265320  1051A      2.280378  1052A      2.280692  
    1053A      2.282954  1054A      2.283843  1055A      2.295351  
    1056A      2.295936  1057A      2.296541  1058A      2.303472  
    1059A      2.313025  1060A      2.336178  1061A      2.347113  
    1062A      2.353323  1063A      2.354024  1064A      2.354283  
    1065A      2.361443  1066A      2.367059  1067A      2.370104  
    1068A      2.371372  1069A      2.377363  1070A      2.399948  
    1071A      2.405086  1072A      2.405729  1073A      2.416953  
    1074A      2.417077  1075A      2.432575  1076A      2.450569  
    1077A      2.459662  1078A      2.461094  1079A      2.475692  
    1080A      2.477465  1081A      2.477579  1082A      2.477929  
    1083A      2.482539  1084A      2.487494  1085A      2.487649  
    1086A      2.489821  1087A      2.490118  1088A      2.501211  
    1089A      2.502329  1090A      2.502453  1091A      2.507681  
    1092A      2.507895  1093A      2.516361  1094A      2.516687  
    1095A      2.516947  1096A      2.520297  1097A      2.524476  
    1098A      2.538471  1099A      2.541750  1100A      2.555762  
    1101A      2.556276  1102A      2.558697  1103A      2.561228  
    1104A      2.561891  1105A      2.573096  1106A      2.573975  
    1107A      2.583876  1108A      2.584486  1109A      2.588190  
    1110A      2.609253  1111A      2.613600  1112A      2.614422  
    1113A      2.615383  1114A      2.620692  1115A      2.629898  
    1116A      2.630688  1117A      2.641332  1118A      2.641781  
    1119A      2.647033  1120A      2.647464  1121A      2.648414  
    1122A      2.653804  1123A      2.654547  1124A      2.669093  
    1125A      2.682580  1126A      2.685130  1127A      2.686320  
    1128A      2.694582  1129A      2.705685  1130A      2.711936  
    1131A      2.720580  1132A      2.724722  1133A      2.724946  
    1134A      2.743107  1135A      2.748207  1136A      2.754731  
    1137A      2.757763  1138A      2.762148  1139A      2.782970  
    1140A      2.783452  1141A      2.784140  1142A      2.785290  
    1143A      2.785417  1144A      2.790294  1145A      2.790906  
    1146A      2.795911  1147A      2.801524  1148A      2.827021  
    1149A      2.851552  1150A      2.852026  1151A      2.857126  
    1152A      2.865327  1153A      2.867203  1154A      2.882180  
    1155A      2.882482  1156A      2.894999  1157A      2.943034  
    1158A      2.944078  1159A      2.944991  1160A      2.961405  
    1161A      2.973739  1162A      2.992566  1163A      2.992632  
    1164A      3.000445  1165A      3.001354  1166A      3.016356  
    1167A      3.042128  1168A      3.043998  1169A      3.060242  
    1170A      3.061468  1171A      3.061706  1172A      3.068388  
    1173A      3.074636  1174A      3.077994  1175A      3.078488  
    1176A      3.079447  1177A      3.081221  1178A      3.081505  
    1179A      3.087688  1180A      3.091258  1181A      3.091760  
    1182A      3.098025  1183A      3.098811  1184A      3.123709  
    1185A      3.142936  1186A      3.148818  1187A      3.169182  
    1188A      3.203605  1189A      3.206734  1190A      3.206889  
    1191A      3.213239  1192A      3.213603  1193A      3.345599  
    1194A      3.346681  1195A      3.366915  1196A      3.411136  
    1197A      3.413276  1198A      3.474233  1199A      3.480003  
    1200A      3.506411  1201A      3.508999  1202A      3.525459  
    1203A      3.556823  1204A      3.558747  1205A      3.565155  
    1206A      3.592955  1207A      3.601017  1208A      3.699411  
    1209A      3.712068  1210A      3.714042  1211A      3.801469  
    1212A      3.801790  1213A      3.843505  1214A      3.843676  
    1215A      3.905033  1216A      3.938839  1217A      3.967865  
    1218A      3.979768  1219A      4.014843  

    Final Occupation by Irrep:
              A 
    DOCC [   197 ]
    NA   [   197 ]
    NB   [   197 ]

  @DF-RHF Final Energy: -2359.20826621868082

   => Energetics <=

    Nuclear Repulsion Energy =           8187.1547560689377860
    One-Electron Energy =              -19475.8557044406443310
    Two-Electron Energy =                8929.4926821530261805
    Total Energy =                      -2359.2082662186803645

Computation Completed


Properties will be evaluated at   0.000000,   0.000000,   0.000000 [a0]

Properties computed using the SCF density matrix


 Multipole Moments:

 ------------------------------------------------------------------------------------
     Multipole            Electronic (a.u.)      Nuclear  (a.u.)        Total (a.u.)
 ------------------------------------------------------------------------------------

 L = 1.  Multiply by 2.5417464519 to convert [e a0] to [Debye]
 Dipole X            :          0.0038671            0.0006313            0.0044984
 Dipole Y            :         -1.5591330            1.8864948            0.3273618
 Dipole Z            :        -18.2693894           24.9649356            6.6955463
 Magnitude           :                                                    6.7035458

 ------------------------------------------------------------------------------------

*** tstop() called on d-16-12-3 at Mon Jan 22 17:10:00 2024
Module time:
	user time   =    4276.59 seconds =      71.28 minutes
	system time =     237.10 seconds =       3.95 minutes
	total time  =       1160 seconds =      19.33 minutes
Total time:
	user time   =    4276.59 seconds =      71.28 minutes
	system time =     237.10 seconds =       3.95 minutes
	total time  =       1160 seconds =      19.33 minutes

  //>>>>>>>>>>>>>>>>>>>>>>>>>>>>>>>>>>>//
  //            Monomer A HF           //
  //<<<<<<<<<<<<<<<<<<<<<<<<<<<<<<<<<<<//

   => Libint2 <=

    Primary   basis highest AM E, G, H:  7, 7, 4
    Auxiliary basis highest AM E, G, H:  7, 7, 5
    Onebody   basis highest AM E, G, H:  7, 7, 5
    Solid Harmonics ordering:            gaussian

*** tstart() called on d-16-12-3
*** at Mon Jan 22 17:10:00 2024

   => Loading Basis Set <=

    Name: JUN-CC-PVDZ
    Role: ORBITAL
    Keyword: BASIS
    atoms 1-2, 4-5, 10, 17-70 entry C          line   164 file /home/gridsan/tfroembgen/.conda/envs/psi4test/share/psi4/basis/jun-cc-pvdz.gbs 
    atoms 3, 6                entry N          line   198 file /home/gridsan/tfroembgen/.conda/envs/psi4test/share/psi4/basis/jun-cc-pvdz.gbs 
    atoms 7-9, 11-16, 71-88   entry H          line    36 file /home/gridsan/tfroembgen/.conda/envs/psi4test/share/psi4/basis/jun-cc-pvdz.gbs 


         ---------------------------------------------------------
                                   SCF
               by Justin Turney, Rob Parrish, Andy Simmonett
                          and Daniel G. A. Smith
                              RHF Reference
                       12 Threads,  30517 MiB Core
         ---------------------------------------------------------

  ==> Geometry <==

    Molecular point group: c1
    Full point group: C1

    Geometry (in Angstrom), charge = 1, multiplicity = 1:

       Center              X                  Y                   Z               Mass       
    ------------   -----------------  -----------------  -----------------  -----------------
         C            0.680066520158    -1.215933861162     4.197513631878    12.000000000000
         C           -0.680504479842    -1.215549861162     4.195485631878    12.000000000000
         N           -1.085635479842     0.102774138838     4.194487631878    14.003074004430
         C            0.000107520158     0.884175138838     4.191211631878    12.000000000000
         C           -2.477365479842     0.570753138838     4.145081631878    12.000000000000
         N            1.085221520158     0.102774138838     4.194487631878    14.003074004430
         H            1.385145520158    -2.033372861162     4.205341631878     1.007825032230
         H           -1.385302479842    -2.033218861162     4.195675631878     1.007825032230
         H           -0.000009479842     1.965264138838     4.189464631878     1.007825032230
         C            2.478116520158     0.567872138838     4.211379631878    12.000000000000
         H            2.490591520158     1.658125138838     4.184034631878     1.007825032230
         H            2.967027520158     0.220696138838     5.124825631878     1.007825032230
         H            3.001427520158     0.176400138838     3.335896631878     1.007825032230
         H           -2.857359479842     0.490794138838     3.123010631878     1.007825032230
         H           -3.082679479842    -0.042310861162     4.815165631878     1.007825032230
         H           -2.518128479842     1.610701138838     4.472065631878     1.007825032230
      Gh(C)           1.225311895423     0.707533799757    -0.604390740838    12.000000000000
      Gh(C)           1.225323856051    -0.707543383733    -0.616721550408    12.000000000000
      Gh(C)          -0.000006153932     1.414961424928    -0.617255173929    12.000000000000
      Gh(C)           2.456448753949     1.418323398016    -0.601503883438    12.000000000000
      Gh(C)           0.000010827279    -1.414980987797    -0.607055616604    12.000000000000
      Gh(C)          -1.225300948908     0.707540884822    -0.602139220515    12.000000000000
      Gh(C)           2.456437755320    -1.418327793043    -0.618966707265    12.000000000000
      Gh(C)          -0.000001332978     2.836796542119    -0.619658724063    12.000000000000
      Gh(C)           3.681826697470     0.709313466839    -0.618617917467    12.000000000000
      Gh(C)           2.455120048865     2.834219172327    -0.618720474428    12.000000000000
      Gh(C)           3.681821105219    -0.709338328591    -0.602545433449    12.000000000000
      Gh(C)          -1.225313598688    -0.707532004706    -0.615648788981    12.000000000000
      Gh(C)           1.226699581202     3.543464994832    -0.602361401518    12.000000000000
      Gh(C)           0.000004784858    -2.836786628398    -0.602207448983    12.000000000000
      Gh(C)          -2.456436032848     1.418312429123    -0.602103824670    12.000000000000
      Gh(C)           2.455123417779    -2.834234517751    -0.602697341816    12.000000000000
      Gh(C)          -1.226714364589     3.543464574588    -0.602258068299    12.000000000000
      Gh(C)           4.914517295202     1.427168383327    -0.612137234438    12.000000000000
      Gh(C)           3.693150191476     3.542790803383    -0.612087434801    12.000000000000
      Gh(C)          -2.456437600068    -1.418317770001    -0.618991745390    12.000000000000
      Gh(C)           1.226704841943    -3.543478731069    -0.618331532268    12.000000000000
      Gh(C)          -2.455125398508     2.834212173472    -0.618714098082    12.000000000000
      Gh(C)           4.914524380782    -1.427191399106    -0.609164491703    12.000000000000
      Gh(C)           1.221424613699     4.970129576098    -0.609026057443    12.000000000000
      Gh(C)           4.893008229321     2.825183510864    -0.610920566079    12.000000000000
      Gh(C)          -1.226697008489    -3.543475486239    -0.618064327858    12.000000000000
      Gh(C)          -3.681818976526     0.709320477570    -0.618605236987    12.000000000000
      Gh(C)           3.693147101150    -3.542805830553    -0.609046601142    12.000000000000
      Gh(C)          -1.221432251994     4.970123808701    -0.608842562071    12.000000000000
      Gh(C)           6.134770972926     0.680543457943    -0.611367459888    12.000000000000
      Gh(C)           3.656788880610     4.972948754405    -0.611178797019    12.000000000000
      Gh(C)          -2.455126907733    -2.834219582223    -0.602941699614    12.000000000000
      Gh(C)          -3.681819179061    -0.709330192631    -0.602427811870    12.000000000000
      Gh(C)           4.893012617914    -2.825204594794    -0.610309414183    12.000000000000
      Gh(C)          -0.000001073113     5.650442876870    -0.610073870778    12.000000000000
      Gh(C)           6.134775112332    -0.680559343237    -0.610102139372    12.000000000000
      Gh(C)           2.478131482856     5.653572262169    -0.609890017369    12.000000000000
      Gh(C)           1.221422404738    -4.970131544095    -0.611825554466    12.000000000000
      Gh(C)          -3.693162383965     3.542792465030    -0.611921927342    12.000000000000
      Gh(C)          -1.221428520945    -4.970122792758    -0.611938316299    12.000000000000
      Gh(C)          -4.914521807942     1.427170957833    -0.612060289430    12.000000000000
      Gh(C)           3.656787019679    -4.972959715401    -0.609728296485    12.000000000000
      Gh(C)          -2.478138530106     5.653569933366    -0.609605492360    12.000000000000
      Gh(C)          -3.693141738564    -3.542794708141    -0.609162727298    12.000000000000
      Gh(C)          -4.914512483053    -1.427185489190    -0.609129794529    12.000000000000
      Gh(C)          -0.000006008926    -5.650442776176    -0.610469374899    12.000000000000
      Gh(C)          -4.893020484101     2.825184109757    -0.610930647939    12.000000000000
      Gh(C)           2.478125993298    -5.653578033051    -0.610818897277    12.000000000000
      Gh(C)          -3.656798710258     4.972951692879    -0.611002116644    12.000000000000
      Gh(C)          -4.892999478856    -2.825196256222    -0.610463449881    12.000000000000
      Gh(C)          -2.478128498083    -5.653570659169    -0.611094084924    12.000000000000
      Gh(C)          -6.134770503331     0.680544277094    -0.611393011590    12.000000000000
      Gh(C)          -3.656788833189    -4.972948512133    -0.609942584301    12.000000000000
      Gh(C)          -6.134765042913    -0.680558404644    -0.610122615167    12.000000000000
      Gh(H)           5.835288495816     3.369271405792    -0.606561240416     1.007825032230
      Gh(H)           7.073859172747     1.228212759737    -0.610905816495     1.007825032230
      Gh(H)           4.600663264174     5.512376313291    -0.610673596267     1.007825032230
      Gh(H)           5.835283387305    -3.369310545891    -0.614763881498     1.007825032230
      Gh(H)          -0.000012151306     6.738526184974    -0.614423115785     1.007825032230
      Gh(H)           7.073861171831    -1.228231431906    -0.610610877466     1.007825032230
      Gh(H)           2.473313731799     6.740679802232    -0.610356738299     1.007825032230
      Gh(H)           4.600668491381    -5.512380618338    -0.610138293653     1.007825032230
      Gh(H)          -2.473318680537     6.740677230444    -0.610055391674     1.007825032230
      Gh(H)          -0.000010268228    -6.738532665614    -0.605939689914     1.007825032230
      Gh(H)          -5.835301914343     3.369266461134    -0.606425218268     1.007825032230
      Gh(H)           2.473307923831    -6.740689863591    -0.610248566852     1.007825032230
      Gh(H)          -4.600674841208     5.512373537441    -0.610508267943     1.007825032230
      Gh(H)          -5.835279506835    -3.369293452942    -0.615043187379     1.007825032230
      Gh(H)          -2.473300347440    -6.740683567302    -0.610697883397     1.007825032230
      Gh(H)          -7.073857766768     1.228215983678    -0.610989807975     1.007825032230
      Gh(H)          -4.600673786085    -5.512367158949    -0.610310601676     1.007825032230
      Gh(H)          -7.073856934409    -1.228225121139    -0.610705733933     1.007825032230

  Running in c1 symmetry.

  Rotational constants: A =      0.00175  B =      0.00172  C =      0.00109 [cm^-1]
  Rotational constants: A =     52.48854  B =     51.56916  C =     32.56832 [MHz]
  Nuclear repulsion =  306.774908447733026

  Charge       = 1
  Multiplicity = 1
  Electrons    = 52
  Nalpha       = 26
  Nbeta        = 26

  ==> Algorithm <==

  SCF Algorithm Type is DF.
  DIIS enabled.
  MOM disabled.
  Fractional occupation disabled.
  Guess Type is SAD.
  Energy threshold   = 1.00e-08
  Density threshold  = 1.00e-08
  Integral threshold = 1.00e-12

  ==> Primary Basis <==

  Basis Set: JUN-CC-PVDZ
    Blend: JUN-CC-PVDZ
    Number of shells: 569
    Number of basis functions: 1233
    Number of Cartesian functions: 1294
    Spherical Harmonics?: true
    Max angular momentum: 2

   => Loading Basis Set <=

    Name: (JUN-CC-PVDZ AUX)
    Role: JKFIT
    Keyword: DF_BASIS_SCF
    atoms 1-2, 4-5, 10, 17-70 entry C          line   146 file /home/gridsan/tfroembgen/.conda/envs/psi4test/share/psi4/basis/jun-cc-pvdz-jkfit.gbs 
    atoms 3, 6                entry N          line   202 file /home/gridsan/tfroembgen/.conda/envs/psi4test/share/psi4/basis/jun-cc-pvdz-jkfit.gbs 
    atoms 7-9, 11-16, 71-88   entry H          line    70 file /home/gridsan/tfroembgen/.conda/envs/psi4test/share/psi4/basis/jun-cc-pvdz-jkfit.gbs 

  ==> Integral Setup <==

  ==> DiskDFJK: Density-Fitted J/K Matrices <==

    J tasked:                  Yes
    K tasked:                  Yes
    wK tasked:                  No
    OpenMP threads:             12
    Integrals threads:          12
    Memory [MiB]:            22888
    Algorithm:                Disk
    Integral Cache:           LOAD
    Schwarz Cutoff:          1E-12
    Fitting Condition:       1E-10

   => Auxiliary Basis Set <=

  Basis Set: (JUN-CC-PVDZ AUX)
    Blend: JUN-CC-PVDZ-JKFIT
    Number of shells: 1890
    Number of basis functions: 5440
    Number of Cartesian functions: 6226
    Spherical Harmonics?: true
    Max angular momentum: 3

  Minimum eigenvalue in the overlap matrix is 8.0397518528E-10.
  Reciprocal condition number of the overlap matrix is 3.4845113051E-11.
    Using canonical orthogonalization.
  Overall, 14 of 1233 possible MOs eliminated.


  ==> Pre-Iterations <==

  SCF Guess: Superposition of Atomic Densities via on-the-fly atomic UHF (no occupation information).

   -------------------------
    Irrep   Nso     Nmo    
   -------------------------
     A       1233    1219 
   -------------------------
    Total    1233    1219
   -------------------------

  ==> Iterations <==

                           Total Energy        Delta E     RMS |[F,P]|

   @DF-RHF iter SAD:  -303.36535329160932   -3.03365e+02   0.00000e+00 
   @DF-RHF iter   1:  -303.17004767578072    1.95306e-01   3.44444e-04 DIIS/ADIIS
   @DF-RHF iter   2:  -303.28441411438649   -1.14366e-01   1.15956e-04 DIIS/ADIIS
   @DF-RHF iter   3:  -303.29588942944628   -1.14753e-02   4.53972e-05 DIIS
   @DF-RHF iter   4:  -303.29780062582557   -1.91120e-03   9.92525e-06 DIIS
   @DF-RHF iter   5:  -303.29790731381314   -1.06688e-04   2.42806e-06 DIIS
   @DF-RHF iter   6:  -303.29791673750702   -9.42369e-06   6.58376e-07 DIIS
   @DF-RHF iter   7:  -303.29791782913054   -1.09162e-06   3.35392e-07 DIIS
   @DF-RHF iter   8:  -303.29791808744278   -2.58312e-07   1.34875e-07 DIIS
   @DF-RHF iter   9:  -303.29791813700706   -4.95643e-08   3.40511e-08 DIIS
   @DF-RHF iter  10:  -303.29791813988908   -2.88202e-09   1.27560e-08 DIIS
   @DF-RHF iter  11:  -303.29791814013743   -2.48349e-10   3.00921e-09 DIIS
  Energy and wave function converged.


  ==> Post-Iterations <==

    Orbital Energies [Eh]
    ---------------------

    Doubly Occupied:                                                      

       1A    -15.834521     2A    -15.833989     3A    -11.529384  
       4A    -11.459767     5A    -11.458212     6A    -11.449588  
       7A    -11.449466     8A     -1.577908     9A     -1.433528  
      10A     -1.238369    11A     -1.189086    12A     -1.118692  
      13A     -1.022248    14A     -0.996679    15A     -0.916810  
      16A     -0.850371    17A     -0.816014    18A     -0.812911  
      19A     -0.789879    20A     -0.786107    21A     -0.781538  
      22A     -0.729537    23A     -0.725634    24A     -0.717020  
      25A     -0.596053    26A     -0.523682  

    Virtual:                                                              

      27A     -0.078002    28A     -0.069399    29A     -0.061887  
      30A     -0.059910    31A     -0.041586    32A     -0.040457  
      33A     -0.038395    34A     -0.038034    35A     -0.034519  
      36A     -0.031960    37A     -0.022471    38A     -0.017173  
      39A     -0.016822    40A     -0.014396    41A     -0.012292  
      42A     -0.011648    43A     -0.010264    44A     -0.009658  
      45A     -0.003078    46A      0.000897    47A      0.002885  
      48A      0.006098    49A      0.006929    50A      0.009267  
      51A      0.009917    52A      0.012844    53A      0.018605  
      54A      0.019978    55A      0.021141    56A      0.024331  
      57A      0.028407    58A      0.031423    59A      0.031611  
      60A      0.032167    61A      0.037776    62A      0.039929  
      63A      0.040150    64A      0.042338    65A      0.042936  
      66A      0.043537    67A      0.047677    68A      0.049641  
      69A      0.050890    70A      0.052531    71A      0.054508  
      72A      0.054638    73A      0.055353    74A      0.060446  
      75A      0.062904    76A      0.064177    77A      0.065060  
      78A      0.069005    79A      0.069986    80A      0.070861  
      81A      0.073188    82A      0.074937    83A      0.077962  
      84A      0.079993    85A      0.080951    86A      0.081373  
      87A      0.081804    88A      0.082182    89A      0.083438  
      90A      0.084441    91A      0.087397    92A      0.089057  
      93A      0.090158    94A      0.091754    95A      0.091914  
      96A      0.095680    97A      0.097888    98A      0.102954  
      99A      0.103599   100A      0.104852   101A      0.105347  
     102A      0.106424   103A      0.108662   104A      0.110912  
     105A      0.112978   106A      0.113094   107A      0.114070  
     108A      0.114450   109A      0.116813   110A      0.117163  
     111A      0.118541   112A      0.120622   113A      0.120935  
     114A      0.122171   115A      0.123079   116A      0.127121  
     117A      0.129638   118A      0.131183   119A      0.131435  
     120A      0.132189   121A      0.136696   122A      0.137752  
     123A      0.138616   124A      0.141728   125A      0.142959  
     126A      0.143044   127A      0.144071   128A      0.148550  
     129A      0.150191   130A      0.151617   131A      0.155499  
     132A      0.156382   133A      0.157725   134A      0.158622  
     135A      0.159376   136A      0.159776   137A      0.161037  
     138A      0.162617   139A      0.164455   140A      0.166542  
     141A      0.170402   142A      0.171435   143A      0.171595  
     144A      0.172579   145A      0.172840   146A      0.176505  
     147A      0.177561   148A      0.178633   149A      0.179783  
     150A      0.181305   151A      0.182049   152A      0.183042  
     153A      0.183619   154A      0.185330   155A      0.185531  
     156A      0.187726   157A      0.190133   158A      0.194618  
     159A      0.195609   160A      0.199186   161A      0.199859  
     162A      0.202869   163A      0.205620   164A      0.205687  
     165A      0.207558   166A      0.210351   167A      0.211241  
     168A      0.211625   169A      0.214358   170A      0.214802  
     171A      0.215138   172A      0.216282   173A      0.217593  
     174A      0.218614   175A      0.220979   176A      0.225052  
     177A      0.225171   178A      0.226086   179A      0.227089  
     180A      0.228481   181A      0.230531   182A      0.232486  
     183A      0.233704   184A      0.235175   185A      0.237228  
     186A      0.238126   187A      0.239795   188A      0.240301  
     189A      0.241851   190A      0.242119   191A      0.247525  
     192A      0.251430   193A      0.256468   194A      0.258379  
     195A      0.259049   196A      0.262033   197A      0.265042  
     198A      0.265161   199A      0.266052   200A      0.266887  
     201A      0.269152   202A      0.271420   203A      0.272678  
     204A      0.277214   205A      0.279122   206A      0.280909  
     207A      0.281963   208A      0.283170   209A      0.283493  
     210A      0.285863   211A      0.285892   212A      0.286222  
     213A      0.288606   214A      0.291008   215A      0.292645  
     216A      0.294619   217A      0.294951   218A      0.297645  
     219A      0.299409   220A      0.301208   221A      0.301986  
     222A      0.303894   223A      0.307833   224A      0.308440  
     225A      0.311835   226A      0.315621   227A      0.316027  
     228A      0.320686   229A      0.323028   230A      0.325606  
     231A      0.326727   232A      0.327103   233A      0.328300  
     234A      0.335927   235A      0.338710   236A      0.339141  
     237A      0.345497   238A      0.347972   239A      0.350093  
     240A      0.351533   241A      0.356922   242A      0.357956  
     243A      0.358969   244A      0.359498   245A      0.360503  
     246A      0.362982   247A      0.363608   248A      0.366303  
     249A      0.369491   250A      0.370836   251A      0.370952  
     252A      0.373560   253A      0.376077   254A      0.377335  
     255A      0.378264   256A      0.382124   257A      0.384658  
     258A      0.386140   259A      0.386810   260A      0.387432  
     261A      0.388402   262A      0.389174   263A      0.390066  
     264A      0.392591   265A      0.393469   266A      0.396623  
     267A      0.399913   268A      0.401832   269A      0.403342  
     270A      0.403519   271A      0.404652   272A      0.406573  
     273A      0.407817   274A      0.409020   275A      0.411786  
     276A      0.412597   277A      0.414138   278A      0.418014  
     279A      0.419836   280A      0.421590   281A      0.423425  
     282A      0.426610   283A      0.427603   284A      0.429713  
     285A      0.431390   286A      0.433618   287A      0.434771  
     288A      0.436634   289A      0.441408   290A      0.447185  
     291A      0.452107   292A      0.453461   293A      0.454805  
     294A      0.457297   295A      0.458301   296A      0.459517  
     297A      0.460233   298A      0.461170   299A      0.463492  
     300A      0.464443   301A      0.464949   302A      0.467341  
     303A      0.472828   304A      0.476309   305A      0.476756  
     306A      0.478815   307A      0.479328   308A      0.481925  
     309A      0.484279   310A      0.488100   311A      0.490389  
     312A      0.498168   313A      0.498893   314A      0.501024  
     315A      0.503113   316A      0.504568   317A      0.505957  
     318A      0.507026   319A      0.508710   320A      0.510718  
     321A      0.511066   322A      0.515853   323A      0.518046  
     324A      0.520330   325A      0.520904   326A      0.523573  
     327A      0.525770   328A      0.528085   329A      0.529795  
     330A      0.530170   331A      0.533833   332A      0.538233  
     333A      0.540703   334A      0.540980   335A      0.546651  
     336A      0.547254   337A      0.548189   338A      0.553224  
     339A      0.554095   340A      0.559856   341A      0.561233  
     342A      0.561871   343A      0.565652   344A      0.568846  
     345A      0.572026   346A      0.573170   347A      0.573937  
     348A      0.575670   349A      0.576631   350A      0.578656  
     351A      0.582813   352A      0.583645   353A      0.593637  
     354A      0.597970   355A      0.598659   356A      0.601584  
     357A      0.605288   358A      0.606520   359A      0.607090  
     360A      0.608981   361A      0.609761   362A      0.614554  
     363A      0.616249   364A      0.619783   365A      0.620839  
     366A      0.623366   367A      0.626405   368A      0.627694  
     369A      0.629930   370A      0.632776   371A      0.633239  
     372A      0.634229   373A      0.635529   374A      0.638545  
     375A      0.642004   376A      0.650257   377A      0.651173  
     378A      0.658425   379A      0.663943   380A      0.667571  
     381A      0.677245   382A      0.680116   383A      0.682133  
     384A      0.687788   385A      0.688923   386A      0.689790  
     387A      0.692134   388A      0.692793   389A      0.693515  
     390A      0.694564   391A      0.695434   392A      0.696804  
     393A      0.697858   394A      0.698869   395A      0.700507  
     396A      0.701657   397A      0.703060   398A      0.709635  
     399A      0.711008   400A      0.713255   401A      0.717919  
     402A      0.719343   403A      0.719725   404A      0.722255  
     405A      0.722805   406A      0.726457   407A      0.729161  
     408A      0.733519   409A      0.734514   410A      0.734948  
     411A      0.735799   412A      0.742612   413A      0.746416  
     414A      0.748113   415A      0.768349   416A      0.772576  
     417A      0.773671   418A      0.776297   419A      0.776649  
     420A      0.778558   421A      0.782709   422A      0.783842  
     423A      0.788991   424A      0.794732   425A      0.799330  
     426A      0.801868   427A      0.805094   428A      0.807554  
     429A      0.810320   430A      0.813281   431A      0.813613  
     432A      0.817990   433A      0.821384   434A      0.825092  
     435A      0.826348   436A      0.828691   437A      0.833642  
     438A      0.835807   439A      0.840901   440A      0.846744  
     441A      0.848789   442A      0.852001   443A      0.860742  
     444A      0.874501   445A      0.875357   446A      0.884875  
     447A      0.887996   448A      0.888556   449A      0.892043  
     450A      0.896102   451A      0.896931   452A      0.897122  
     453A      0.906021   454A      0.920670   455A      0.925788  
     456A      0.930237   457A      0.930496   458A      0.932151  
     459A      0.935520   460A      0.942736   461A      0.951997  
     462A      0.952127   463A      0.964841   464A      0.965530  
     465A      0.986555   466A      0.993175   467A      0.993429  
     468A      0.994041   469A      0.994265   470A      1.014473  
     471A      1.018495   472A      1.024926   473A      1.027027  
     474A      1.031352   475A      1.031964   476A      1.034397  
     477A      1.043526   478A      1.069604   479A      1.079842  
     480A      1.080919   481A      1.087014   482A      1.087965  
     483A      1.088394   484A      1.103190   485A      1.106348  
     486A      1.107247   487A      1.110747   488A      1.111076  
     489A      1.122140   490A      1.122906   491A      1.123793  
     492A      1.132527   493A      1.146269   494A      1.146482  
     495A      1.149908   496A      1.153638   497A      1.155535  
     498A      1.156224   499A      1.175390   500A      1.185298  
     501A      1.212780   502A      1.221112   503A      1.221813  
     504A      1.230324   505A      1.231970   506A      1.232328  
     507A      1.242880   508A      1.249078   509A      1.249624  
     510A      1.253111   511A      1.255045   512A      1.291120  
     513A      1.295407   514A      1.295850   515A      1.335622  
     516A      1.346433   517A      1.364849   518A      1.367235  
     519A      1.368703   520A      1.380351   521A      1.383419  
     522A      1.387659   523A      1.389180   524A      1.391032  
     525A      1.393203   526A      1.395083   527A      1.399049  
     528A      1.409158   529A      1.412448   530A      1.448711  
     531A      1.467422   532A      1.477881   533A      1.480486  
     534A      1.482490   535A      1.486084   536A      1.489592  
     537A      1.496841   538A      1.503461   539A      1.517958  
     540A      1.533508   541A      1.551875   542A      1.562599  
     543A      1.564670   544A      1.572927   545A      1.577370  
     546A      1.578815   547A      1.584376   548A      1.588291  
     549A      1.598157   550A      1.609168   551A      1.612162  
     552A      1.618144   553A      1.621215   554A      1.630450  
     555A      1.635758   556A      1.650540   557A      1.673020  
     558A      1.673338   559A      1.673751   560A      1.676480  
     561A      1.677011   562A      1.678683   563A      1.680263  
     564A      1.689221   565A      1.690207   566A      1.692538  
     567A      1.696329   568A      1.703733   569A      1.707372  
     570A      1.709114   571A      1.718339   572A      1.719496  
     573A      1.720276   574A      1.724905   575A      1.726342  
     576A      1.733990   577A      1.740663   578A      1.742617  
     579A      1.748204   580A      1.751590   581A      1.753398  
     582A      1.754988   583A      1.757075   584A      1.757443  
     585A      1.758396   586A      1.759028   587A      1.761960  
     588A      1.766832   589A      1.771823   590A      1.774395  
     591A      1.778739   592A      1.779444   593A      1.782968  
     594A      1.786816   595A      1.787108   596A      1.789387  
     597A      1.791720   598A      1.796539   599A      1.798760  
     600A      1.807587   601A      1.810756   602A      1.811870  
     603A      1.813757   604A      1.815503   605A      1.819398  
     606A      1.821688   607A      1.826650   608A      1.829729  
     609A      1.830844   610A      1.832230   611A      1.832940  
     612A      1.833824   613A      1.836570   614A      1.841789  
[...]
     802A      1.683729   803A      1.685463   804A      1.687656  
     805A      1.688474   806A      1.696346   807A      1.698056  
     808A      1.699620   809A      1.701034   810A      1.702308  
     811A      1.705165   812A      1.705263   813A      1.709487  
     814A      1.717027   815A      1.717263   816A      1.742008  
     817A      1.752147   818A      1.759806   819A      1.761147  
     820A      1.762048   821A      1.762251   822A      1.776408  
     823A      1.777477   824A      1.778279   825A      1.783558  
     826A      1.792856   827A      1.793589   828A      1.817405  
     829A      1.817902   830A      1.818261   831A      1.822042  
     832A      1.822671   833A      1.825203   834A      1.825505  
     835A      1.832313   836A      1.833060   837A      1.841071  
     838A      1.842267   839A      1.842624   840A      1.850169  
     841A      1.861049   842A      1.863510   843A      1.865056  
     844A      1.867330   845A      1.869448   846A      1.872524  
     847A      1.877818   848A      1.879200   849A      1.880974  
     850A      1.883676   851A      1.891891   852A      1.895900  
     853A      1.897528   854A      1.898581   855A      1.903054  
     856A      1.903992   857A      1.906503   858A      1.910866  
     859A      1.911004   860A      1.918101   861A      1.918444  
     862A      1.918645   863A      1.920002   864A      1.920670  
     865A      1.923149   866A      1.924408   867A      1.926429  
     868A      1.941215   869A      1.943324   870A      1.944439  
     871A      1.949565   872A      1.949975   873A      1.952574  
     874A      1.954455   875A      1.956645   876A      1.957479  
     877A      1.958350   878A      1.961465   879A      1.964922  
     880A      1.969514   881A      1.977891   882A      1.982653  
     883A      1.985229   884A      1.988941   885A      1.990239  
     886A      1.997581   887A      1.998092   888A      2.001993  
     889A      2.004022   890A      2.009145   891A      2.010379  
     892A      2.015949   893A      2.016399   894A      2.026040  
     895A      2.028424   896A      2.031239   897A      2.031761  
     898A      2.032124   899A      2.033291   900A      2.035911  
     901A      2.038340   902A      2.049456   903A      2.054165  
     904A      2.054567   905A      2.058105   906A      2.060371  
     907A      2.062524   908A      2.063857   909A      2.066477  
     910A      2.069189   911A      2.072230   912A      2.072897  
     913A      2.075479   914A      2.079589   915A      2.079644  
     916A      2.080799   917A      2.086227   918A      2.087204  
     919A      2.088814   920A      2.089993   921A      2.094523  
     922A      2.095692   923A      2.096846   924A      2.098464  
     925A      2.101503   926A      2.102413   927A      2.105781  
     928A      2.109678   929A      2.110853   930A      2.111818  
     931A      2.115057   932A      2.116068   933A      2.116433  
     934A      2.118462   935A      2.120696   936A      2.121498  
     937A      2.122512   938A      2.123291   939A      2.125214  
     940A      2.129063   941A      2.133077   942A      2.135380  
     943A      2.135627   944A      2.137116   945A      2.138005  
     946A      2.143068   947A      2.143681   948A      2.152291  
     949A      2.156178   950A      2.158717   951A      2.160350  
     952A      2.162831   953A      2.163809   954A      2.165305  
     955A      2.171161   956A      2.173508   957A      2.174430  
     958A      2.180337   959A      2.184474   960A      2.189632  
     961A      2.192202   962A      2.192394   963A      2.193102  
     964A      2.195165   965A      2.196168   966A      2.196293  
     967A      2.197284   968A      2.212968   969A      2.220060  
     970A      2.220329   971A      2.221110   972A      2.222112  
     973A      2.228702   974A      2.229614   975A      2.234896  
     976A      2.235730   977A      2.239600   978A      2.244763  
     979A      2.245515   980A      2.245662   981A      2.247314  
     982A      2.248827   983A      2.261210   984A      2.261466  
     985A      2.270778   986A      2.271029   987A      2.272915  
     988A      2.273554   989A      2.279898   990A      2.281249  
     991A      2.289646   992A      2.295965   993A      2.302128  
     994A      2.306933   995A      2.310664   996A      2.314906  
     997A      2.320192   998A      2.323706   999A      2.327513  
    1000A      2.331607  1001A      2.331622  1002A      2.332157  
    1003A      2.338236  1004A      2.342721  1005A      2.350400  
    1006A      2.351700  1007A      2.353331  1008A      2.353551  
    1009A      2.357049  1010A      2.364526  1011A      2.367526  
    1012A      2.371961  1013A      2.374648  1014A      2.378279  
    1015A      2.391540  1016A      2.401541  1017A      2.416130  
    1018A      2.424452  1019A      2.424794  1020A      2.424902  
    1021A      2.428551  1022A      2.436667  1023A      2.442846  
    1024A      2.443334  1025A      2.471136  1026A      2.474191  
    1027A      2.475812  1028A      2.482773  1029A      2.485548  
    1030A      2.488250  1031A      2.492622  1032A      2.503287  
    1033A      2.509117  1034A      2.517047  1035A      2.520448  
    1036A      2.521462  1037A      2.530532  1038A      2.533006  
    1039A      2.546483  1040A      2.547058  1041A      2.548641  
    1042A      2.549798  1043A      2.555510  1044A      2.556068  
    1045A      2.556693  1046A      2.560460  1047A      2.560741  
    1048A      2.573366  1049A      2.573419  1050A      2.575856  
    1051A      2.576773  1052A      2.586580  1053A      2.587217  
    1054A      2.587821  1055A      2.590748  1056A      2.592609  
    1057A      2.599306  1058A      2.609395  1059A      2.625009  
    1060A      2.625658  1061A      2.629928  1062A      2.632593  
    1063A      2.633259  1064A      2.641985  1065A      2.642728  
    1066A      2.652248  1067A      2.653443  1068A      2.657410  
    1069A      2.660222  1070A      2.673156  1071A      2.679860  
    1072A      2.684792  1073A      2.685124  1074A      2.687201  
    1075A      2.690026  1076A      2.703322  1077A      2.703434  
    1078A      2.708679  1079A      2.713445  1080A      2.714676  
    1081A      2.719108  1082A      2.719267  1083A      2.723947  
    1084A      2.724638  1085A      2.728467  1086A      2.741657  
    1087A      2.752749  1088A      2.754983  1089A      2.764962  
    1090A      2.777787  1091A      2.788575  1092A      2.796644  
    1093A      2.797226  1094A      2.805539  1095A      2.818116  
    1096A      2.828970  1097A      2.830413  1098A      2.854606  
    1099A      2.855725  1100A      2.856337  1101A      2.858628  
    1102A      2.858950  1103A      2.861950  1104A      2.862377  
    1105A      2.869192  1106A      2.872752  1107A      2.902885  
    1108A      2.919695  1109A      2.920567  1110A      2.921572  
    1111A      2.930840  1112A      2.935071  1113A      2.937525  
    1114A      2.942064  1115A      2.950472  1116A      2.952880  
    1117A      2.957867  1118A      2.964553  1119A      2.975501  
    1120A      3.012405  1121A      3.015344  1122A      3.015761  
    1123A      3.028427  1124A      3.031041  1125A      3.058144  
    1126A      3.065050  1127A      3.065145  1128A      3.068350  
    1129A      3.073254  1130A      3.077917  1131A      3.112554  
    1132A      3.113963  1133A      3.121908  1134A      3.130139  
    1135A      3.131722  1136A      3.132370  1137A      3.138244  
    1138A      3.148182  1139A      3.148309  1140A      3.149439  
    1141A      3.150724  1142A      3.151121  1143A      3.159816  
    1144A      3.161124  1145A      3.168393  1146A      3.169313  
    1147A      3.192440  1148A      3.199494  1149A      3.211674  
    1150A      3.220483  1151A      3.239481  1152A      3.275994  
    1153A      3.277596  1154A      3.278126  1155A      3.283839  
    1156A      3.284976  1157A      3.302754  1158A      3.332673  
    1159A      3.346679  1160A      3.417965  1161A      3.419294  
    1162A      3.440634  1163A      3.444541  1164A      3.484638  
    1165A      3.486854  1166A      3.536130  1167A      3.552323  
    1168A      3.579439  1169A      3.582284  1170A      3.591029  
    1171A      3.602502  1172A      3.628262  1173A      3.630018  
    1174A      3.652128  1175A      3.664012  1176A      3.672023  
    1177A      3.763618  1178A      3.771537  1179A      3.784323  
    1180A      3.787077  1181A      3.824412  1182A      3.871396  
    1183A      3.871608  1184A      3.875541  1185A      3.914159  
    1186A      3.914441  1187A      3.973162  1188A      3.977424  
    1189A      4.011363  1190A      4.042533  1191A      4.054555  
    1192A      4.090713  1193A      4.228422  1194A      4.232703  
    1195A      4.415822  1196A      4.439431  1197A      4.511975  
    1198A      4.754434  1199A      4.795989  1200A      4.850376  
    1201A      4.876447  1202A      4.955966  1203A      5.065169  
    1204A      5.074400  1205A      5.081074  1206A      5.127322  
    1207A      5.144707  1208A      5.398656  1209A      5.431260  
    1210A      5.754637  1211A      5.762014  1212A      6.074805  
    1213A     18.212199  1214A     18.463412  1215A     18.481403  
    1216A     18.571556  1217A     18.856281  1218A     25.355949  
    1219A     25.389262  

    Final Occupation by Irrep:
              A 
    DOCC [   171 ]
    NA   [   171 ]
    NB   [   171 ]

  @DF-RHF Final Energy: -2055.89416309565195

   => Energetics <=

    Nuclear Repulsion Energy =           6452.5568002797772351
    One-Electron Energy =              -15636.4981128564031678
    Two-Electron Energy =                7128.0471494809735304
    Total Energy =                      -2055.8941630956524023

Computation Completed


Properties will be evaluated at   0.000000,   0.000000,   0.000000 [a0]

Properties computed using the SCF density matrix


 Multipole Moments:

 ------------------------------------------------------------------------------------
     Multipole            Electronic (a.u.)      Nuclear  (a.u.)        Total (a.u.)
 ------------------------------------------------------------------------------------

 L = 1.  Multiply by 2.5417464519 to convert [e a0] to [Debye]
 Dipole X            :         -0.0001062           -0.0000085           -0.0001147
 Dipole Y            :          0.0032540           -0.0028843            0.0003697
 Dipole Z            :        394.5678453         -394.5775844           -0.0097390
 Magnitude           :                                                    0.0097467

 ------------------------------------------------------------------------------------

*** tstop() called on d-16-12-3 at Mon Jan 22 17:30:11 2024
Module time:
	user time   =    2815.41 seconds =      46.92 minutes
	system time =     182.32 seconds =       3.04 minutes
	total time  =        607 seconds =      10.12 minutes
Total time:
	user time   =    8718.51 seconds =     145.31 minutes
	system time =     587.18 seconds =       9.79 minutes
	total time  =       2371 seconds =      39.52 minutes
  Constructing Basis Sets for SAPT...

   => Loading Basis Set <=

    Name: (JUN-CC-PVDZ AUX)
    Role: RIFIT
    Keyword: DF_BASIS_SAPT
    atoms 1-2, 4-5, 10, 17-70 entry C          line   100 file /home/gridsan/tfroembgen/.conda/envs/psi4test/share/psi4/basis/jun-cc-pvdz-ri.gbs 
    atoms 3, 6                entry N          line   144 file /home/gridsan/tfroembgen/.conda/envs/psi4test/share/psi4/basis/jun-cc-pvdz-ri.gbs 
    atoms 7-9, 11-16, 71-88   entry H          line    30 file /home/gridsan/tfroembgen/.conda/envs/psi4test/share/psi4/basis/jun-cc-pvdz-ri.gbs 

   => Loading Basis Set <=

    Name: (JUN-CC-PVDZ AUX)
    Role: JKFIT
    Keyword: DF_BASIS_ELST
    atoms 1-2, 4-5, 10, 17-70 entry C          line   146 file /home/gridsan/tfroembgen/.conda/envs/psi4test/share/psi4/basis/jun-cc-pvdz-jkfit.gbs 
    atoms 3, 6                entry N          line   202 file /home/gridsan/tfroembgen/.conda/envs/psi4test/share/psi4/basis/jun-cc-pvdz-jkfit.gbs 
    atoms 7-9, 11-16, 71-88   entry H          line    70 file /home/gridsan/tfroembgen/.conda/envs/psi4test/share/psi4/basis/jun-cc-pvdz-jkfit.gbs 


  //>>>>>>>>>>>>>>>>>>>>>>>>>>>>>>>>>>>//
  //               SSAPT0              //
  //<<<<<<<<<<<<<<<<<<<<<<<<<<<<<<<<<<<//


*** tstart() called on d-16-12-3
*** at Mon Jan 22 17:30:12 2024

        SAPT0  
    Ed Hohenstein
     6 June 2009

      Orbital Information
  --------------------------
    NSO        =      1233
    NMO        =      1219
    NRI        =      4343
    NRI (Elst) =      5440
    NOCC A     =        26
    NOCC B     =       171
    FOCC A     =         7
    FOCC B     =        54
    NVIR A     =      1193
    NVIR B     =      1048

    Elst10,r            =    -0.011118381818 [Eh]
    Exch10              =     0.000244616869 [Eh]
    Exch10 (S^2)        =     0.000244611885 [Eh]

    Iter     Energy [mEh]          dE [mEh]         Residual      Time [s]
       1      -0.04675087       0.046750865       1.613448723           298
       2      -0.04520790      -0.001542969       0.357679754           992
       3      -0.04832140       0.003113507       0.062536782          1365
       4      -0.04824249      -0.000078909       0.027398986          1659
       5      -0.04817389      -0.000068603       0.004874450          1926
       6      -0.04817748       0.000003585       0.002615268          2164
       7      -0.04818022       0.000002745       0.001033737          2442
       8      -0.04817976      -0.000000456       0.000415478          2728
       9      -0.04817947      -0.000000294       0.000127743          3020
      10      -0.04817948       0.000000012       0.000029110          3238
      11      -0.04817951       0.000000024       0.000009583          3589
      12      -0.04817951       0.000000000       0.000003244          3935
      13      -0.04817950      -0.000000003       0.000001232          4174
      14      -0.04817950       0.000000000       0.000000446          4367

    CHF Iterations converged


    Iter     Energy [mEh]          dE [mEh]         Residual      Time [s]
       1      -7.29070885       7.290708849      44.511723802           171
       2      -4.97314189      -2.317566954       5.734038960           304
       3      -4.97874050       0.005598605       2.048936642           326
       4      -5.09917747       0.120436973       0.468460699           347
       5      -5.10536325       0.006185779       0.129099128           367
       6      -5.10326599      -0.002097258       0.063794043           388
       7      -5.10235142      -0.000914578       0.026955145           409
       8      -5.10267945       0.000328036       0.017767068           437
       9      -5.10286200       0.000182548       0.009623996           460
      10      -5.10280217      -0.000059831       0.007643586           482
      11      -5.10274527      -0.000056903       0.003445768           505
      12      -5.10275830       0.000013035       0.001487416           577
      13      -5.10276809       0.000009790       0.000700575           613
      14      -5.10276840       0.000000307       0.000356166           642
      15      -5.10276584      -0.000002557       0.000208213           668
      16      -5.10276499      -0.000000854       0.000085925           694
      17      -5.10276592       0.000000930       0.000029746           721
      18      -5.10276592      -0.000000000       0.000012404           747
      19      -5.10276582      -0.000000098       0.000006868           771
      20      -5.10276580      -0.000000018       0.000002871           793
      21      -5.10276582       0.000000024       0.000001454           814
      22      -5.10276583       0.000000003       0.000000710           841

    CHF Iterations converged

    Ind20,r (A<-B)      =    -0.000048179505 [Eh]
    Ind20,r (B<-A)      =    -0.005102765827 [Eh]
    Ind20,r             =    -0.005150945332 [Eh]
    Exch-Ind20,r (A<-B) =     0.000013455030 [Eh]
    Exch-Ind20,r (B<-A) =     0.000035007749 [Eh]
    Exch-Ind20,r        =     0.000048462779 [Eh]
    Disp20              =    -0.007426176562 [Eh]
    Disp20 (SS)         =    -0.003713088281 [Eh]
    Disp20 (OS)         =    -0.003713088281 [Eh]
    Exch-Disp20         =     0.000046107327 [Eh]
    Exch-Disp20 (SS)    =     0.000030657929 [Eh]
    Exch-Disp20 (OS)    =     0.000015449398 [Eh]

    SAPT Results 
  --------------------------------------------------------------------------------------------------------
    Electrostatics                -11.11838182 [mEh]      -6.97688992 [kcal/mol]     -29.19130744 [kJ/mol]
      Elst10,r                    -11.11838182 [mEh]      -6.97688992 [kcal/mol]     -29.19130744 [kJ/mol]

    Exchange                        0.24461687 [mEh]       0.15349940 [kcal/mol]       0.64224150 [kJ/mol]
      Exch10                        0.24461687 [mEh]       0.15349940 [kcal/mol]       0.64224150 [kJ/mol]
      Exch10(S^2)                   0.24461188 [mEh]       0.15349628 [kcal/mol]       0.64222842 [kJ/mol]

    Induction                      -5.31121794 [mEh]      -3.33283958 [kcal/mol]     -13.94460079 [kJ/mol]
      Ind20,r                      -5.15094533 [mEh]      -3.23226699 [kcal/mol]     -13.52380511 [kJ/mol]
      Exch-Ind20,r                  0.04846278 [mEh]       0.03041085 [kcal/mol]       0.12723901 [kJ/mol]
      delta HF,r (2)               -0.20873539 [mEh]      -0.13098343 [kcal/mol]      -0.54803469 [kJ/mol]

    Dispersion                     -7.38006924 [mEh]      -4.63106336 [kcal/mol]     -19.37636911 [kJ/mol]
      Disp20                       -7.42617656 [mEh]      -4.65999615 [kcal/mol]     -19.49742388 [kJ/mol]
      Exch-Disp20                   0.04610733 [mEh]       0.02893278 [kcal/mol]       0.12105477 [kJ/mol]
      Disp20 (SS)                  -3.71308828 [mEh]      -2.32999807 [kcal/mol]      -9.74871194 [kJ/mol]
      Disp20 (OS)                  -3.71308828 [mEh]      -2.32999807 [kcal/mol]      -9.74871194 [kJ/mol]
      Exch-Disp20 (SS)              0.03065793 [mEh]       0.01923814 [kcal/mol]       0.08049238 [kJ/mol]
      Exch-Disp20 (OS)              0.01544940 [mEh]       0.00969464 [kcal/mol]       0.04056239 [kJ/mol]

  Total HF                        -16.18498289 [mEh]     -10.15623010 [kcal/mol]     -42.49366673 [kJ/mol]
  Total SAPT0                     -23.56505213 [mEh]     -14.78729346 [kcal/mol]     -61.87003584 [kJ/mol]

  Special recipe for scaled SAPT0 (see Manual):
    Electrostatics sSAPT0         -11.11838182 [mEh]      -6.97688992 [kcal/mol]     -29.19130744 [kJ/mol]
    Exchange sSAPT0                 0.24461687 [mEh]       0.15349940 [kcal/mol]       0.64224150 [kJ/mol]
    Induction sSAPT0               -5.31121498 [mEh]      -3.33283772 [kcal/mol]     -13.94459301 [kJ/mol]
    Dispersion sSAPT0              -7.38006642 [mEh]      -4.63106159 [kcal/mol]     -19.37636171 [kJ/mol]
  Total sSAPT0                    -23.56504635 [mEh]     -14.78728983 [kcal/mol]     -61.87002066 [kJ/mol]
  --------------------------------------------------------------------------------------------------------

*** tstop() called on d-16-12-3 at Mon Jan 22 19:36:47 2024
Module time:
	user time   =    8998.84 seconds =     149.98 minutes
	system time =    1037.43 seconds =      17.29 minutes
	total time  =       7595 seconds =     126.58 minutes
Total time:
	user time   =   17718.43 seconds =     295.31 minutes
	system time =    1624.61 seconds =      27.08 minutes
	total time  =       9967 seconds =     166.12 minutes

    Psi4 stopped on: Monday, 22 January 2024 07:36PM
    Psi4 wall time for execution: 2:46:08.93

*** Psi4 exiting successfully. Buy a developer a beer!
