
    -----------------------------------------------------------------------
          Psi4: An Open-Source Ab Initio Electronic Structure Package
                               Psi4 1.9 release

                         Git: Rev {} zzzzzzz 


    D. G. A. Smith, L. A. Burns, A. C. Simmonett, R. M. Parrish,
    M. C. Schieber, R. Galvelis, P. Kraus, H. Kruse, R. Di Remigio,
    A. Alenaizan, A. M. James, S. Lehtola, J. P. Misiewicz, M. Scheurer,
    R. A. Shaw, J. B. Schriber, Y. Xie, Z. L. Glick, D. A. Sirianni,
    J. S. O'Brien, J. M. Waldrop, A. Kumar, E. G. Hohenstein,
    B. P. Pritchard, B. R. Brooks, H. F. Schaefer III, A. Yu. Sokolov,
    K. Patkowski, A. E. DePrince III, U. Bozkaya, R. A. King,
    F. A. Evangelista, J. M. Turney, T. D. Crawford, C. D. Sherrill,
    J. Chem. Phys. 152(18) 184108 (2020). https://doi.org/10.1063/5.0006002

                            Additional Code Authors
    E. T. Seidl, C. L. Janssen, E. F. Valeev, M. L. Leininger,
    J. F. Gonthier, R. M. Richard, H. R. McAlexander, M. Saitow, X. Wang,
    P. Verma, M. H. Lechner, A. Jiang, S. Behnle, A. G. Heide,
    M. F. Herbst, and D. L. Poole

             Previous Authors, Complete List of Code Contributors,
                       and Citations for Specific Modules
    https://github.com/psi4/psi4/blob/master/codemeta.json
    https://github.com/psi4/psi4/graphs/contributors
    http://psicode.org/psi4manual/master/introduction.html#citing-psifour

    -----------------------------------------------------------------------


    Psi4 started on: Saturday, 27 January 2024 11:25AM

    Process ID: 3550310
    Host:       n2cn0496.ab2021.local
    PSIDATADIR: /opt/software/pc2/EB-SW/software/PSI4/1.9-foss-2022a/share/psi4
    Memory:     500.0 MiB
    Threads:    16
    
  ==> Input File <==

--------------------------------------------------------------------------
memory 64 GB # how much memory is available ! Depends on the nodes/cores !

molecule dimer {
# monomer A
-1 1    # Charge and multiplicity
B -0.000046  0.000337 2.199994
F -1.153597  0.000048 3.015641
F  1.153661 -0.000581 3.015641
F -0.000019 -1.153637 1.384360
F -0.000019  1.153978 1.384360
--
# monomer B
0 1     # Charge and multiplicity
C   -3.66844126402057      7.80375217008252      0.00190004133558
C   -4.84759871934653      7.13124183134024     -0.00046653359696
C   -4.89495929917518      5.69633040353158     -0.00103944469517
C   -3.65374067877320      4.98073034095895      0.00662099703436
C   -2.40942512149445      7.11398103667468      0.00209438359570
C   -2.42547734410473      5.68112195090346     -0.00491050527438
C   -1.19474401643570      7.78614419430947      0.00356656413763
C   0.03795902893699      7.09942164575698      0.00139585983271
C   0.03033258741920      5.66948955970466     -0.00408752508301
C   -1.20098450790502      4.96927034791531      0.00488220885047
C   1.27795782581485      7.77285944319479      0.00277170839332
C   2.48535808472416      7.08769688523756      0.00049722048857
C   2.48612868491717      5.65477081024076     -0.00644052849921
C   1.25408291964399      4.95607811366431      0.00518741308898
C   3.75171459140595      7.76391215098033      0.00062407186893
C   4.92356605618520      7.07878077698995     -0.00143240883900
C   4.95560727132542      5.64344746336949     -0.00159282164606
C   3.70680153420475      4.94121020833308      0.00349873852374
H   -3.65852113775815      8.89082741913536      0.00358502958574
H   -1.18921332975660      8.87412108735996      0.00753844057883
H   1.28429423888630      8.86083343548850      0.00693053253426
H   3.75354208679975      8.85103527897216      0.00214659618464
H   5.86995870320703      7.61379483465560     -0.00235777588134
H   -5.78823170750226      7.67630221293400     -0.00202638095293
C   -6.09197395869619      4.99326001364347     -0.00291168518608
C   -6.12866148031747      3.58258016879823     -0.00171050815740
C   -3.66457974004527      3.56418217974434     -0.00463560277484
C   -4.89429820469869      2.86108077590057      0.00453338221034
C   -2.43733499489796      2.84761165708481      0.00719617576166
C   -1.20922785759670      3.54788693497833     -0.00648285103018
C   1.24714157216223      3.53468075142962     -0.00729145743546
C   0.01517603956900      2.83311183930540      0.00439272578912
C   2.46764517244071      2.82128997725533      0.00449278391269
C   3.70254947457969      3.52466015442405     -0.00899517692985
C   6.14498038638375      4.92757236613191     -0.00282626685777
C   6.16658835886151      3.51658447594213     -0.00065971342101
C   4.92460995845939      2.80840792535402      0.00587903281610
H   7.08990550964105      5.46688776622306     -0.00658814770723
H   -7.03104175110130      5.54268795285765     -0.00714490013730
C   -7.33969804112295      2.85841153457957     -0.00333767559888
C   -7.36488195805880      1.47032337158330     -0.00157213747140
C   -4.90350460894690      1.44442681216000     -0.00628840166334
C   -6.13225715261081      0.73993935705394      0.00600164231964
C   -3.67687480051673      0.72669714267312      0.00433931473643
C   -2.44565658606518      1.42964113326212     -0.00597039546461
C   -1.22360068130162      0.71532450163492      0.00545886906656
C   0.00763786931376      1.41738314923765      0.00392452278437
C   1.23121980774686      0.70211669058719     -0.01490206287210
C   2.46082110053113      1.40329203612573      0.00460244601878
C   3.68443025419614      0.68719842821222      0.00377365974158
C   4.91870890153864      1.39173456118907     -0.00862816189375
C   7.36980207796101      2.77948220318441     -0.00242013321349
C   7.38016266612146      1.39121750785509     -0.00087345036788
C   6.13979953912259      0.67411862320065      0.00545489144369
H   -8.27919079934664      3.40711804112415     -0.00763522772059
H   8.31511347147953      3.31811809662368     -0.00663070901292
C   -8.59175593758115      0.72483255304480     -0.00123170985383
C   -8.59902460370342     -0.63263980622873      0.00089141472904
C   -6.13981313911873     -0.67413663715361     -0.00609792660607
C   -7.38018411213749     -1.39126618958160      0.00131813493501
C   -4.91868448025621     -1.39175501803000      0.00624257154343
C   -3.68443829568458     -0.68723731573599     -0.00478966852105
C   -2.46081704024768     -1.40334517882457      0.00575341766833
C   -1.23116201232071     -0.70217386488055     -0.00636696112346
C   -0.00756962538737     -1.41741884941102      0.00108956317991
C   1.22364771588843     -0.71527537726392      0.01109518512883
C   2.44567064933149     -1.42964328900682     -0.00065482763106
C   3.67686670284649     -0.72670743155550     -0.00479541202602
C   6.13224884641929     -0.73997883984993     -0.00632338623858
C   4.90351914550401     -1.44445752054090      0.00751768830159
C   8.59901484869081      0.63260386666793     -0.00101133422380
C   8.59174548810050     -0.72485086719319      0.00072504603735
C   7.36486276438985     -1.47033266560598      0.00049486934466
H   -9.52830597181814      1.27684744919284     -0.00270163681798
H   9.54141097460619      1.17457248844457     -0.00206336648518
C   -7.36983790976868     -2.77954514593389      0.00312634335708
C   -4.92459910905015     -2.80843725734101     -0.00460528907921
C   -6.16662249566744     -3.51665219282533      0.00169655107992
C   -3.70251035970491     -3.52468154912026      0.00571878010666
C   -2.46764698511392     -2.82132596280400     -0.00632585824990
C   -0.01513347410770     -2.83314164539971     -0.00604426974092
C   -1.24712184122656     -3.53473217556300      0.00551968366725
C   1.20924506964357     -3.54791467864352      0.00805871345849
C   2.43733602215464     -2.84764173817541     -0.00608104485234
C   4.89430234377080     -2.86112296828604     -0.00526030478103
C   3.66461525504104     -3.56421984553201      0.00761911515957
C   6.12863901474565     -3.58258405771778      0.00096495711699
C   7.33967266469532     -2.85841330737039      0.00248018319869
H   -9.54144911125902     -1.17456346666430      0.00226083090216
H   9.52826186807155     -1.27691907390448      0.00197485379837
H   -8.31516504384864     -3.31814985321231      0.00729857188773
H   8.27915514249207     -3.40714078989363      0.00681973918158
C   -6.14499418870218     -4.92764727278338      0.00302254913999
C   -3.70678334799751     -4.94126171411716     -0.00679841894792
C   -4.95559005800169     -5.64349397349412      0.00116871569699
C   -2.48612132622665     -5.65478557440947      0.00614125209662
C   -1.25405833548005     -4.95612205000132     -0.00503435388927
C   1.20101257386816     -4.96928038819302     -0.00385322963129
C   -0.03033667441341     -5.66952030313900      0.00398997003238
C   3.65375010132847     -4.98074377541453     -0.00309522988330
C   2.42549269587528     -5.68117463552727      0.00628170066869
C   6.09196561781097     -4.99325796338655      0.00325918379042
C   4.89497644461045     -5.69634842095790      0.00202298796027
H   -7.08989238804069     -5.46699984223871      0.00742531082125
H   7.03105520920009     -5.54265853633254      0.00683896355417
C   -4.92354532219813     -7.07882109967734      0.00061394679214
C   -2.48534208823777     -7.08772807792913     -0.00189594564379
C   -3.75168589177895     -7.76394715763627     -0.00170126671874
C   -0.03794895698805     -7.09946487446944     -0.00168022049625
C   -1.27795610040136     -7.77290438466689     -0.00366491325785
C   2.40944432072629     -7.11402201200282     -0.00081701968533
C   1.19474993715296     -7.78618536556242     -0.00296931056689
C   4.84762105249800     -7.13126211057943      0.00168979497423
C   3.66847160587561     -7.80378799294376     -0.00065863938960
H   -5.86994035041618     -7.61383059804164      0.00215798365757
H   5.78824962538815     -7.67633218931421      0.00281691445618
H   -3.75352693944918     -8.85107156923607     -0.00353718114765
H   -1.28430440589466     -8.86087539249706     -0.00809229711623
H   1.18922157469537     -8.87416062058945     -0.00706194725726
H   3.65854661482387     -8.89086063405326     -0.00231318081200

    units angstrom      # Angstroms are the default
    no_reorient         # Geometry fixed, default
    symmetry c1         # C1 symmetry, default
}

set {
    scf_type DF         # Density fitting, faster than exact integrals
    freeze_core True    # Freeze core electrons
    basis jun-cc-pVDZ   # Jun-cc-pVDZ basis set, recommended for sSAPT0 in https://doi.org/10.1063/1.4867135
}

energy('ssapt0')        # Compute sSAPT0 energy, includes also SAPT0
--------------------------------------------------------------------------

  Memory set to  59.605 GiB by Python driver.

Scratch directory: /tmp/
   => Loading Basis Set <=

    Name: JUN-CC-PVDZ
    Role: ORBITAL
    Keyword: BASIS
    atoms 1                                                   entry B          line   130 file /opt/software/pc2/EB-SW/software/PSI4/1.9-foss-2022a/share/psi4/basis/jun-cc-pvdz.gbs 
    atoms 2-5                                                 entry F          line   266 file /opt/software/pc2/EB-SW/software/PSI4/1.9-foss-2022a/share/psi4/basis/jun-cc-pvdz.gbs 
    atoms 6-23, 30-42, 45-59, 62-78, 81-93, 98-108, 111-119   entry C          line   164 file /opt/software/pc2/EB-SW/software/PSI4/1.9-foss-2022a/share/psi4/basis/jun-cc-pvdz.gbs 
    atoms 24-29, 43-44, 60-61, 79-80, 94-97, 109-110, 120-125 entry H          line    36 file /opt/software/pc2/EB-SW/software/PSI4/1.9-foss-2022a/share/psi4/basis/jun-cc-pvdz.gbs 

   => Loading Basis Set <=

    Name: JUN-CC-PVDZ
    Role: ORBITAL
    Keyword: BASIS
    atoms 1                                                   entry B          line   130 file /opt/software/pc2/EB-SW/software/PSI4/1.9-foss-2022a/share/psi4/basis/jun-cc-pvdz.gbs 
    atoms 2-5                                                 entry F          line   266 file /opt/software/pc2/EB-SW/software/PSI4/1.9-foss-2022a/share/psi4/basis/jun-cc-pvdz.gbs 
    atoms 6-23, 30-42, 45-59, 62-78, 81-93, 98-108, 111-119   entry C          line   164 file /opt/software/pc2/EB-SW/software/PSI4/1.9-foss-2022a/share/psi4/basis/jun-cc-pvdz.gbs 
    atoms 24-29, 43-44, 60-61, 79-80, 94-97, 109-110, 120-125 entry H          line    36 file /opt/software/pc2/EB-SW/software/PSI4/1.9-foss-2022a/share/psi4/basis/jun-cc-pvdz.gbs 


  //>>>>>>>>>>>>>>>>>>>>>>>>>>>>>>>>>>>//
  //              Dimer HF             //
  //<<<<<<<<<<<<<<<<<<<<<<<<<<<<<<<<<<<//

   => Libint2 <=

    Primary   basis highest AM E, G, H:  5, 4, 3
    Auxiliary basis highest AM E, G, H:  6, 5, 4
    Onebody   basis highest AM E, G, H:  6, 5, 4
    Solid Harmonics ordering:            gaussian

*** tstart() called on n2cn0496.ab2021.local
*** at Sat Jan 27 11:25:36 2024

   => Loading Basis Set <=

    Name: JUN-CC-PVDZ
    Role: ORBITAL
    Keyword: BASIS
    atoms 1                                                   entry B          line   130 file /opt/software/pc2/EB-SW/software/PSI4/1.9-foss-2022a/share/psi4/basis/jun-cc-pvdz.gbs 
    atoms 2-5                                                 entry F          line   266 file /opt/software/pc2/EB-SW/software/PSI4/1.9-foss-2022a/share/psi4/basis/jun-cc-pvdz.gbs 
    atoms 6-23, 30-42, 45-59, 62-78, 81-93, 98-108, 111-119   entry C          line   164 file /opt/software/pc2/EB-SW/software/PSI4/1.9-foss-2022a/share/psi4/basis/jun-cc-pvdz.gbs 
    atoms 24-29, 43-44, 60-61, 79-80, 94-97, 109-110, 120-125 entry H          line    36 file /opt/software/pc2/EB-SW/software/PSI4/1.9-foss-2022a/share/psi4/basis/jun-cc-pvdz.gbs 


         ---------------------------------------------------------
                                   SCF
               by Justin Turney, Rob Parrish, Andy Simmonett
                          and Daniel G. A. Smith
                              RHF Reference
                       16 Threads,  61035 MiB Core
         ---------------------------------------------------------

  ==> Geometry <==

    Molecular point group: c1
    Full point group: C1

    Geometry (in Angstrom), charge = -1, multiplicity = 1:

       Center              X                  Y                   Z               Mass       
    ------------   -----------------  -----------------  -----------------  -----------------
         B           -0.000050191042     0.000351518223     2.048464753678    11.009305360000
         F           -1.153601191042     0.000062518223     2.864111753678    18.998403162730
         F            1.153656808958    -0.000566481777     2.864111753678    18.998403162730
         F           -0.000023191042    -1.153622481777     1.232830753678    18.998403162730
         F           -0.000023191042     1.153992518223     1.232830753678    18.998403162730
         C           -3.668445455062     7.803766688305    -0.149629204987    12.000000000000
         C           -4.847602910388     7.131256349563    -0.151995779919    12.000000000000
         C           -4.894963490217     5.696344921754    -0.152568691018    12.000000000000
         C           -3.653744869815     4.980744859182    -0.144908249288    12.000000000000
         C           -2.409429312536     7.113995554897    -0.149434862727    12.000000000000
         C           -2.425481535146     5.681136469126    -0.156439751597    12.000000000000
         C           -1.194748207477     7.786158712532    -0.147962682185    12.000000000000
         C            0.037954837895     7.099436163980    -0.150133386490    12.000000000000
         C            0.030328396378     5.669504077927    -0.155616771405    12.000000000000
         C           -1.200988698947     4.969284866138    -0.146647037472    12.000000000000
         C            1.277953634773     7.772873961417    -0.148757537929    12.000000000000
         C            2.485353893683     7.087711403460    -0.151032025834    12.000000000000
         C            2.486124493876     5.654785328463    -0.157969774822    12.000000000000
         C            1.254078728602     4.956092631887    -0.146341833233    12.000000000000
         C            3.751710400364     7.763926669203    -0.150905174454    12.000000000000
         C            4.923561865144     7.078795295213    -0.152961655161    12.000000000000
         C            4.955603080284     5.643461981592    -0.153122067968    12.000000000000
         C            3.706797343163     4.941224726556    -0.148030507799    12.000000000000
         H           -3.658525328800     8.890841937358    -0.147944216737     1.007825032230
         H           -1.189217520798     8.874135605583    -0.143990805744     1.007825032230
         H            1.284290047845     8.860847953711    -0.144598713788     1.007825032230
         H            3.753537895758     8.851049797195    -0.149382650138     1.007825032230
         H            5.869954512165     7.613809352878    -0.153887022204     1.007825032230
         H           -5.788235898544     7.676316731157    -0.153555627275     1.007825032230
         C           -6.091978149738     4.993274531866    -0.154440931509    12.000000000000
         C           -6.128665671359     3.582594687021    -0.153239754480    12.000000000000
         C           -3.664583931087     3.564196697967    -0.156164849097    12.000000000000
         C           -4.894302395740     2.861095294123    -0.146995864112    12.000000000000
         C           -2.437339185940     2.847626175307    -0.144333070561    12.000000000000
         C           -1.209232048638     3.547901453201    -0.158012097353    12.000000000000
         C            1.247137381121     3.534695269652    -0.158820703758    12.000000000000
         C            0.015171848527     2.833126357528    -0.147136520533    12.000000000000
         C            2.467640981399     2.821304495478    -0.147036462410    12.000000000000
         C            3.702545283538     3.524674672647    -0.160524423252    12.000000000000
         C            6.144976195342     4.927586884354    -0.154355513180    12.000000000000
         C            6.166584167820     3.516598994165    -0.152188959743    12.000000000000
         C            4.924605767418     2.808422443577    -0.145650213506    12.000000000000
         H            7.089901318599     5.466902284446    -0.158117394030     1.007825032230
         H           -7.031045942143     5.542702471080    -0.158674146460     1.007825032230
         C           -7.339702232165     2.858426052802    -0.154866921921    12.000000000000
         C           -7.364886149100     1.470337889806    -0.153101383794    12.000000000000
         C           -4.903508799989     1.444441330383    -0.157817647986    12.000000000000
         C           -6.132261343652     0.739953875277    -0.145527604003    12.000000000000
         C           -3.676878991558     0.726711660896    -0.147189931586    12.000000000000
         C           -2.445660777107     1.429655651485    -0.157499641787    12.000000000000
         C           -1.223604872343     0.715339019858    -0.146070377256    12.000000000000
         C            0.007633678272     1.417397667460    -0.147604723538    12.000000000000
         C            1.231215616705     0.702131208810    -0.166431309195    12.000000000000
         C            2.460816909489     1.403306554348    -0.146926800304    12.000000000000
         C            3.684426063155     0.687212946435    -0.147755586581    12.000000000000
         C            4.918704710497     1.391749079412    -0.160157408216    12.000000000000
         C            7.369797886919     2.779496721407    -0.153949379536    12.000000000000
         C            7.380158475080     1.391232026078    -0.152402696690    12.000000000000
         C            6.139795348081     0.674133141423    -0.146074354879    12.000000000000
         H           -8.279194990388     3.407132559347    -0.159164474043     1.007825032230
         H            8.315109280438     3.318132614846    -0.158159955335     1.007825032230
         C           -8.591760128623     0.724847071267    -0.152760956176    12.000000000000
         C           -8.599028794745    -0.632625288006    -0.150637831593    12.000000000000
         C           -6.139817330160    -0.674122118931    -0.157627172929    12.000000000000
         C           -7.380188303179    -1.391251671359    -0.150211111387    12.000000000000
         C           -4.918688671298    -1.391740499807    -0.145286674779    12.000000000000
         C           -3.684442486726    -0.687222797513    -0.156318914843    12.000000000000
         C           -2.460821231289    -1.403330660602    -0.145775828654    12.000000000000
         C           -1.231166203362    -0.702159346658    -0.157896207446    12.000000000000
         C           -0.007573816429    -1.417404331188    -0.150439683143    12.000000000000
         C            1.223643524847    -0.715260859041    -0.140434061194    12.000000000000
         C            2.445666458290    -1.429628770784    -0.152184073953    12.000000000000
         C            3.676862511805    -0.726692913333    -0.156324658348    12.000000000000
         C            6.132244655378    -0.739964321627    -0.157852632561    12.000000000000
         C            4.903514954462    -1.444443002318    -0.144011558021    12.000000000000
         C            8.599010657649     0.632618384891    -0.152540580546    12.000000000000
         C            8.591741297059    -0.724836348971    -0.150804200285    12.000000000000
         C            7.364858573348    -1.470318147383    -0.151034376978    12.000000000000
         H           -9.528310162860     1.276861967415    -0.154230883140     1.007825032230
         H            9.541406783565     1.174587006667    -0.153592612808     1.007825032230
         C           -7.369842100810    -2.779530627711    -0.148402902965    12.000000000000
         C           -4.924603300092    -2.808422739118    -0.156134535402    12.000000000000
         C           -6.166626686709    -3.516637674603    -0.149832695243    12.000000000000
         C           -3.702514550747    -3.524667030898    -0.145810466216    12.000000000000
         C           -2.467651176156    -2.821311444581    -0.157855104572    12.000000000000
         C           -0.015137665149    -2.833127127177    -0.157573516063    12.000000000000
         C           -1.247126032268    -3.534717657340    -0.146009562655    12.000000000000
         C            1.209240878602    -3.547900160421    -0.143470532864    12.000000000000
         C            2.437331831113    -2.847627219953    -0.157610291175    12.000000000000
         C            4.894298152729    -2.861108450063    -0.156789551103    12.000000000000
         C            3.664611063999    -3.564205327309    -0.143910131163    12.000000000000
         C            6.128634823704    -3.582569539495    -0.150564289205    12.000000000000
         C            7.339668473654    -2.858398789148    -0.149049063124    12.000000000000
         H           -9.541453302301    -1.174548948442    -0.149268415420     1.007825032230
         H            9.528257677030    -1.276904555682    -0.149554392524     1.007825032230
         H           -8.315169234890    -3.318135334990    -0.144230674435     1.007825032230
         H            8.279150951450    -3.407126271671    -0.144709507141     1.007825032230
         C           -6.144998379744    -4.927632754561    -0.148506697182    12.000000000000
         C           -3.706787539039    -4.941247195895    -0.158327665270    12.000000000000
         C           -4.955594249043    -5.643479455272    -0.150360530625    12.000000000000
         C           -2.486125517268    -5.654771056187    -0.145387994226    12.000000000000
         C           -1.254062526522    -4.956107531779    -0.156563600212    12.000000000000
         C            1.201008382827    -4.969265869970    -0.155382475954    12.000000000000
         C           -0.030340865455    -5.669505784916    -0.147539276290    12.000000000000
         C            3.653745910287    -4.980729257192    -0.154624476206    12.000000000000
         C            2.425488504834    -5.681160117305    -0.145247545654    12.000000000000
         C            6.091961426769    -4.993243445164    -0.148270062532    12.000000000000
         C            4.894972253569    -5.696333902735    -0.149506258362    12.000000000000
         H           -7.089896579082    -5.466985324016    -0.144103935501     1.007825032230
         H            7.031051018158    -5.542644018110    -0.144690282768     1.007825032230
         C           -4.923549513240    -7.078806581455    -0.150915299530    12.000000000000
         C           -2.485346279279    -7.087713559707    -0.153425191966    12.000000000000
         C           -3.751690082821    -7.763932639414    -0.153230513041    12.000000000000
         C           -0.037953148030    -7.099450356247    -0.153209466819    12.000000000000
         C           -1.277960291443    -7.772889866444    -0.155194159580    12.000000000000
         C            2.409440129685    -7.114007493780    -0.152346266008    12.000000000000
         C            1.194745746111    -7.786170847340    -0.154498556889    12.000000000000
         C            4.847616861456    -7.131247592357    -0.149839451348    12.000000000000
         C            3.668467414834    -7.803773474721    -0.152187885712    12.000000000000
         H           -5.869944541458    -7.613816079819    -0.149371262665     1.007825032230
         H            5.788245434347    -7.676317671092    -0.148712331866     1.007825032230
         H           -3.753531130491    -8.851057051013    -0.155066427470     1.007825032230
         H           -1.284308596936    -8.860860874274    -0.159621543439     1.007825032230
         H            1.189217383654    -8.874146102367    -0.158591193580     1.007825032230
         H            3.658542423782    -8.890846115831    -0.153842427134     1.007825032230

  Running in c1 symmetry.

  Rotational constants: A =      0.00069  B =      0.00069  C =      0.00035 [cm^-1]
  Rotational constants: A =     20.72120  B =     20.71753  C =     10.55117 [MHz]
  Nuclear repulsion = 18040.747117569721013

  Charge       = -1
  Multiplicity = 1
  Electrons    = 642
  Nalpha       = 321
  Nbeta        = 321

  ==> Algorithm <==

  SCF Algorithm Type is DF.
  DIIS enabled.
  MOM disabled.
  Fractional occupation disabled.
  Guess Type is SAD.
  Energy threshold   = 1.00e-08
  Density threshold  = 1.00e-08
  Integral threshold = 1.00e-12

  ==> Primary Basis <==

  Basis Set: JUN-CC-PVDZ
    Blend: JUN-CC-PVDZ
    Number of shells: 880
    Number of basis functions: 1938
    Number of Cartesian functions: 2039
    Spherical Harmonics?: true
    Max angular momentum: 2

   => Loading Basis Set <=

    Name: (JUN-CC-PVDZ AUX)
    Role: JKFIT
    Keyword: DF_BASIS_SCF
    atoms 1                                                   entry B          line    90 file /opt/software/pc2/EB-SW/software/PSI4/1.9-foss-2022a/share/psi4/basis/jun-cc-pvdz-jkfit.gbs 
    atoms 2-5                                                 entry F          line   314 file /opt/software/pc2/EB-SW/software/PSI4/1.9-foss-2022a/share/psi4/basis/jun-cc-pvdz-jkfit.gbs 
    atoms 6-23, 30-42, 45-59, 62-78, 81-93, 98-108, 111-119   entry C          line   146 file /opt/software/pc2/EB-SW/software/PSI4/1.9-foss-2022a/share/psi4/basis/jun-cc-pvdz-jkfit.gbs 
    atoms 24-29, 43-44, 60-61, 79-80, 94-97, 109-110, 120-125 entry H          line    70 file /opt/software/pc2/EB-SW/software/PSI4/1.9-foss-2022a/share/psi4/basis/jun-cc-pvdz-jkfit.gbs 

  ==> Integral Setup <==

  ==> DiskDFJK: Density-Fitted J/K Matrices <==

    J tasked:                  Yes
    K tasked:                  Yes
    wK tasked:                  No
    OpenMP threads:             16
    Integrals threads:          16
    Memory [MiB]:            45776
    Algorithm:                Disk
    Integral Cache:           SAVE
    Schwarz Cutoff:          1E-12
    Fitting Condition:       1E-10

   => Auxiliary Basis Set <=

  Basis Set: (JUN-CC-PVDZ AUX)
    Blend: JUN-CC-PVDZ-JKFIT
    Number of shells: 2943
    Number of basis functions: 8531
    Number of Cartesian functions: 9791
    Spherical Harmonics?: true
    Max angular momentum: 3

  Minimum eigenvalue in the overlap matrix is 5.9641132904E-11.
  Reciprocal condition number of the overlap matrix is 2.3418609934E-12.
    Using canonical orthogonalization.
  Overall, 40 of 1938 possible MOs eliminated.


  ==> Pre-Iterations <==

  SCF Guess: Superposition of Atomic Densities via on-the-fly atomic UHF (no occupation information).

   -------------------------
    Irrep   Nso     Nmo    
   -------------------------
     A       1938    1898 
   -------------------------
    Total    1938    1898
   -------------------------

  ==> Iterations <==

                           Total Energy        Delta E     RMS |[F,P]|

   @DF-RHF iter SAD: -4087.95333295619184   -4.08795e+03   0.00000e+00 
   @DF-RHF iter   1: -4070.92031632689714    1.70330e+01   7.94331e-04 DIIS/ADIIS
   @DF-RHF iter   2: -4072.35972555136732   -1.43941e+00   3.15692e-04 DIIS/ADIIS
   @DF-RHF iter   3: -4072.53070681070994   -1.70981e-01   1.38941e-04 DIIS/ADIIS
   @DF-RHF iter   4: -4072.56408425179507   -3.33774e-02   6.26536e-05 DIIS
   @DF-RHF iter   5: -4072.57221368186583   -8.12943e-03   1.79821e-05 DIIS
   @DF-RHF iter   6: -4072.57315650734108   -9.42825e-04   6.54571e-06 DIIS
   @DF-RHF iter   7: -4072.57349007232460   -3.33565e-04   4.07054e-06 DIIS
   @DF-RHF iter   8: -4072.57364207342198   -1.52001e-04   1.93284e-06 DIIS
   @DF-RHF iter   9: -4072.57369605368103   -5.39803e-05   8.60219e-07 DIIS
   @DF-RHF iter  10: -4072.57370277242080   -6.71874e-06   4.85469e-07 DIIS
   @DF-RHF iter  11: -4072.57370568202714   -2.90961e-06   2.70549e-07 DIIS
   @DF-RHF iter  12: -4072.57370684253556   -1.16051e-06   1.42993e-07 DIIS
   @DF-RHF iter  13: -4072.57370721151528   -3.68980e-07   5.85291e-08 DIIS
   @DF-RHF iter  14: -4072.57370726265390   -5.11386e-08   2.87133e-08 DIIS
   @DF-RHF iter  15: -4072.57370727126181   -8.60791e-09   1.36901e-08 DIIS
   @DF-RHF iter  16: -4072.57370727300349   -1.74168e-09   8.16737e-09 DIIS
  Energy and wave function converged.


  ==> Post-Iterations <==

    Orbital Energies [Eh]
    ---------------------

    Doubly Occupied:                                                      

       1A    -26.303740     2A    -26.302696     3A    -26.198922  
       4A    -26.198881     5A    -11.261813     6A    -11.261301  
       7A    -11.188830     8A    -11.188822     9A    -11.188794  
      10A    -11.188786    11A    -11.187695    12A    -11.187643  
      13A    -11.187524    14A    -11.187501    15A    -11.187500  
      16A    -11.187482    17A    -11.187376    18A    -11.187363  
      19A    -11.187340    20A    -11.187337    21A    -11.186868  
      22A    -11.186858    23A    -11.186631    24A    -11.186600  
      25A    -11.186529    26A    -11.186509    27A    -11.186377  
      28A    -11.186358    29A    -11.186353    30A    -11.186338  
      31A    -11.186275    32A    -11.186226    33A    -11.186140  
      34A    -11.186090    35A    -11.186066    36A    -11.185966  
      37A    -11.185863    38A    -11.185748    39A    -11.185556  
      40A    -11.185529    41A    -11.185481    42A    -11.185460  
      43A    -11.185457    44A    -11.185443    45A    -11.185434  
      46A    -11.185428    47A    -11.185370    48A    -11.185348  
      49A    -11.184762    50A    -11.184762    51A    -11.184747  
      52A    -11.184720    53A    -11.184587    54A    -11.184581  
      55A    -11.184291    56A    -11.184235    57A    -11.183788  
      58A    -11.183434    59A    -11.183424    60A    -11.183381  
      61A    -11.183375    62A    -11.183328    63A    -11.183320  
      64A    -11.183281    65A    -11.182530    66A    -11.182479  
      67A    -11.182329    68A    -11.182299    69A    -11.181778  
      70A    -11.181666    71A    -11.181358    72A    -11.181255  
      73A    -11.181251    74A    -11.181056    75A    -11.181020  
      76A    -11.180998    77A    -11.180923    78A    -11.180906  
      79A    -11.180274    80A    -11.180170    81A    -11.180031  
      82A    -11.179956    83A    -11.178317    84A    -11.178179  
      85A    -11.177940    86A    -11.177823    87A    -11.173578  
      88A    -11.173461    89A    -11.173414    90A    -11.173309  
      91A    -11.169054    92A    -11.168886    93A    -11.168794  
      94A    -11.168630    95A    -11.163987    96A    -11.163785  
      97A    -11.163727    98A    -11.163543    99A    -11.149829  
     100A    -11.149787   101A     -7.730108   102A     -1.716218  
     103A     -1.683911   104A     -1.509763   105A     -1.481124  
     106A     -1.181406   107A     -1.161099   108A     -1.161057  
     109A     -1.148677   110A     -1.144234   111A     -1.141473  
     112A     -1.124702   113A     -1.120277   114A     -1.118300  
     115A     -1.114358   116A     -1.098576   117A     -1.097837  
     118A     -1.087420   119A     -1.079744   120A     -1.076561  
     121A     -1.071588   122A     -1.070040   123A     -1.056338  
     124A     -1.051958   125A     -1.043713   126A     -1.039996  
     127A     -1.036515   128A     -1.036298   129A     -1.016383  
     130A     -1.013370   131A     -1.005552   132A     -1.003523  
     133A     -0.996870   134A     -0.996100   135A     -0.992820  
     136A     -0.979182   137A     -0.973614   138A     -0.966918  
     139A     -0.964585   140A     -0.964214   141A     -0.963493  
     142A     -0.953006   143A     -0.948629   144A     -0.940951  
     145A     -0.935099   146A     -0.929072   147A     -0.928231  
     148A     -0.925791   149A     -0.916160   150A     -0.904043  
     151A     -0.899974   152A     -0.899721   153A     -0.882934  
     154A     -0.870601   155A     -0.850939   156A     -0.847763  
     157A     -0.834416   158A     -0.831935   159A     -0.828756  
     160A     -0.823389   161A     -0.822517   162A     -0.819881  
     163A     -0.812762   164A     -0.801196   165A     -0.797306  
     166A     -0.796320   167A     -0.793573   168A     -0.783007  
     169A     -0.779797   170A     -0.775468   171A     -0.765600  
     172A     -0.761875   173A     -0.759432   174A     -0.758115  
     175A     -0.757762   176A     -0.748236   177A     -0.744627  
     178A     -0.744299   179A     -0.743438   180A     -0.721895  
     181A     -0.710815   182A     -0.710575   183A     -0.704944  
     184A     -0.703457   185A     -0.695308   186A     -0.690358  
     187A     -0.686985   188A     -0.677823   189A     -0.674088  
     190A     -0.669656   191A     -0.659210   192A     -0.655406  
     193A     -0.651014   194A     -0.648580   195A     -0.648361  
     196A     -0.647954   197A     -0.647836   198A     -0.638075  
     199A     -0.636322   200A     -0.623826   201A     -0.623430  
     202A     -0.623169   203A     -0.616206   204A     -0.611611  
     205A     -0.609897   206A     -0.608605   207A     -0.606561  
     208A     -0.605223   209A     -0.592932   210A     -0.577988  
     211A     -0.575342   212A     -0.574624   213A     -0.573776  
     214A     -0.573710   215A     -0.571185   216A     -0.567083  
     217A     -0.565147   218A     -0.564337   219A     -0.563788  
     220A     -0.561869   221A     -0.560957   222A     -0.560582  
     223A     -0.555554   224A     -0.552760   225A     -0.540986  
     226A     -0.540726   227A     -0.535405   228A     -0.534813  
     229A     -0.533165   230A     -0.528150   231A     -0.526324  
     232A     -0.523911   233A     -0.521851   234A     -0.520553  
     235A     -0.520292   236A     -0.519950   237A     -0.519887  
     238A     -0.519252   239A     -0.517941   240A     -0.517830  
     241A     -0.517221   242A     -0.514232   243A     -0.513476  
     244A     -0.507767   245A     -0.505483   246A     -0.503566  
     247A     -0.500415   248A     -0.498059   249A     -0.497898  
     250A     -0.493815   251A     -0.491862   252A     -0.491125  
     253A     -0.490057   254A     -0.487927   255A     -0.484185  
     256A     -0.483018   257A     -0.481945   258A     -0.476832  
     259A     -0.475811   260A     -0.475442   261A     -0.468605  
     262A     -0.466927   263A     -0.458945   264A     -0.458568  
     265A     -0.455276   266A     -0.453724   267A     -0.451990  
     268A     -0.449762   269A     -0.445167   270A     -0.444748  
     271A     -0.442901   272A     -0.441540   273A     -0.440506  
     274A     -0.435739   275A     -0.435057   276A     -0.422630  
     277A     -0.421443   278A     -0.420009   279A     -0.417779  
     280A     -0.414681   281A     -0.406823   282A     -0.403417  
     283A     -0.403392   284A     -0.398343   285A     -0.391598  
     286A     -0.391360   287A     -0.388379   288A     -0.383543  
     289A     -0.380500   290A     -0.370475   291A     -0.370134  
     292A     -0.365007   293A     -0.362295   294A     -0.361702  
     295A     -0.353961   296A     -0.340844   297A     -0.332234  
     298A     -0.330069   299A     -0.312959   300A     -0.311017  
     301A     -0.309747   302A     -0.307838   303A     -0.279711  
     304A     -0.279521   305A     -0.277493   306A     -0.275757  
     307A     -0.263400   308A     -0.260347   309A     -0.259482  
     310A     -0.256859   311A     -0.229044   312A     -0.228798  
     313A     -0.226056   314A     -0.215953   315A     -0.211681  
     316A     -0.209348   317A     -0.187546   318A     -0.179230  
     319A     -0.134098   320A     -0.130884   321A     -0.105622  

    Virtual:                                                              

     322A      0.066085   323A      0.080663   324A      0.097547  
     325A      0.098523   326A      0.098716   327A      0.100170  
     328A      0.101358   329A      0.106104   330A      0.107268  
     331A      0.108225   332A      0.111140   333A      0.113735  
     334A      0.114002   335A      0.118793   336A      0.124558  
     337A      0.125196   338A      0.125280   339A      0.134094  
     340A      0.136763   341A      0.137968   342A      0.139175  
     343A      0.140150   344A      0.141855   345A      0.143651  
     346A      0.144747   347A      0.145350   348A      0.146895  
     349A      0.147869   350A      0.148056   351A      0.149176  
     352A      0.151602   353A      0.152068   354A      0.152630  
     355A      0.152858   356A      0.152946   357A      0.155275  
     358A      0.158515   359A      0.160068   360A      0.160976  
     361A      0.162405   362A      0.165352   363A      0.165937  
     364A      0.167162   365A      0.167559   366A      0.168150  
     367A      0.168808   368A      0.175202   369A      0.175843  
     370A      0.176111   371A      0.178054   372A      0.178879  
     373A      0.179382   374A      0.180112   375A      0.180863  
     376A      0.182893   377A      0.182955   378A      0.187340  
     379A      0.192843   380A      0.193052   381A      0.193498  
     382A      0.193924   383A      0.195884   384A      0.198758  
     385A      0.198872   386A      0.201611   387A      0.201752  
     388A      0.205856   389A      0.207314   390A      0.208732  
     391A      0.209601   392A      0.213866   393A      0.215923  
     394A      0.217558   395A      0.218336   396A      0.219342  
     397A      0.220260   398A      0.221249   399A      0.222006  
     400A      0.222572   401A      0.223047   402A      0.224616  
     403A      0.226718   404A      0.226861   405A      0.227130  
     406A      0.228512   407A      0.228639   408A      0.229313  
     409A      0.229742   410A      0.229924   411A      0.231748  
     412A      0.234241   413A      0.236004   414A      0.244302  
     415A      0.245444   416A      0.245606   417A      0.246163  
     418A      0.246475   419A      0.246716   420A      0.246785  
     421A      0.247082   422A      0.251948   423A      0.253978  
     424A      0.254994   425A      0.255468   426A      0.256613  
     427A      0.258869   428A      0.261799   429A      0.261924  
     430A      0.263225   431A      0.263852   432A      0.264711  
     433A      0.265593   434A      0.266362   435A      0.267790  
     436A      0.269405   437A      0.269841   438A      0.271174  
     439A      0.273385   440A      0.274710   441A      0.275273  
     442A      0.275973   443A      0.276623   444A      0.276810  
     445A      0.277752   446A      0.278040   447A      0.278864  
     448A      0.279161   449A      0.279619   450A      0.279834  
     451A      0.280245   452A      0.280724   453A      0.284104  
     454A      0.287459   455A      0.288075   456A      0.288456  
     457A      0.293340   458A      0.294793   459A      0.295562  
     460A      0.295635   461A      0.296528   462A      0.296904  
     463A      0.297177   464A      0.298281   465A      0.299014  
     466A      0.300404   467A      0.301065   468A      0.302263  
     469A      0.302424   470A      0.303711   471A      0.304587  
     472A      0.308511   473A      0.310848   474A      0.312591  
     475A      0.313260   476A      0.317517   477A      0.318046  
     478A      0.319957   479A      0.320208   480A      0.321788  
     481A      0.323165   482A      0.323699   483A      0.324899  
     484A      0.325650   485A      0.326568   486A      0.328013  
     487A      0.328660   488A      0.329203   489A      0.330518  
     490A      0.331244   491A      0.332110   492A      0.332337  
     493A      0.335702   494A      0.337145   495A      0.340918  
     496A      0.342739   497A      0.342849   498A      0.343022  
     499A      0.344437   500A      0.344560   501A      0.345518  
     502A      0.346354   503A      0.347400   504A      0.347723  
     505A      0.347943   506A      0.351157   507A      0.353559  
     508A      0.353741   509A      0.354536   510A      0.356208  
     511A      0.356691   512A      0.357807   513A      0.361919  
     514A      0.363333   515A      0.363573   516A      0.363829  
     517A      0.366348   518A      0.369007   519A      0.369276  
     520A      0.369916   521A      0.370473   522A      0.370903  
     523A      0.371009   524A      0.371901   525A      0.372412  
     526A      0.374937   527A      0.375703   528A      0.375788  
     529A      0.376006   530A      0.378122   531A      0.379401  
     532A      0.381534   533A      0.381610   534A      0.382231  
     535A      0.385456   536A      0.385851   537A      0.387056  
     538A      0.388101   539A      0.388556   540A      0.389471  
     541A      0.391682   542A      0.392096   543A      0.392188  
     544A      0.393769   545A      0.394097   546A      0.395099  
     547A      0.395250   548A      0.396920   549A      0.397366  
     550A      0.398044   551A      0.399327   552A      0.400925  
     553A      0.401274   554A      0.401525   555A      0.402034  
     556A      0.405779   557A      0.405923   558A      0.407427  
     559A      0.409512   560A      0.410384   561A      0.410556  
     562A      0.411203   563A      0.413398   564A      0.414895  
     565A      0.416575   566A      0.417943   567A      0.419072  
     568A      0.419805   569A      0.424154   570A      0.425429  
     571A      0.426393   572A      0.428883   573A      0.429461  
     574A      0.430324   575A      0.432154   576A      0.434296  
     577A      0.435595   578A      0.436068   579A      0.436610  
     580A      0.437658   581A      0.438223   582A      0.438993  
     583A      0.441459   584A      0.441644   585A      0.444109  
     586A      0.444801   587A      0.445419   588A      0.446184  
     589A      0.447993   590A      0.448252   591A      0.449901  
     592A      0.450434   593A      0.451635   594A      0.452216  
     595A      0.452732   596A      0.457873   597A      0.458261  
     598A      0.458490   599A      0.459344   600A      0.461000  
     601A      0.463233   602A      0.463320   603A      0.464803  
     604A      0.466420   605A      0.467902   606A      0.468367  
     607A      0.468472   608A      0.468877   609A      0.469208  
     610A      0.470080   611A      0.470257   612A      0.470513  
     613A      0.471650   614A      0.471797   615A      0.472704  
     616A      0.473883   617A      0.475722   618A      0.476209  
     619A      0.476456   620A      0.477318   621A      0.477434  
     622A      0.477819   623A      0.477944   624A      0.479185  
     625A      0.480177   626A      0.480322   627A      0.480635  
     628A      0.480846   629A      0.482963   630A      0.485407  
     631A      0.487396   632A      0.487634   633A      0.489198  
     634A      0.489699   635A      0.490746   636A      0.491040  
     637A      0.491342   638A      0.492002   639A      0.492304  
     640A      0.493135   641A      0.494145   642A      0.497920  
     643A      0.501019   644A      0.503096   645A      0.503131  
     646A      0.503370   647A      0.503799   648A      0.504617  
     649A      0.505377   650A      0.506709   651A      0.506886  
     652A      0.507461   653A      0.507623   654A      0.508394  
     655A      0.510041   656A      0.510693   657A      0.511454  
     658A      0.514766   659A      0.517700   660A      0.517974  
     661A      0.519437   662A      0.520370   663A      0.521172  
     664A      0.521666   665A      0.523253   666A      0.523494  
     667A      0.523935   668A      0.524136   669A      0.524448  
     670A      0.525322   671A      0.525931   672A      0.526076  
     673A      0.527483   674A      0.528942   675A      0.529127  
     676A      0.532684   677A      0.533868   678A      0.535061  
     679A      0.535793   680A      0.536131   681A      0.538444  
     682A      0.539951   683A      0.540348   684A      0.541930  
     685A      0.542452   686A      0.542768   687A      0.543307  
     688A      0.543791   689A      0.546549   690A      0.548749  
     691A      0.548894   692A      0.549183   693A      0.550207  
     694A      0.550356   695A      0.552612   696A      0.553274  
     697A      0.555276   698A      0.555888   699A      0.556734  
     700A      0.557648   701A      0.558394   702A      0.558708  
     703A      0.559214   704A      0.559833   705A      0.560240  
     706A      0.560578   707A      0.560879   708A      0.563860  
     709A      0.565600   710A      0.567375   711A      0.568012  
     712A      0.569733   713A      0.569975   714A      0.571907  
     715A      0.572286   716A      0.572749   717A      0.573703  
     718A      0.576553   719A      0.578120   720A      0.578518  
     721A      0.579795   722A      0.580991   723A      0.581659  
     724A      0.583185   725A      0.584502   726A      0.586588  
     727A      0.586920   728A      0.587569   729A      0.588299  
     730A      0.588798   731A      0.589988   732A      0.591589  
     733A      0.592077   734A      0.596146   735A      0.598016  
     736A      0.600721   737A      0.600905   738A      0.603180  
     739A      0.604621   740A      0.604873   741A      0.607801  
     742A      0.610742   743A      0.611855   744A      0.612784  
     745A      0.613113   746A      0.615492   747A      0.616939  
     748A      0.619126   749A      0.621676   750A      0.625031  
     751A      0.626412   752A      0.627962   753A      0.629482  
     754A      0.631132   755A      0.631503   756A      0.633013  
     757A      0.635185   758A      0.636006   759A      0.636312  
     760A      0.638583   761A      0.639398   762A      0.640653  
     763A      0.642165   764A      0.644978   765A      0.646194  
     766A      0.647461   767A      0.648227   768A      0.650426  
     769A      0.651560   770A      0.652654   771A      0.654987  
     772A      0.655231   773A      0.659499   774A      0.661657  
     775A      0.663489   776A      0.665580   777A      0.666658  
     778A      0.668969   779A      0.670072   780A      0.671711  
     781A      0.672783   782A      0.673926   783A      0.674776  
     784A      0.676331   785A      0.678009   786A      0.680364  
     787A      0.680828   788A      0.682338   789A      0.684809  
     790A      0.686081   791A      0.688274   792A      0.688907  
     793A      0.690779   794A      0.692312   795A      0.696222  
     796A      0.703071   797A      0.705562   798A      0.706813  
     799A      0.709267   800A      0.712639   801A      0.716969  
     802A      0.717244   803A      0.719268   804A      0.723727  
     805A      0.726103   806A      0.726945   807A      0.729707  
     808A      0.732981   809A      0.733816   810A      0.735735  
     811A      0.736526   812A      0.737954   813A      0.741308  
     814A      0.743875   815A      0.745504   816A      0.747182  
     817A      0.749949   818A      0.751361   819A      0.754499  
     820A      0.760351   821A      0.762171   822A      0.762285  
     823A      0.764469   824A      0.764900   825A      0.765353  
     826A      0.769113   827A      0.769543   828A      0.769881  
     829A      0.771753   830A      0.777789   831A      0.781245  
     832A      0.785773   833A      0.787618   834A      0.799125  
     835A      0.802366   836A      0.805310   837A      0.807450  
     838A      0.808473   839A      0.809915   840A      0.812919  
     841A      0.814305   842A      0.816209   843A      0.816838  
     844A      0.820090   845A      0.823892   846A      0.824298  
     847A      0.827267   848A      0.828940   849A      0.848399  
     850A      0.850437   851A      0.851977   852A      0.854381  
     853A      0.859647   854A      0.860988   855A      0.868454  
     856A      0.868928   857A      0.870514   858A      0.872592  
     859A      0.873136   860A      0.876002   861A      0.876825  
     862A      0.877858   863A      0.878689   864A      0.882044  
     865A      0.884388   866A      0.886425   867A      0.887258  
     868A      0.887831   869A      0.888961   870A      0.889109  
     871A      0.892196   872A      0.896746   873A      0.899325  
     874A      0.901399   875A      0.902467   876A      0.905118  
     877A      0.910192   878A      0.910708   879A      0.912287  
     880A      0.916641   881A      0.917826   882A      0.918726  
     883A      0.919744   884A      0.922223   885A      0.923313  
     886A      0.924406   887A      0.930135   888A      0.931108  
     889A      0.933966   890A      0.935343   891A      0.935669  
     892A      0.936311   893A      0.937705   894A      0.939125  
     895A      0.939262   896A      0.943733   897A      0.944239  
     898A      0.944757   899A      0.948130   900A      0.950012  
     901A      0.950569   902A      0.952119   903A      0.954302  
     904A      0.956006   905A      0.957989   906A      0.959635  
     907A      0.960376   908A      0.962051   909A      0.963897  
     910A      0.964678   911A      0.968124   912A      0.970426  
     913A      0.971721   914A      0.973222   915A      0.976154  
     916A      0.978062   917A      0.978654   918A      0.984596  
     919A      0.986083   920A      0.987127   921A      0.987882  
     922A      0.988792   923A      0.989940   924A      0.990466  
     925A      0.992384   926A      0.992995   927A      0.993635  
     928A      0.996549   929A      0.999762   930A      1.000053  
     931A      1.004957   932A      1.005673   933A      1.006478  
     934A      1.007488   935A      1.009536   936A      1.010573  
     937A      1.012594   938A      1.013837   939A      1.016250  
     940A      1.017718   941A      1.018134   942A      1.018688  
     943A      1.020200   944A      1.021759   945A      1.023456  
     946A      1.023897   947A      1.024783   948A      1.026048  
     949A      1.028350   950A      1.029218   951A      1.030279  
     952A      1.033162   953A      1.033314   954A      1.035090  
     955A      1.036291   956A      1.037253   957A      1.039215  
     958A      1.042049   959A      1.046372   960A      1.048946  
     961A      1.052001   962A      1.058017   963A      1.061531  
     964A      1.061873   965A      1.063366   966A      1.065086  
     967A      1.066768   968A      1.067086   969A      1.069187  
     970A      1.071159   971A      1.072956   972A      1.076532  
     973A      1.077511   974A      1.077757   975A      1.078553  
     976A      1.079435   977A      1.083419   978A      1.086283  
     979A      1.087084   980A      1.087806   981A      1.091470  
     982A      1.094311   983A      1.094688   984A      1.096005  
     985A      1.098074   986A      1.098895   987A      1.100837  
     988A      1.105936   989A      1.109097   990A      1.110729  
     991A      1.111394   992A      1.112080   993A      1.113093  
     994A      1.116577   995A      1.119440   996A      1.119659  
     997A      1.121770   998A      1.122001   999A      1.122807  
    1000A      1.124751  1001A      1.125367  1002A      1.126006  
    1003A      1.126768  1004A      1.129496  1005A      1.130452  
    1006A      1.132217  1007A      1.134308  1008A      1.135060  
    1009A      1.137050  1010A      1.137210  1011A      1.137956  
    1012A      1.140123  1013A      1.142839  1014A      1.143843  
    1015A      1.144556  1016A      1.145236  1017A      1.145567  
    1018A      1.146313  1019A      1.147266  1020A      1.148306  
    1021A      1.149205  1022A      1.150454  1023A      1.151594  
    1024A      1.152211  1025A      1.152725  1026A      1.153300  
    1027A      1.154510  1028A      1.154905  1029A      1.155525  
    1030A      1.156231  1031A      1.157684  1032A      1.158193  
    1033A      1.158539  1034A      1.159050  1035A      1.159650  
    1036A      1.160096  1037A      1.161491  1038A      1.161891  
    1039A      1.163642  1040A      1.164404  1041A      1.166056  
    1042A      1.167323  1043A      1.169525  1044A      1.172030  
    1045A      1.172553  1046A      1.173358  1047A      1.175305  
    1048A      1.176892  1049A      1.178045  1050A      1.179295  
    1051A      1.180564  1052A      1.184710  1053A      1.184828  
    1054A      1.185401  1055A      1.186340  1056A      1.188389  
    1057A      1.191126  1058A      1.193045  1059A      1.193285  
    1060A      1.196025  1061A      1.199011  1062A      1.200609  
    1063A      1.202606  1064A      1.205954  1065A      1.207342  
    1066A      1.207613  1067A      1.210578  1068A      1.212361  
    1069A      1.213130  1070A      1.213976  1071A      1.214653  
    1072A      1.217846  1073A      1.219455  1074A      1.221150  
    1075A      1.224942  1076A      1.226463  1077A      1.228900  
    1078A      1.229657  1079A      1.229987  1080A      1.232210  
    1081A      1.232625  1082A      1.233527  1083A      1.234432  
    1084A      1.235422  1085A      1.237232  1086A      1.240198  
    1087A      1.242730  1088A      1.243795  1089A      1.246631  
    1090A      1.250670  1091A      1.252415  1092A      1.254140  
    1093A      1.254841  1094A      1.256874  1095A      1.259317  
    1096A      1.260029  1097A      1.262188  1098A      1.263168  
    1099A      1.263844  1100A      1.266580  1101A      1.273673  
    1102A      1.275919  1103A      1.278803  1104A      1.279544  
    1105A      1.281387  1106A      1.282187  1107A      1.283603  
    1108A      1.286473  1109A      1.287182  1110A      1.288628  
    1111A      1.289150  1112A      1.290631  1113A      1.292550  
    1114A      1.293445  1115A      1.294247  1116A      1.295629  
    1117A      1.297451  1118A      1.300071  1119A      1.310294  
    1120A      1.316645  1121A      1.317294  1122A      1.320174  
    1123A      1.324948  1124A      1.325730  1125A      1.326634  
    1126A      1.333415  1127A      1.335508  1128A      1.336279  
    1129A      1.336474  1130A      1.338969  1131A      1.340122  
    1132A      1.341414  1133A      1.343670  1134A      1.344268  
    1135A      1.350341  1136A      1.351138  1137A      1.354472  
    1138A      1.354945  1139A      1.357621  1140A      1.360591  
    1141A      1.364434  1142A      1.366405  1143A      1.369099  
    1144A      1.370193  1145A      1.371333  1146A      1.373675  
    1147A      1.374911  1148A      1.376612  1149A      1.377481  
    1150A      1.382283  1151A      1.383196  1152A      1.386778  
    1153A      1.388820  1154A      1.389323  1155A      1.390594  
    1156A      1.393134  1157A      1.394391  1158A      1.396936  
    1159A      1.397172  1160A      1.398825  1161A      1.400813  
    1162A      1.402064  1163A      1.403259  1164A      1.403607  
    1165A      1.405861  1166A      1.408125  1167A      1.408932  
    1168A      1.410179  1169A      1.410927  1170A      1.414325  
    1171A      1.415488  1172A      1.427415  1173A      1.428694  
    1174A      1.431539  1175A      1.432263  1176A      1.433082  
    1177A      1.434849  1178A      1.436323  1179A      1.436684  
    1180A      1.437852  1181A      1.438913  1182A      1.441161  
    1183A      1.444304  1184A      1.447577  1185A      1.449704  
    1186A      1.452164  1187A      1.453199  1188A      1.454155  
    1189A      1.457200  1190A      1.461858  1191A      1.463085  
    1192A      1.463709  1193A      1.466128  1194A      1.466611  
    1195A      1.467373  1196A      1.477652  1197A      1.478451  
    1198A      1.480076  1199A      1.481377  1200A      1.482809  
    1201A      1.483999  1202A      1.484080  1203A      1.484953  
    1204A      1.489229  1205A      1.490350  1206A      1.494866  
    1207A      1.495654  1208A      1.496870  1209A      1.498366  
    1210A      1.498876  1211A      1.500091  1212A      1.503384  
    1213A      1.506310  1214A      1.506369  1215A      1.506979  
    1216A      1.507063  1217A      1.508392  1218A      1.511276  
    1219A      1.516816  1220A      1.517388  1221A      1.518286  
    1222A      1.520303  1223A      1.526045  1224A      1.526879  
    1225A      1.530268  1226A      1.532531  1227A      1.533716  
    1228A      1.534876  1229A      1.541448  1230A      1.543380  
    1231A      1.546539  1232A      1.547493  1233A      1.548141  
    1234A      1.549667  1235A      1.551125  1236A      1.555521  
    1237A      1.559473  1238A      1.560895  1239A      1.561921  
    1240A      1.564385  1241A      1.573530  1242A      1.574286  
    1243A      1.576066  1244A      1.576248  1245A      1.577882  
    1246A      1.587836  1247A      1.591828  1248A      1.596237  
    1249A      1.609092  1250A      1.616610  1251A      1.618208  
    1252A      1.618814  1253A      1.619310  1254A      1.619658  
    1255A      1.641367  1256A      1.649621  1257A      1.661225  
    1258A      1.670572  1259A      1.674219  1260A      1.677001  
    1261A      1.678708  1262A      1.681974  1263A      1.682745  
    1264A      1.684323  1265A      1.684639  1266A      1.687133  
    1267A      1.689865  1268A      1.690153  1269A      1.692715  
    1270A      1.693406  1271A      1.693758  1272A      1.695422  
    1273A      1.696674  1274A      1.698347  1275A      1.699608  
    1276A      1.700863  1277A      1.701675  1278A      1.704062  
    1279A      1.705459  1280A      1.706355  1281A      1.707878  
    1282A      1.709079  1283A      1.710811  1284A      1.714555  
    1285A      1.715768  1286A      1.717200  1287A      1.717591  
    1288A      1.719103  1289A      1.720652  1290A      1.721807  
    1291A      1.722237  1292A      1.723257  1293A      1.724810  
    1294A      1.726806  1295A      1.729468  1296A      1.729559  
    1297A      1.731340  1298A      1.731801  1299A      1.732526  
    1300A      1.737235  1301A      1.741152  1302A      1.742067  
    1303A      1.743816  1304A      1.744523  1305A      1.746071  
    1306A      1.747331  1307A      1.750217  1308A      1.754734  
    1309A      1.755433  1310A      1.756855  1311A      1.759676  
    1312A      1.762699  1313A      1.766042  1314A      1.767401  
    1315A      1.768610  1316A      1.768859  1317A      1.770178  
    1318A      1.772678  1319A      1.776028  1320A      1.780138  
    1321A      1.782744  1322A      1.783304  1323A      1.785817  
    1324A      1.789314  1325A      1.790555  1326A      1.791077  
    1327A      1.791389  1328A      1.795908  1329A      1.796982  
    1330A      1.801538  1331A      1.803990  1332A      1.804830  
    1333A      1.809469  1334A      1.815500  1335A      1.818533  
    1336A      1.822391  1337A      1.823797  1338A      1.824571  
    1339A      1.825795  1340A      1.831503  1341A      1.842387  
    1342A      1.847397  1343A      1.850812  1344A      1.854950  
    1345A      1.857062  1346A      1.858183  1347A      1.858672  
    1348A      1.861605  1349A      1.873815  1350A      1.888313  
    1351A      1.888913  1352A      1.891832  1353A      1.895389  
    1354A      1.898404  1355A      1.901445  1356A      1.902592  
    1357A      1.902934  1358A      1.905582  1359A      1.907477  
    1360A      1.908302  1361A      1.909129  1362A      1.909726  
    1363A      1.912274  1364A      1.918005  1365A      1.919642  
    1366A      1.921519  1367A      1.926101  1368A      1.928137  
    1369A      1.929238  1370A      1.934382  1371A      1.937258  
    1372A      1.937493  1373A      1.938946  1374A      1.940251  
    1375A      1.944138  1376A      1.944484  1377A      1.947382  
    1378A      1.947802  1379A      1.948362  1380A      1.949797  
    1381A      1.951091  1382A      1.952847  1383A      1.953088  
    1384A      1.955974  1385A      1.957737  1386A      1.960841  
    1387A      1.962246  1388A      1.963370  1389A      1.964957  
    1390A      1.966328  1391A      1.967006  1392A      1.976465  
    1393A      1.978331  1394A      1.983655  1395A      1.984053  
    1396A      1.985579  1397A      1.989351  1398A      1.990212  
    1399A      1.993820  1400A      1.997849  1401A      1.999646  
    1402A      2.001564  1403A      2.004637  1404A      2.006141  
    1405A      2.007138  1406A      2.010707  1407A      2.010929  
    1408A      2.012068  1409A      2.013373  1410A      2.014915  
    1411A      2.017472  1412A      2.017750  1413A      2.019912  
    1414A      2.021985  1415A      2.022983  1416A      2.023353  
    1417A      2.024547  1418A      2.027971  1419A      2.030799  
    1420A      2.032543  1421A      2.036051  1422A      2.039054  
    1423A      2.039592  1424A      2.041708  1425A      2.045854  
    1426A      2.046871  1427A      2.048373  1428A      2.050010  
    1429A      2.051543  1430A      2.052501  1431A      2.055960  
    1432A      2.057097  1433A      2.058163  1434A      2.059751  
    1435A      2.061547  1436A      2.065713  1437A      2.066973  
    1438A      2.071290  1439A      2.072734  1440A      2.073317  
    1441A      2.076651  1442A      2.079671  1443A      2.083530  
    1444A      2.085271  1445A      2.087933  1446A      2.091762  
    1447A      2.092631  1448A      2.094129  1449A      2.094981  
    1450A      2.097760  1451A      2.098589  1452A      2.099396  
    1453A      2.100656  1454A      2.101967  1455A      2.105961  
    1456A      2.108128  1457A      2.108835  1458A      2.109651  
    1459A      2.110725  1460A      2.113800  1461A      2.114417  
    1462A      2.116791  1463A      2.121714  1464A      2.124157  
    1465A      2.127126  1466A      2.128933  1467A      2.130322  
    1468A      2.131234  1469A      2.133133  1470A      2.135623  
    1471A      2.137435  1472A      2.139618  1473A      2.141933  
    1474A      2.142895  1475A      2.143925  1476A      2.144732  
    1477A      2.148649  1478A      2.150149  1479A      2.152843  
    1480A      2.154081  1481A      2.154418  1482A      2.156252  
    1483A      2.157551  1484A      2.159586  1485A      2.159826  
    1486A      2.160214  1487A      2.161158  1488A      2.162201  
    1489A      2.163167  1490A      2.163566  1491A      2.165033  
    1492A      2.166381  1493A      2.166558  1494A      2.168172  
    1495A      2.168769  1496A      2.170982  1497A      2.171538  
    1498A      2.173142  1499A      2.176055  1500A      2.177627  
    1501A      2.179118  1502A      2.179877  1503A      2.182968  
    1504A      2.183512  1505A      2.184395  1506A      2.186671  
    1507A      2.189871  1508A      2.190270  1509A      2.190959  
    1510A      2.191307  1511A      2.192857  1512A      2.194550  
    1513A      2.198175  1514A      2.200474  1515A      2.201384  
    1516A      2.202472  1517A      2.203902  1518A      2.204057  
    1519A      2.206044  1520A      2.206886  1521A      2.209404  
    1522A      2.210712  1523A      2.215119  1524A      2.217271  
    1525A      2.219819  1526A      2.220584  1527A      2.225618  
    1528A      2.226352  1529A      2.227038  1530A      2.229157  
    1531A      2.231655  1532A      2.234904  1533A      2.236414  
    1534A      2.237047  1535A      2.238606  1536A      2.240885  
    1537A      2.241982  1538A      2.244110  1539A      2.245717  
    1540A      2.247043  1541A      2.249457  1542A      2.250204  
    1543A      2.251572  1544A      2.254919  1545A      2.255909  
    1546A      2.257404  1547A      2.259719  1548A      2.261595  
    1549A      2.262532  1550A      2.266189  1551A      2.267187  
    1552A      2.270036  1553A      2.273434  1554A      2.273975  
    1555A      2.274270  1556A      2.275026  1557A      2.278385  
    1558A      2.279175  1559A      2.280099  1560A      2.285510  
    1561A      2.286903  1562A      2.288816  1563A      2.291834  
    1564A      2.295126  1565A      2.295978  1566A      2.296890  
    1567A      2.298114  1568A      2.300840  1569A      2.303179  
    1570A      2.303957  1571A      2.305838  1572A      2.306317  
    1573A      2.307244  1574A      2.309395  1575A      2.309706  
    1576A      2.314179  1577A      2.314953  1578A      2.318371  
    1579A      2.320420  1580A      2.321773  1581A      2.329114  
    1582A      2.330083  1583A      2.333827  1584A      2.335736  
    1585A      2.339406  1586A      2.342010  1587A      2.344452  
    1588A      2.349189  1589A      2.352211  1590A      2.352897  
    1591A      2.353957  1592A      2.358070  1593A      2.361533  
    1594A      2.365080  1595A      2.367481  1596A      2.368651  
    1597A      2.370429  1598A      2.376818  1599A      2.379058  
    1600A      2.382722  1601A      2.386811  1602A      2.390268  
    1603A      2.393474  1604A      2.395077  1605A      2.400594  
    1606A      2.401936  1607A      2.402728  1608A      2.404206  
    1609A      2.406026  1610A      2.408292  1611A      2.410601  
    1612A      2.411537  1613A      2.413876  1614A      2.414752  
    1615A      2.416354  1616A      2.418286  1617A      2.421021  
    1618A      2.421576  1619A      2.426413  1620A      2.428917  
    1621A      2.430123  1622A      2.431726  1623A      2.436309  
    1624A      2.438613  1625A      2.456653  1626A      2.460959  
    1627A      2.463853  1628A      2.467434  1629A      2.472127  
    1630A      2.475641  1631A      2.478989  1632A      2.489383  
    1633A      2.492797  1634A      2.499170  1635A      2.501107  
    1636A      2.504295  1637A      2.519384  1638A      2.522830  
    1639A      2.528326  1640A      2.532644  1641A      2.538324  
    1642A      2.539212  1643A      2.542228  1644A      2.543155  
    1645A      2.543852  1646A      2.545109  1647A      2.546635  
    1648A      2.558606  1649A      2.562722  1650A      2.564687  
    1651A      2.575340  1652A      2.577591  1653A      2.581737  
    1654A      2.584371  1655A      2.591451  1656A      2.592241  
    1657A      2.597330  1658A      2.605948  1659A      2.615615  
    1660A      2.615780  1661A      2.616308  1662A      2.617960  
    1663A      2.620959  1664A      2.622960  1665A      2.628206  
    1666A      2.629079  1667A      2.631575  1668A      2.640662  
    1669A      2.640964  1670A      2.643843  1671A      2.644312  
    1672A      2.646704  1673A      2.648987  1674A      2.655480  
    1675A      2.656819  1676A      2.657817  1677A      2.659399  
    1678A      2.659661  1679A      2.662425  1680A      2.665153  
    1681A      2.666195  1682A      2.668656  1683A      2.676784  
    1684A      2.681370  1685A      2.686664  1686A      2.687369  
    1687A      2.688086  1688A      2.689372  1689A      2.691326  
    1690A      2.699463  1691A      2.702064  1692A      2.711439  
    1693A      2.719319  1694A      2.721120  1695A      2.721624  
    1696A      2.723994  1697A      2.725418  1698A      2.726190  
    1699A      2.727679  1700A      2.728933  1701A      2.732300  
    1702A      2.735304  1703A      2.737911  1704A      2.743841  
    1705A      2.744508  1706A      2.745854  1707A      2.752446  
    1708A      2.753633  1709A      2.757503  1710A      2.760177  
    1711A      2.764000  1712A      2.765278  1713A      2.767198  
    1714A      2.768244  1715A      2.771710  1716A      2.772340  
    1717A      2.776161  1718A      2.777264  1719A      2.793285  
    1720A      2.796465  1721A      2.800543  1722A      2.801678  
    1723A      2.804408  1724A      2.804860  1725A      2.809194  
    1726A      2.814052  1727A      2.833268  1728A      2.843709  
    1729A      2.848696  1730A      2.853929  1731A      2.860389  
    1732A      2.861369  1733A      2.870048  1734A      2.876876  
    1735A      2.878249  1736A      2.878642  1737A      2.879968  
    1738A      2.881649  1739A      2.884644  1740A      2.889789  
    1741A      2.890545  1742A      2.891843  1743A      2.896061  
    1744A      2.901343  1745A      2.906930  1746A      2.909772  
    1747A      2.912944  1748A      2.917696  1749A      2.922688  
    1750A      2.925365  1751A      2.927329  1752A      2.940672  
    1753A      2.941768  1754A      2.946129  1755A      2.949422  
    1756A      2.952008  1757A      2.968849  1758A      2.971274  
    1759A      2.972015  1760A      2.975307  1761A      2.989916  
    1762A      2.991221  1763A      3.000312  1764A      3.003229  
    1765A      3.006726  1766A      3.007390  1767A      3.022582  
    1768A      3.037511  1769A      3.040124  1770A      3.040998  
    1771A      3.050562  1772A      3.065179  1773A      3.073494  
    1774A      3.098654  1775A      3.108124  1776A      3.112827  
    1777A      3.117907  1778A      3.120876  1779A      3.128549  
    1780A      3.133613  1781A      3.134581  1782A      3.135426  
    1783A      3.137718  1784A      3.150033  1785A      3.172335  
    1786A      3.184619  1787A      3.185779  1788A      3.189856  
    1789A      3.201205  1790A      3.204517  1791A      3.205782  
    1792A      3.211784  1793A      3.214733  1794A      3.216556  
    1795A      3.217521  1796A      3.220913  1797A      3.224155  
    1798A      3.228250  1799A      3.232200  1800A      3.235586  
    1801A      3.244988  1802A      3.245692  1803A      3.247276  
    1804A      3.251387  1805A      3.258967  1806A      3.268846  
    1807A      3.271077  1808A      3.294311  1809A      3.334764  
    1810A      3.335754  1811A      3.336107  1812A      3.338614  
    1813A      3.339048  1814A      3.341574  1815A      3.348229  
    1816A      3.351324  1817A      3.353105  1818A      3.353858  
    1819A      3.368793  1820A      3.372554  1821A      3.383843  
    1822A      3.389626  1823A      3.435567  1824A      3.438168  
    1825A      3.456668  1826A      3.478234  1827A      3.508132  
    1828A      3.518355  1829A      3.536064  1830A      3.540294  
    1831A      3.544062  1832A      3.547063  1833A      3.553081  
    1834A      3.554042  1835A      3.556540  1836A      3.564849  
    1837A      3.571423  1838A      3.584006  1839A      3.587236  
    1840A      3.602007  1841A      3.634461  1842A      3.635249  
    1843A      3.656382  1844A      3.659416  1845A      3.668557  
    1846A      3.680366  1847A      3.720201  1848A      3.733116  
    1849A      3.740867  1850A      3.748785  1851A      3.769572  
    1852A      3.784419  1853A      3.826343  1854A      3.836525  
    1855A      3.844170  1856A      3.851727  1857A      3.854489  
    1858A      3.895294  1859A      3.919760  1860A      3.922901  
    1861A      3.950795  1862A      3.959882  1863A      3.993717  
    1864A      3.998510  1865A      4.001624  1866A      4.010798  
    1867A      4.021024  1868A      4.043045  1869A      4.050581  
    1870A      4.057433  1871A      4.072153  1872A      4.086765  
    1873A      4.095627  1874A      4.099455  1875A      4.102964  
    1876A      4.109742  1877A      4.145408  1878A      4.176498  
    1879A      4.193796  1880A      4.199796  1881A      4.216962  
    1882A      4.244307  1883A      4.280896  1884A      4.308966  
    1885A      4.355345  1886A      4.447404  1887A      4.455098  
    1888A      4.510471  1889A      4.532328  1890A      4.551202  
    1891A      4.565639  1892A      4.597754  1893A      4.618072  
    1894A      4.639181  1895A      4.665967  1896A      4.703083  
    1897A      4.737948  1898A      4.855332  

    Final Occupation by Irrep:
              A 
    DOCC [   321 ]
    NA   [   321 ]
    NB   [   321 ]

  @DF-RHF Final Energy: -4072.57370727300349

   => Energetics <=

    Nuclear Repulsion Energy =          18040.7471175697210128
    One-Electron Energy =              -41566.6676064357307041
    Two-Electron Energy =               19453.3467815930052893
    Total Energy =                      -4072.5737072730044019

Computation Completed


Properties will be evaluated at   0.000000,   0.000000,   0.000000 [a0]

Properties computed using the SCF density matrix


 Multipole Moments:

 ------------------------------------------------------------------------------------
     Multipole            Electronic (a.u.)      Nuclear  (a.u.)        Total (a.u.)
 ------------------------------------------------------------------------------------

 L = 1.  Multiply by 2.5417464519 to convert [e a0] to [Debye]
 Dipole X            :          0.0014796           -0.0001188            0.0013608
 Dipole Y            :         -0.0019708           -0.0002727           -0.0022434
 Dipole Z            :         12.1959055          -13.0928994           -0.8969939
 Magnitude           :                                                    0.8969977

 ------------------------------------------------------------------------------------

*** tstop() called on n2cn0496.ab2021.local at Sat Jan 27 15:01:36 2024
Module time:
	user time   =   27270.31 seconds =     454.51 minutes
	system time =    1602.37 seconds =      26.71 minutes
	total time  =      12960 seconds =     216.00 minutes
Total time:
	user time   =   27270.31 seconds =     454.51 minutes
	system time =    1602.37 seconds =      26.71 minutes
	total time  =      12960 seconds =     216.00 minutes

  //>>>>>>>>>>>>>>>>>>>>>>>>>>>>>>>>>>>//
  //            Monomer A HF           //
  //<<<<<<<<<<<<<<<<<<<<<<<<<<<<<<<<<<<//

   => Libint2 <=

    Primary   basis highest AM E, G, H:  5, 4, 3
    Auxiliary basis highest AM E, G, H:  6, 5, 4
    Onebody   basis highest AM E, G, H:  6, 5, 4
    Solid Harmonics ordering:            gaussian

*** tstart() called on n2cn0496.ab2021.local
*** at Sat Jan 27 15:01:37 2024

   => Loading Basis Set <=

    Name: JUN-CC-PVDZ
    Role: ORBITAL
    Keyword: BASIS
    atoms 1                                                   entry B          line   130 file /opt/software/pc2/EB-SW/software/PSI4/1.9-foss-2022a/share/psi4/basis/jun-cc-pvdz.gbs 
    atoms 2-5                                                 entry F          line   266 file /opt/software/pc2/EB-SW/software/PSI4/1.9-foss-2022a/share/psi4/basis/jun-cc-pvdz.gbs 
    atoms 6-23, 30-42, 45-59, 62-78, 81-93, 98-108, 111-119   entry C          line   164 file /opt/software/pc2/EB-SW/software/PSI4/1.9-foss-2022a/share/psi4/basis/jun-cc-pvdz.gbs 
    atoms 24-29, 43-44, 60-61, 79-80, 94-97, 109-110, 120-125 entry H          line    36 file /opt/software/pc2/EB-SW/software/PSI4/1.9-foss-2022a/share/psi4/basis/jun-cc-pvdz.gbs 


         ---------------------------------------------------------
                                   SCF
               by Justin Turney, Rob Parrish, Andy Simmonett
                          and Daniel G. A. Smith
                              RHF Reference
                       16 Threads,  61035 MiB Core
         ---------------------------------------------------------

  ==> Geometry <==

    Molecular point group: c1
    Full point group: C1

    Geometry (in Angstrom), charge = -1, multiplicity = 1:

       Center              X                  Y                   Z               Mass       
    ------------   -----------------  -----------------  -----------------  -----------------
         B           -0.000050191042     0.000351518223     2.048464753678    11.009305360000
         F           -1.153601191042     0.000062518223     2.864111753678    18.998403162730
         F            1.153656808958    -0.000566481777     2.864111753678    18.998403162730
         F           -0.000023191042    -1.153622481777     1.232830753678    18.998403162730
         F           -0.000023191042     1.153992518223     1.232830753678    18.998403162730
      Gh(C)          -3.668445455062     7.803766688305    -0.149629204987    12.000000000000
      Gh(C)          -4.847602910388     7.131256349563    -0.151995779919    12.000000000000
      Gh(C)          -4.894963490217     5.696344921754    -0.152568691018    12.000000000000
      Gh(C)          -3.653744869815     4.980744859182    -0.144908249288    12.000000000000
      Gh(C)          -2.409429312536     7.113995554897    -0.149434862727    12.000000000000
      Gh(C)          -2.425481535146     5.681136469126    -0.156439751597    12.000000000000
      Gh(C)          -1.194748207477     7.786158712532    -0.147962682185    12.000000000000
      Gh(C)           0.037954837895     7.099436163980    -0.150133386490    12.000000000000
      Gh(C)           0.030328396378     5.669504077927    -0.155616771405    12.000000000000
      Gh(C)          -1.200988698947     4.969284866138    -0.146647037472    12.000000000000
      Gh(C)           1.277953634773     7.772873961417    -0.148757537929    12.000000000000
      Gh(C)           2.485353893683     7.087711403460    -0.151032025834    12.000000000000
      Gh(C)           2.486124493876     5.654785328463    -0.157969774822    12.000000000000
      Gh(C)           1.254078728602     4.956092631887    -0.146341833233    12.000000000000
      Gh(C)           3.751710400364     7.763926669203    -0.150905174454    12.000000000000
      Gh(C)           4.923561865144     7.078795295213    -0.152961655161    12.000000000000
      Gh(C)           4.955603080284     5.643461981592    -0.153122067968    12.000000000000
      Gh(C)           3.706797343163     4.941224726556    -0.148030507799    12.000000000000
      Gh(H)          -3.658525328800     8.890841937358    -0.147944216737     1.007825032230
      Gh(H)          -1.189217520798     8.874135605583    -0.143990805744     1.007825032230
      Gh(H)           1.284290047845     8.860847953711    -0.144598713788     1.007825032230
      Gh(H)           3.753537895758     8.851049797195    -0.149382650138     1.007825032230
      Gh(H)           5.869954512165     7.613809352878    -0.153887022204     1.007825032230
[...]
    1531A      2.187474  1532A      2.191302  1533A      2.195897  
    1534A      2.196072  1535A      2.199102  1536A      2.200594  
    1537A      2.201615  1538A      2.203058  1539A      2.204345  
    1540A      2.205667  1541A      2.205931  1542A      2.208524  
    1543A      2.212780  1544A      2.214133  1545A      2.217681  
    1546A      2.220394  1547A      2.222145  1548A      2.223731  
    1549A      2.227231  1550A      2.229008  1551A      2.229748  
    1552A      2.231453  1553A      2.231558  1554A      2.232477  
    1555A      2.232762  1556A      2.236089  1557A      2.237766  
    1558A      2.242535  1559A      2.245414  1560A      2.247422  
    1561A      2.251173  1562A      2.252812  1563A      2.256244  
    1564A      2.261820  1565A      2.264481  1566A      2.266365  
    1567A      2.267668  1568A      2.273080  1569A      2.274240  
    1570A      2.276031  1571A      2.280435  1572A      2.282710  
    1573A      2.284741  1574A      2.287177  1575A      2.290091  
    1576A      2.292911  1577A      2.294389  1578A      2.297711  
    1579A      2.298767  1580A      2.304651  1581A      2.306590  
    1582A      2.310235  1583A      2.320261  1584A      2.322940  
    1585A      2.325474  1586A      2.326465  1587A      2.327395  
    1588A      2.329552  1589A      2.331035  1590A      2.331671  
    1591A      2.334416  1592A      2.335894  1593A      2.339595  
    1594A      2.341678  1595A      2.342357  1596A      2.344322  
    1597A      2.345211  1598A      2.345530  1599A      2.346713  
    1600A      2.346824  1601A      2.353456  1602A      2.355335  
    1603A      2.359613  1604A      2.361281  1605A      2.381339  
    1606A      2.385511  1607A      2.387392  1608A      2.388473  
    1609A      2.395982  1610A      2.401687  1611A      2.402068  
    1612A      2.413176  1613A      2.418498  1614A      2.419081  
    1615A      2.424367  1616A      2.430172  1617A      2.432520  
    1618A      2.438713  1619A      2.442939  1620A      2.449993  
    1621A      2.452964  1622A      2.457764  1623A      2.464782  
    1624A      2.467262  1625A      2.468567  1626A      2.470133  
    1627A      2.472098  1628A      2.472511  1629A      2.481671  
    1630A      2.485534  1631A      2.493004  1632A      2.494773  
    1633A      2.502938  1634A      2.507691  1635A      2.511473  
    1636A      2.514023  1637A      2.519388  1638A      2.524349  
    1639A      2.534533  1640A      2.542126  1641A      2.543006  
    1642A      2.543500  1643A      2.545754  1644A      2.549478  
    1645A      2.550848  1646A      2.554475  1647A      2.555768  
    1648A      2.557156  1649A      2.558792  1650A      2.564447  
    1651A      2.565989  1652A      2.571773  1653A      2.572113  
    1654A      2.578186  1655A      2.585584  1656A      2.585981  
    1657A      2.587005  1658A      2.587641  1659A      2.589516  
    1660A      2.591061  1661A      2.593370  1662A      2.594610  
    1663A      2.596332  1664A      2.603074  1665A      2.603682  
    1666A      2.614579  1667A      2.614760  1668A      2.615541  
    1669A      2.617031  1670A      2.619343  1671A      2.625109  
    1672A      2.636855  1673A      2.644383  1674A      2.645879  
    1675A      2.648253  1676A      2.650072  1677A      2.651601  
    1678A      2.653931  1679A      2.654932  1680A      2.655944  
    1681A      2.657326  1682A      2.660218  1683A      2.667022  
    1684A      2.671153  1685A      2.672544  1686A      2.672734  
    1687A      2.673547  1688A      2.676738  1689A      2.681523  
    1690A      2.682907  1691A      2.689239  1692A      2.689961  
    1693A      2.692428  1694A      2.692617  1695A      2.693987  
    1696A      2.695071  1697A      2.697605  1698A      2.700268  
    1699A      2.705433  1700A      2.716566  1701A      2.724030  
    1702A      2.727968  1703A      2.731588  1704A      2.732305  
    1705A      2.733862  1706A      2.738524  1707A      2.753469  
    1708A      2.776304  1709A      2.778165  1710A      2.784337  
    1711A      2.787731  1712A      2.792290  1713A      2.795531  
    1714A      2.800642  1715A      2.801202  1716A      2.802273  
    1717A      2.804197  1718A      2.814856  1719A      2.815767  
    1720A      2.817654  1721A      2.818640  1722A      2.825647  
    1723A      2.826847  1724A      2.827945  1725A      2.831605  
    1726A      2.843007  1727A      2.844046  1728A      2.847224  
    1729A      2.850997  1730A      2.855157  1731A      2.855909  
    1732A      2.866553  1733A      2.867577  1734A      2.872402  
    1735A      2.877246  1736A      2.877918  1737A      2.883432  
    1738A      2.895835  1739A      2.896075  1740A      2.917164  
    1741A      2.918823  1742A      2.923394  1743A      2.927548  
    1744A      2.929864  1745A      2.931858  1746A      2.937705  
    1747A      2.950619  1748A      2.966303  1749A      2.969119  
    1750A      2.970645  1751A      2.976908  1752A      2.978047  
    1753A      2.993073  1754A      3.007137  1755A      3.030170  
    1756A      3.036740  1757A      3.043583  1758A      3.047201  
    1759A      3.049497  1760A      3.057801  1761A      3.058485  
    1762A      3.059836  1763A      3.064759  1764A      3.068922  
    1765A      3.074139  1766A      3.110435  1767A      3.112195  
    1768A      3.115845  1769A      3.125953  1770A      3.130801  
    1771A      3.131403  1772A      3.143375  1773A      3.143745  
    1774A      3.145098  1775A      3.151785  1776A      3.151857  
    1777A      3.154652  1778A      3.155642  1779A      3.157336  
    1780A      3.162267  1781A      3.167291  1782A      3.169842  
    1783A      3.173288  1784A      3.181387  1785A      3.189625  
    1786A      3.194365  1787A      3.196999  1788A      3.221850  
    1789A      3.257086  1790A      3.262184  1791A      3.263869  
    1792A      3.264928  1793A      3.266378  1794A      3.268275  
    1795A      3.272420  1796A      3.276848  1797A      3.277707  
    1798A      3.278044  1799A      3.299050  1800A      3.300083  
    1801A      3.318113  1802A      3.325603  1803A      3.347123  
    1804A      3.361509  1805A      3.363876  1806A      3.387605  
    1807A      3.403281  1808A      3.422496  1809A      3.458316  
    1810A      3.460868  1811A      3.461569  1812A      3.473193  
    1813A      3.475848  1814A      3.478066  1815A      3.480713  
    1816A      3.483014  1817A      3.490689  1818A      3.492192  
    1819A      3.516045  1820A      3.520974  1821A      3.543021  
    1822A      3.558985  1823A      3.581801  1824A      3.583910  
    1825A      3.589307  1826A      3.594185  1827A      3.655739  
    1828A      3.660006  1829A      3.672690  1830A      3.677424  
    1831A      3.705307  1832A      3.737974  1833A      3.762726  
    1834A      3.766110  1835A      3.777386  1836A      3.779168  
    1837A      3.792561  1838A      3.849161  1839A      3.849990  
    1840A      3.875556  1841A      3.880203  1842A      3.922777  
    1843A      3.924742  1844A      3.948674  1845A      3.949992  
    1846A      3.964374  1847A      3.973124  1848A      3.981131  
    1849A      3.999868  1850A      4.023944  1851A      4.027676  
    1852A      4.075416  1853A      4.115644  1854A      4.272273  
    1855A      4.401013  1856A      4.438691  1857A      4.505372  
    1858A      4.643825  1859A      4.819494  1860A      4.971814  
    1861A      5.035411  1862A      5.772487  1863A      5.786916  
    1864A      5.819058  1865A      5.837788  1866A      5.853345  
    1867A      5.895243  1868A      5.916155  1869A      5.989060  
    1870A      5.995836  1871A      6.027472  1872A      6.084853  
    1873A      6.111461  1874A      6.190014  1875A      6.258596  
    1876A      6.351162  1877A      6.365058  1878A      6.385518  
    1879A      6.437686  1880A      6.454174  1881A      6.486987  
    1882A      7.410099  1883A      7.428300  1884A      7.482462  
    1885A      7.518830  1886A      7.736408  1887A      7.754568  
    1888A      7.769092  1889A      7.824342  1890A      7.915887  
    1891A      8.070954  1892A      8.234697  1893A      8.301571  
    1894A     13.246052  1895A     42.965314  1896A     42.986356  
    1897A     42.995253  1898A     43.006569  

    Final Occupation by Irrep:
              A 
    DOCC [   300 ]
    NA   [   300 ]
    NB   [   300 ]

  @DF-RHF Final Energy: -3650.34137650866933

   => Energetics <=

    Nuclear Repulsion Energy =          15611.4211649754324753
    One-Electron Energy =              -36072.1714867962873541
    Two-Electron Energy =               16810.4089453121850966
    Total Energy =                      -3650.3413765086697822

Computation Completed


Properties will be evaluated at   0.000000,   0.000000,   0.000000 [a0]

Properties computed using the SCF density matrix


 Multipole Moments:

 ------------------------------------------------------------------------------------
     Multipole            Electronic (a.u.)      Nuclear  (a.u.)        Total (a.u.)
 ------------------------------------------------------------------------------------

 L = 1.  Multiply by 2.5417464519 to convert [e a0] to [Debye]
 Dipole X            :          0.0001744            0.0001983            0.0003728
 Dipole Y            :          0.0009672           -0.0013163           -0.0003491
 Dipole Z            :        171.8097409         -171.8058734            0.0038675
 Magnitude           :                                                    0.0039011

 ------------------------------------------------------------------------------------

*** tstop() called on n2cn0496.ab2021.local at Sat Jan 27 17:21:17 2024
Module time:
	user time   =   17659.65 seconds =     294.33 minutes
	system time =    1080.07 seconds =      18.00 minutes
	total time  =       5093 seconds =      84.88 minutes
Total time:
	user time   =   49829.32 seconds =     830.49 minutes
	system time =    2981.16 seconds =      49.69 minutes
	total time  =      21341 seconds =     355.68 minutes
  Constructing Basis Sets for SAPT...

   => Loading Basis Set <=

    Name: (JUN-CC-PVDZ AUX)
    Role: RIFIT
    Keyword: DF_BASIS_SAPT
    atoms 1                                                   entry B          line    56 file /opt/software/pc2/EB-SW/software/PSI4/1.9-foss-2022a/share/psi4/basis/jun-cc-pvdz-ri.gbs 
    atoms 2-5                                                 entry F          line   232 file /opt/software/pc2/EB-SW/software/PSI4/1.9-foss-2022a/share/psi4/basis/jun-cc-pvdz-ri.gbs 
    atoms 6-23, 30-42, 45-59, 62-78, 81-93, 98-108, 111-119   entry C          line   100 file /opt/software/pc2/EB-SW/software/PSI4/1.9-foss-2022a/share/psi4/basis/jun-cc-pvdz-ri.gbs 
    atoms 24-29, 43-44, 60-61, 79-80, 94-97, 109-110, 120-125 entry H          line    30 file /opt/software/pc2/EB-SW/software/PSI4/1.9-foss-2022a/share/psi4/basis/jun-cc-pvdz-ri.gbs 

   => Loading Basis Set <=

    Name: (JUN-CC-PVDZ AUX)
    Role: JKFIT
    Keyword: DF_BASIS_ELST
    atoms 1                                                   entry B          line    90 file /opt/software/pc2/EB-SW/software/PSI4/1.9-foss-2022a/share/psi4/basis/jun-cc-pvdz-jkfit.gbs 
    atoms 2-5                                                 entry F          line   314 file /opt/software/pc2/EB-SW/software/PSI4/1.9-foss-2022a/share/psi4/basis/jun-cc-pvdz-jkfit.gbs 
    atoms 6-23, 30-42, 45-59, 62-78, 81-93, 98-108, 111-119   entry C          line   146 file /opt/software/pc2/EB-SW/software/PSI4/1.9-foss-2022a/share/psi4/basis/jun-cc-pvdz-jkfit.gbs 
    atoms 24-29, 43-44, 60-61, 79-80, 94-97, 109-110, 120-125 entry H          line    70 file /opt/software/pc2/EB-SW/software/PSI4/1.9-foss-2022a/share/psi4/basis/jun-cc-pvdz-jkfit.gbs 


  //>>>>>>>>>>>>>>>>>>>>>>>>>>>>>>>>>>>//
  //               SSAPT0              //
  //<<<<<<<<<<<<<<<<<<<<<<<<<<<<<<<<<<<//


*** tstart() called on n2cn0496.ab2021.local
*** at Sat Jan 27 17:21:19 2024

        SAPT0  
    Ed Hohenstein
     6 June 2009

      Orbital Information
  --------------------------
    NSO        =      1938
    NMO        =      1898
    NRI        =      6901
    NRI (Elst) =      8531
    NOCC A     =        21
    NOCC B     =       300
    FOCC A     =         5
    FOCC B     =        96
    NVIR A     =      1877
    NVIR B     =      1598

    Elst10,r            =    -0.668371040191 [Eh]
    Exch10              =     1.491060597466 [Eh]
    Exch10 (S^2)        =     1.262688245699 [Eh]

    Iter     Energy [mEh]          dE [mEh]         Residual      Time [s]
       1    -334.35921273     334.359212732     148.980032217           573
       2    -382.53176861      48.172555882      63.503554398          1120
       3    -409.24549842      26.713729810      12.988863171          1766
       4    -408.98455783      -0.260940593       3.320489570          2341
       5    -408.24184762      -0.742710215       0.805978659          2858
       6    -408.21702511      -0.024822507       0.230172923          3557
       7    -408.25266429       0.035639180       0.049260760          4197
       8    -408.25197260      -0.000691691       0.010898305          4898
       9    -408.25097997      -0.000992630       0.001554555          5511
      10    -408.25114018       0.000160215       0.000310653          6256
      11    -408.25112828      -0.000011900       0.000056112          6924
      12    -408.25112675      -0.000001535       0.000014553          7659
      13    -408.25112720       0.000000447       0.000004619          8323
      14    -408.25112743       0.000000236       0.000001097          9228
      15    -408.25112737      -0.000000063       0.000000126          9997

    CHF Iterations converged


    Iter     Energy [mEh]          dE [mEh]         Residual      Time [s]
       1    -635.44833657     635.448336568     180.379332135           829
       2    -668.79724486      33.348908289      79.800572270          1511
       3    -750.76348384      81.966238985      24.229616347          2137
       4    -750.38858671      -0.374897128      12.835698376          2680
       5    -745.88193078      -4.506655937       6.283639042          3272
       6    -745.87522208      -0.006708693       3.317096233          3745
       7    -746.83233996       0.957117880       1.632635976          4332
       8    -746.96503421       0.132694248       0.873878174          4869
       9    -746.76391040      -0.201123813       0.443985146          5593
      10    -746.73519065      -0.028719752       0.207245250          6541
      11    -746.77054973       0.035359079       0.091313490          7385
      12    -746.77802270       0.007472976       0.043698651          8167
      13    -746.77377336      -0.004249339       0.021710201          9185
      14    -746.77097252      -0.002800841       0.013654566         10230
      15    -746.77210297       0.001130452       0.010371366         11230
      16    -746.77295085       0.000847882       0.006981639         12154
      17    -746.77262402      -0.000326833       0.003027795         13089
      18    -746.77233278      -0.000291239       0.001232317         14086
      19    -746.77239211       0.000059328       0.000551150         15052
      20    -746.77244514       0.000053032       0.000291901         15943
      21    -746.77244299      -0.000002152       0.000152115         16867
      22    -746.77242865      -0.000014338       0.000070786         17976
      23    -746.77242793      -0.000000717       0.000032670         18939
      24    -746.77243048       0.000002543       0.000012950         19849
      25    -746.77243072       0.000000243       0.000005832         20558
      26    -746.77243043      -0.000000289       0.000002490         21282
      27    -746.77243033      -0.000000104       0.000001148         22262
      28    -746.77243039       0.000000056       0.000000687         23021

    CHF Iterations converged

    Ind20,r (A<-B)      =    -0.408251127369 [Eh]
    Ind20,r (B<-A)      =    -0.746772430385 [Eh]
    Ind20,r             =    -1.155023557754 [Eh]
    Exch-Ind20,r (A<-B) =     0.220131213335 [Eh]
    Exch-Ind20,r (B<-A) =     0.482835039331 [Eh]
    Exch-Ind20,r        =     0.702966252665 [Eh]
    Disp20              =    -0.186826588985 [Eh]
    Disp20 (SS)         =    -0.093413294493 [Eh]
    Disp20 (OS)         =    -0.093413294493 [Eh]
    Exch-Disp20         =     0.073690634896 [Eh]
    Exch-Disp20 (SS)    =     0.033018315425 [Eh]
    Exch-Disp20 (OS)    =     0.040672319471 [Eh]

    SAPT Results 
  --------------------------------------------------------------------------------------------------------
    Electrostatics               -668.37104019 [mEh]    -419.40915972 [kcal/mol]   -1754.80792426 [kJ/mol]
      Elst10,r                   -668.37104019 [mEh]    -419.40915972 [kcal/mol]   -1754.80792426 [kJ/mol]

    Exchange                     1491.06059747 [mEh]     935.65465089 [kcal/mol]    3914.77905931 [kJ/mol]
      Exch10                     1491.06059747 [mEh]     935.65465089 [kcal/mol]    3914.77905931 [kJ/mol]
      Exch10(S^2)                1262.68824570 [mEh]     792.34883660 [kcal/mol]    3315.18753235 [kJ/mol]

    Induction                    -275.65856800 [mEh]    -172.97836295 [kcal/mol]    -723.74147058 [kJ/mol]
      Ind20,r                   -1155.02355775 [mEh]    -724.78822493 [kcal/mol]   -3032.51393310 [kJ/mol]
      Exch-Ind20,r                702.96625267 [mEh]     441.11798329 [kcal/mol]    1845.63764210 [kJ/mol]
      delta HF,r (2)              176.39873709 [mEh]     110.69187868 [kcal/mol]     463.13482041 [kJ/mol]

    Dispersion                   -113.13595409 [mEh]     -70.99388302 [kcal/mol]    -297.03840654 [kJ/mol]
      Disp20                     -186.82658899 [mEh]    -117.23545454 [kcal/mol]    -490.51314180 [kJ/mol]
      Exch-Disp20                  73.69063490 [mEh]      46.24157153 [kcal/mol]     193.47473527 [kJ/mol]
      Disp20 (SS)                 -93.41329449 [mEh]     -58.61772727 [kcal/mol]    -245.25657090 [kJ/mol]
      Disp20 (OS)                 -93.41329449 [mEh]     -58.61772727 [kcal/mol]    -245.25657090 [kJ/mol]
      Exch-Disp20 (SS)             33.01831543 [mEh]      20.71930574 [kcal/mol]      86.68957521 [kJ/mol]
      Exch-Disp20 (OS)             40.67231947 [mEh]      25.52226579 [kcal/mol]     106.78516006 [kJ/mol]

  Total HF                        547.03098927 [mEh]     343.26712822 [kcal/mol]    1436.22966446 [kJ/mol]
  Total SAPT0                     433.89503518 [mEh]     272.27324520 [kcal/mol]    1139.19125792 [kJ/mol]

  Special recipe for scaled SAPT0 (see Manual):
    Electrostatics sSAPT0        -668.37104019 [mEh]    -419.40915972 [kcal/mol]   -1754.80792426 [kJ/mol]
    Exchange sSAPT0              1491.06059747 [mEh]     935.65465089 [kcal/mol]    3914.77905931 [kJ/mol]
    Induction sSAPT0              178.90435060 [mEh]     112.26417490 [kcal/mol]     469.71330780 [kJ/mol]
    Dispersion sSAPT0             -65.48497519 [mEh]     -41.09244232 [kcal/mol]    -171.93077867 [kJ/mol]
  Total sSAPT0                    936.10893269 [mEh]     587.41722375 [kcal/mol]    2457.75366417 [kJ/mol]
  --------------------------------------------------------------------------------------------------------

*** tstop() called on n2cn0496.ab2021.local at Mon Jan 29 09:54:25 2024
Module time:
	user time   =   72783.61 seconds =    1213.06 minutes
	system time =    3669.86 seconds =      61.16 minutes
	total time  =     145986 seconds =    2433.10 minutes
Total time:
	user time   =  122614.42 seconds =    2043.57 minutes
	system time =    6651.03 seconds =     110.85 minutes
	total time  =     167329 seconds =    2788.82 minutes

    Psi4 stopped on: Monday, 29 January 2024 09:54AM
    Psi4 wall time for execution: 1 day, 22:28:51.26

*** Psi4 exiting successfully. Buy a developer a beer!
