
    -----------------------------------------------------------------------
          Psi4: An Open-Source Ab Initio Electronic Structure Package
                               Psi4 1.9 release

                         Git: Rev {} zzzzzzz 


    D. G. A. Smith, L. A. Burns, A. C. Simmonett, R. M. Parrish,
    M. C. Schieber, R. Galvelis, P. Kraus, H. Kruse, R. Di Remigio,
    A. Alenaizan, A. M. James, S. Lehtola, J. P. Misiewicz, M. Scheurer,
    R. A. Shaw, J. B. Schriber, Y. Xie, Z. L. Glick, D. A. Sirianni,
    J. S. O'Brien, J. M. Waldrop, A. Kumar, E. G. Hohenstein,
    B. P. Pritchard, B. R. Brooks, H. F. Schaefer III, A. Yu. Sokolov,
    K. Patkowski, A. E. DePrince III, U. Bozkaya, R. A. King,
    F. A. Evangelista, J. M. Turney, T. D. Crawford, C. D. Sherrill,
    J. Chem. Phys. 152(18) 184108 (2020). https://doi.org/10.1063/5.0006002

                            Additional Code Authors
    E. T. Seidl, C. L. Janssen, E. F. Valeev, M. L. Leininger,
    J. F. Gonthier, R. M. Richard, H. R. McAlexander, M. Saitow, X. Wang,
    P. Verma, M. H. Lechner, A. Jiang, S. Behnle, A. G. Heide,
    M. F. Herbst, and D. L. Poole

             Previous Authors, Complete List of Code Contributors,
                       and Citations for Specific Modules
    https://github.com/psi4/psi4/blob/master/codemeta.json
    https://github.com/psi4/psi4/graphs/contributors
    http://psicode.org/psi4manual/master/introduction.html#citing-psifour

    -----------------------------------------------------------------------


    Psi4 started on: Saturday, 20 January 2024 10:10PM

    Process ID: 3313902
    Host:       d-6-9-4
    PSIDATADIR: /home/gridsan/tfroembgen/.conda/envs/psi4test/share/psi4
    Memory:     500.0 MiB
    Threads:    12
    
  ==> Input File <==

--------------------------------------------------------------------------
memory 32 GB # how much memory is available ! Depends on the nodes/cores !

molecule dimer {
# monomer A
-1 1    # Charge and multiplicity
B -1.977592e-04  2.742729e-04 -6.799966
F  1.123153e-16  1.430594e-17 -5.387181
F  1.147860e+00  6.757812e-01 -7.271107
F  1.191806e-02 -1.332011e+00 -7.270905
F -1.159666e+00  6.560735e-01 -7.270826
--
# monomer B
0 1     # Charge and multiplicity
C   1.22531237526482      0.70753866091955      0.00613762728373
C   1.22532433589282     -0.70753852257020     -0.00619318228664
C   -0.00000567409046      1.41496628609039     -0.00672680580738
C   2.45644923379077      1.41832825917820      0.00902448468363
C   0.00001130712078     -1.41497612663474      0.00347275151708
C   -1.22530046906674      0.70754574598412      0.00838914760619
C   2.45643823516184     -1.41832293188077     -0.00843833914343
C   -0.00000085313587      2.83680140328112     -0.00913035594137
C   3.68182717731192      0.70931832800114     -0.00808954934571
C   2.45512052870677      2.83422403348893     -0.00819210630633
C   3.68182158506039     -0.70933346742900      0.00798293467272
C   -1.22531311884624     -0.70752714354401     -0.00512042085974
C   1.22670006104402      3.54346985599427      0.00816696660346
C   0.00000526469929     -2.83678176723568      0.00832091913869
C   -2.45643555300670      1.41831729028492      0.00842454345199
C   2.45512389762097     -2.83422965658853      0.00783102630520
C   -1.22671388474763      3.54346943575023      0.00827029982280
C   4.91451777504333      1.42717324448953     -0.00160886631602
C   3.69315067131765      3.54279566454522     -0.00155906667985
C   -2.45643712022637     -1.41831290883911     -0.00846337726810
C   1.22670532178455     -3.54347386990643     -0.00780316414624
C   -2.45512491866593      2.83421703463423     -0.00818572995999
C   4.91452486062398     -1.42718653794377      0.00136387641845
C   1.22142509354026      4.97013443726031      0.00150231067809
C   4.89300870916237      2.82518837202648     -0.00039219795739
C   -1.22669652864725     -3.54347062507680     -0.00753595973677
C   -3.68181849668397      0.70932533873199     -0.00807686886569
C   3.69314758099218     -3.54280096939050      0.00148176697923
C   -1.22143177215231      4.97012866986289      0.00168580605083
C   6.13477145276790      0.68054831910577     -0.00083909176631
C   3.65678936045204      4.97295361556775     -0.00065042889723
C   -2.45512642789169     -2.83421472106065      0.00758666850712
C   -3.68181869921921     -0.70932533146830      0.00810055625144
C   4.89301309775526     -2.82519973363176      0.00021895393805
C   -0.00000059327114      5.65044773803267      0.00045449734393
C   6.13477559217374     -0.68055448207492      0.00042622874941
C   2.47813196269732      5.65357712333155      0.00063835075260
C   1.22142288457925     -4.97012668293268     -0.00129718634452
C   -3.69316190412301      3.54279732619245     -0.00139355922051
C   -1.22142804110313     -4.97011793159564     -0.00140994817719
C   -4.91452132810043      1.42717581899491     -0.00153192130862
C   3.65678749952045     -4.97295485423912      0.00080007163680
C   -2.47813805026426      5.65357479452875      0.00092287576113
C   -3.69314125872231     -3.54278984697859      0.00136564082345
C   -4.91451200321153     -1.42718062802730      0.00139857359209
C   -0.00000552908399     -5.65043791501335      0.00005899322272
C   -4.89302000425900      2.82518897091939     -0.00040227981744
C   2.47812647313991     -5.65357317188818     -0.00029052915548
C   -3.65679823041642      4.97295655404175     -0.00047374852278
C   -4.89299899901461     -2.82519139505969      0.00006491824035
C   -2.47812801824129     -5.65356579800621     -0.00056571680280
C   -6.13477002348955      0.68054913825639     -0.00086464346868
C   -3.65678835334731     -4.97294365097028      0.00058578382008
C   -6.13476456307132     -0.68055354348201      0.00040575295444
H   5.83528897565761      3.36927626695423      0.00396712770529
H   7.07385965258860      1.22821762089947     -0.00037744837300
H   4.60066374401555      5.51238117445323     -0.00014522814529
H   5.83528386714679     -3.36930568472863     -0.00423551337640
H   -0.00001167146422      6.73853104613662     -0.00389474766392
H   7.07386165167227     -1.22822657074368     -0.00008250934481
H   2.47331421164041      6.74068466339473      0.00017162982210
H   4.60066897122302     -5.51237575717576      0.00039007446835
H   -2.47331820069565      6.74068209160650      0.00047297644710
H   -0.00000978838621     -6.73852780445195      0.00458867820736
H   -5.83530143450167      3.36927132229595      0.00410314985360
H   2.47330840367253     -6.74068500242887      0.00027980126949
H   -4.60067436136587      5.51237839860371      0.00002010017831
H   -5.83527902699321     -3.36928859177951     -0.00451481925734
H   -2.47329986759855     -6.74067870613986     -0.00016951527498
H   -7.07385728692578      1.22822084484047     -0.00046143985387
H   -4.60067330624313     -5.51236229778631      0.00021776644566
H   -7.07385645456741     -1.22822025997701     -0.00017736581114

    units angstrom      # Angstroms are the default
    no_reorient         # Geometry fixed, default
    symmetry c1         # C1 symmetry, default
}

set {
    scf_type DF         # Density fitting, faster than exact integrals
    freeze_core True    # Freeze core electrons
    basis jun-cc-pVDZ   # Jun-cc-pVDZ basis set, recommended for sSAPT0 in https://doi.org/10.1063/1.4867135
}

energy('ssapt0')        # Compute sSAPT0 energy, includes also SAPT0
--------------------------------------------------------------------------

  Memory set to  29.802 GiB by Python driver.

Scratch directory: /state/partition1/slurm_tmp/24778928.4294967291.0/
   => Loading Basis Set <=

    Name: JUN-CC-PVDZ
    Role: ORBITAL
    Keyword: BASIS
    atoms 1     entry B          line   130 file /home/gridsan/tfroembgen/.conda/envs/psi4test/share/psi4/basis/jun-cc-pvdz.gbs 
    atoms 2-5   entry F          line   266 file /home/gridsan/tfroembgen/.conda/envs/psi4test/share/psi4/basis/jun-cc-pvdz.gbs 
    atoms 6-59  entry C          line   164 file /home/gridsan/tfroembgen/.conda/envs/psi4test/share/psi4/basis/jun-cc-pvdz.gbs 
    atoms 60-77 entry H          line    36 file /home/gridsan/tfroembgen/.conda/envs/psi4test/share/psi4/basis/jun-cc-pvdz.gbs 

   => Loading Basis Set <=

    Name: JUN-CC-PVDZ
    Role: ORBITAL
    Keyword: BASIS
    atoms 1     entry B          line   130 file /home/gridsan/tfroembgen/.conda/envs/psi4test/share/psi4/basis/jun-cc-pvdz.gbs 
    atoms 2-5   entry F          line   266 file /home/gridsan/tfroembgen/.conda/envs/psi4test/share/psi4/basis/jun-cc-pvdz.gbs 
    atoms 6-59  entry C          line   164 file /home/gridsan/tfroembgen/.conda/envs/psi4test/share/psi4/basis/jun-cc-pvdz.gbs 
    atoms 60-77 entry H          line    36 file /home/gridsan/tfroembgen/.conda/envs/psi4test/share/psi4/basis/jun-cc-pvdz.gbs 


  //>>>>>>>>>>>>>>>>>>>>>>>>>>>>>>>>>>>//
  //              Dimer HF             //
  //<<<<<<<<<<<<<<<<<<<<<<<<<<<<<<<<<<<//

   => Libint2 <=

    Primary   basis highest AM E, G, H:  7, 7, 4
    Auxiliary basis highest AM E, G, H:  7, 7, 5
    Onebody   basis highest AM E, G, H:  7, 7, 5
    Solid Harmonics ordering:            gaussian

*** tstart() called on d-6-9-4
*** at Sat Jan 20 22:10:37 2024

   => Loading Basis Set <=

    Name: JUN-CC-PVDZ
    Role: ORBITAL
    Keyword: BASIS
    atoms 1     entry B          line   130 file /home/gridsan/tfroembgen/.conda/envs/psi4test/share/psi4/basis/jun-cc-pvdz.gbs 
    atoms 2-5   entry F          line   266 file /home/gridsan/tfroembgen/.conda/envs/psi4test/share/psi4/basis/jun-cc-pvdz.gbs 
    atoms 6-59  entry C          line   164 file /home/gridsan/tfroembgen/.conda/envs/psi4test/share/psi4/basis/jun-cc-pvdz.gbs 
    atoms 60-77 entry H          line    36 file /home/gridsan/tfroembgen/.conda/envs/psi4test/share/psi4/basis/jun-cc-pvdz.gbs 


         ---------------------------------------------------------
                                   SCF
               by Justin Turney, Rob Parrish, Andy Simmonett
                          and Daniel G. A. Smith
                              RHF Reference
                       12 Threads,  30517 MiB Core
         ---------------------------------------------------------

  ==> Geometry <==

    Molecular point group: c1
    Full point group: C1

    Geometry (in Angstrom), charge = -1, multiplicity = 1:

       Center              X                  Y                   Z               Mass       
    ------------   -----------------  -----------------  -----------------  -----------------
         B           -0.000198161052     0.000273808717    -6.014430047244    11.009305360000
         F           -0.000000401852    -0.000000464183    -4.601645047244    18.998403162730
         F            1.147859598148     0.675780735817    -6.485571047244    18.998403162730
         F            0.011917658148    -1.332011464183    -6.485369047244    18.998403162730
         F           -1.159666401852     0.656073035817    -6.485290047244    18.998403162730
         C            1.225311973413     0.707538196736     0.791673580040    12.000000000000
         C            1.225323934041    -0.707538986754     0.779342770470    12.000000000000
         C           -0.000006075942     1.414965821907     0.778809146949    12.000000000000
         C            2.456448831939     1.418327794995     0.794560437440    12.000000000000
         C            0.000010905269    -1.414976590818     0.789008704274    12.000000000000
         C           -1.225300870919     0.707545281801     0.793925100363    12.000000000000
         C            2.456437833310    -1.418323396064     0.777097613613    12.000000000000
         C           -0.000001254988     2.836800939098     0.776405596815    12.000000000000
         C            3.681826775460     0.709317863818     0.777446403411    12.000000000000
         C            2.455120126855     2.834223569306     0.777343846450    12.000000000000
         C            3.681821183209    -0.709333931612     0.793518887429    12.000000000000
         C           -1.225313520698    -0.707527607727     0.780415531897    12.000000000000
         C            1.226699659192     3.543469391811     0.793702919360    12.000000000000
         C            0.000004862847    -2.836782231419     0.793856871895    12.000000000000
         C           -2.456435954859     1.418316826102     0.793960496208    12.000000000000
         C            2.455123495769    -2.834230120772     0.793366979062    12.000000000000
         C           -1.226714286599     3.543468971567     0.793806252579    12.000000000000
         C            4.914517373191     1.427172780306     0.783927086440    12.000000000000
         C            3.693150269466     3.542795200362     0.783976886077    12.000000000000
         C           -2.456437522078    -1.418313373022     0.777072575488    12.000000000000
         C            1.226704919933    -3.543474334090     0.777732788610    12.000000000000
         C           -2.455125320518     2.834216570451     0.777350222796    12.000000000000
         C            4.914524458772    -1.427187002127     0.786899829175    12.000000000000
         C            1.221424691688     4.970133973077     0.787038263435    12.000000000000
         C            4.893008307311     2.825187907843     0.785143754799    12.000000000000
         C           -1.226696930499    -3.543471089260     0.777999993020    12.000000000000
         C           -3.681818898536     0.709324874549     0.777459083891    12.000000000000
         C            3.693147179140    -3.542801433574     0.787017719736    12.000000000000
         C           -1.221432174004     4.970128205680     0.787221758807    12.000000000000
         C            6.134771050916     0.680547854922     0.784696860990    12.000000000000
         C            3.656788958600     4.972953151384     0.784885523859    12.000000000000
         C           -2.455126829744    -2.834215185244     0.793122621264    12.000000000000
         C           -3.681819101071    -0.709325795652     0.793636509008    12.000000000000
         C            4.893012695903    -2.825200197815     0.785754906695    12.000000000000
         C           -0.000000995123     5.650447273849     0.785990450100    12.000000000000
         C            6.134775190322    -0.680554946258     0.785962181506    12.000000000000
         C            2.478131560845     5.653576659148     0.786174303509    12.000000000000
         C            1.221422482727    -4.970127147116     0.784238766412    12.000000000000
         C           -3.693162305975     3.542796862009     0.784142393536    12.000000000000
         C           -1.221428442955    -4.970118395779     0.784126004579    12.000000000000
         C           -4.914521729952     1.427175354812     0.784004031448    12.000000000000
         C            3.656787097669    -4.972955318422     0.786336024393    12.000000000000
         C           -2.478138452116     5.653574330345     0.786458828518    12.000000000000
         C           -3.693141660574    -3.542790311162     0.786901593580    12.000000000000
         C           -4.914512405063    -1.427181092211     0.786934526349    12.000000000000
         C           -0.000005930936    -5.650438379197     0.785594945979    12.000000000000
         C           -4.893020406111     2.825188506736     0.785133672939    12.000000000000
         C            2.478126071288    -5.653573636072     0.785245423601    12.000000000000
         C           -3.656798632268     4.972956089858     0.785062204234    12.000000000000
         C           -4.892999400866    -2.825191859243     0.785600870997    12.000000000000
         C           -2.478128420093    -5.653566262190     0.784970235954    12.000000000000
         C           -6.134770425341     0.680548674073     0.784671309288    12.000000000000
         C           -3.656788755199    -4.972944115154     0.786121736577    12.000000000000
         C           -6.134764964923    -0.680554007665     0.785941705711    12.000000000000
         H            5.835288573806     3.369275802771     0.789503080462     1.007825032230
         H            7.073859250737     1.228217156716     0.785158504383     1.007825032230
         H            4.600663342164     5.512380710270     0.785390724611     1.007825032230
         H            5.835283465295    -3.369306148912     0.781300439380     1.007825032230
         H           -0.000012073316     6.738530581953     0.781641205093     1.007825032230
         H            7.073861249820    -1.228227034927     0.785453443412     1.007825032230
         H            2.473313809789     6.740684199211     0.785707582579     1.007825032230
         H            4.600668569371    -5.512376221359     0.785926027225     1.007825032230
         H           -2.473318602548     6.740681627423     0.786008929204     1.007825032230
         H           -0.000010190238    -6.738528268635     0.790124630964     1.007825032230
         H           -5.835301836354     3.369270858113     0.789639102610     1.007825032230
         H            2.473308001821    -6.740685466612     0.785815754026     1.007825032230
         H           -4.600674763218     5.512377934420     0.785556052935     1.007825032230
         H           -5.835279428845    -3.369289055963     0.781021133499     1.007825032230
         H           -2.473300269450    -6.740679170323     0.785366437481     1.007825032230
         H           -7.073857688778     1.228220380657     0.785074512903     1.007825032230
         H           -4.600673708095    -5.512362761970     0.785753719202     1.007825032230
         H           -7.073856856419    -1.228220724160     0.785358586945     1.007825032230

  Running in c1 symmetry.

  Rotational constants: A =      0.00150  B =      0.00150  C =      0.00110 [cm^-1]
  Rotational constants: A =     44.88146  B =     44.87680  C =     33.02251 [MHz]
  Nuclear repulsion = 7533.834197953356124

  Charge       = -1
  Multiplicity = 1
  Electrons    = 384
  Nalpha       = 192
  Nbeta        = 192

  ==> Algorithm <==

  SCF Algorithm Type is DF.
  DIIS enabled.
  MOM disabled.
  Fractional occupation disabled.
  Guess Type is SAD.
  Energy threshold   = 1.00e-08
  Density threshold  = 1.00e-08
  Integral threshold = 1.00e-12

  ==> Primary Basis <==

  Basis Set: JUN-CC-PVDZ
    Blend: JUN-CC-PVDZ
    Number of shells: 526
    Number of basis functions: 1152
    Number of Cartesian functions: 1211
    Spherical Harmonics?: true
    Max angular momentum: 2

   => Loading Basis Set <=

    Name: (JUN-CC-PVDZ AUX)
    Role: JKFIT
    Keyword: DF_BASIS_SCF
    atoms 1     entry B          line    90 file /home/gridsan/tfroembgen/.conda/envs/psi4test/share/psi4/basis/jun-cc-pvdz-jkfit.gbs 
    atoms 2-5   entry F          line   314 file /home/gridsan/tfroembgen/.conda/envs/psi4test/share/psi4/basis/jun-cc-pvdz-jkfit.gbs 
    atoms 6-59  entry C          line   146 file /home/gridsan/tfroembgen/.conda/envs/psi4test/share/psi4/basis/jun-cc-pvdz-jkfit.gbs 
    atoms 60-77 entry H          line    70 file /home/gridsan/tfroembgen/.conda/envs/psi4test/share/psi4/basis/jun-cc-pvdz-jkfit.gbs 

  ==> Integral Setup <==

  ==> DiskDFJK: Density-Fitted J/K Matrices <==

    J tasked:                  Yes
    K tasked:                  Yes
    wK tasked:                  No
    OpenMP threads:             12
    Integrals threads:          12
    Memory [MiB]:            22888
    Algorithm:                Core
    Integral Cache:           SAVE
    Schwarz Cutoff:          1E-12
    Fitting Condition:       1E-10

   => Auxiliary Basis Set <=

  Basis Set: (JUN-CC-PVDZ AUX)
    Blend: JUN-CC-PVDZ-JKFIT
    Number of shells: 1755
    Number of basis functions: 5075
    Number of Cartesian functions: 5819
    Spherical Harmonics?: true
    Max angular momentum: 3

  Minimum eigenvalue in the overlap matrix is 8.3993147855E-10.
  Reciprocal condition number of the overlap matrix is 3.7512164580E-11.
    Using canonical orthogonalization.
  Overall, 14 of 1152 possible MOs eliminated.


  ==> Pre-Iterations <==

  SCF Guess: Superposition of Atomic Densities via on-the-fly atomic UHF (no occupation information).

   -------------------------
    Irrep   Nso     Nmo    
   -------------------------
     A       1152    1138 
   -------------------------
    Total    1152    1138
   -------------------------

  ==> Iterations <==

                           Total Energy        Delta E     RMS |[F,P]|

   @DF-RHF iter SAD: -2483.25993395098067   -2.48326e+03   0.00000e+00 
   @DF-RHF iter   1: -2477.62352360228306    5.63641e+00   1.09855e-03 ADIIS/DIIS
   @DF-RHF iter   2: -2478.51079833859148   -8.87275e-01   4.74894e-04 ADIIS/DIIS
   @DF-RHF iter   3: -2478.64243602956913   -1.31638e-01   1.31100e-04 ADIIS/DIIS
   @DF-RHF iter   4: -2478.65545991547287   -1.30239e-02   5.30654e-05 DIIS
   @DF-RHF iter   5: -2478.65780808064028   -2.34817e-03   1.59484e-05 DIIS
   @DF-RHF iter   6: -2478.65808777815664   -2.79698e-04   5.37689e-06 DIIS
   @DF-RHF iter   7: -2478.65816835952046   -8.05814e-05   2.64380e-06 DIIS
   @DF-RHF iter   8: -2478.65819051316794   -2.21536e-05   1.21557e-06 DIIS
   @DF-RHF iter   9: -2478.65819709464540   -6.58148e-06   2.49119e-07 DIIS
   @DF-RHF iter  10: -2478.65819731246802   -2.17823e-07   8.79221e-08 DIIS
   @DF-RHF iter  11: -2478.65819732887394   -1.64059e-08   3.41515e-08 DIIS
   @DF-RHF iter  12: -2478.65819733240733   -3.53339e-09   1.17449e-08 DIIS
   @DF-RHF iter  13: -2478.65819733276840   -3.61069e-10   4.73775e-09 DIIS
  Energy and wave function converged.


  ==> Post-Iterations <==

    Orbital Energies [Eh]
    ---------------------

    Doubly Occupied:                                                      

       1A    -26.064642     2A    -26.064547     3A    -26.064461  
       4A    -26.064116     5A    -11.199193     6A    -11.199182  
       7A    -11.199179     8A    -11.199134     9A    -11.199129  
      10A    -11.199121    11A    -11.199098    12A    -11.199086  
      13A    -11.199082    14A    -11.199037    15A    -11.199030  
      16A    -11.199029    17A    -11.198075    18A    -11.197935  
      19A    -11.197932    20A    -11.197756    21A    -11.197755  
      22A    -11.197684    23A    -11.197295    24A    -11.196954  
      25A    -11.196950    26A    -11.196837    27A    -11.196740  
      28A    -11.196739    29A    -11.196328    30A    -11.196327  
      31A    -11.196194    32A    -11.195876    33A    -11.195873  
      34A    -11.195832    35A    -11.195690    36A    -11.195689  
      37A    -11.195618    38A    -11.195451    39A    -11.195450  
      40A    -11.195153    41A    -11.194817    42A    -11.194816  
      43A    -11.194816    44A    -11.194814    45A    -11.194812  
      46A    -11.194810    47A    -11.193395    48A    -11.193394  
      49A    -11.193392    50A    -11.193391    51A    -11.193388  
      52A    -11.193387    53A    -11.192423    54A    -11.192422  
      55A    -11.192419    56A    -11.192395    57A    -11.192395  
      58A    -11.192394    59A     -7.536725    60A     -1.408381  
      61A     -1.348778    62A     -1.348618    63A     -1.348401  
      64A     -1.182412    65A     -1.159230    66A     -1.159230  
      67A     -1.129602    68A     -1.129594    69A     -1.120061  
      70A     -1.098306    71A     -1.089188    72A     -1.074998  
      73A     -1.074991    74A     -1.054031    75A     -1.054026  
      76A     -1.022273    77A     -1.022266    78A     -1.018399  
      79A     -1.007001    80A     -1.006997    81A     -0.979967  
      82A     -0.963614    83A     -0.961082    84A     -0.961039  
      85A     -0.958649    86A     -0.954006    87A     -0.927083  
      88A     -0.927038    89A     -0.902660    90A     -0.902611  
      91A     -0.835176    92A     -0.835148    93A     -0.827389  
      94A     -0.825541    95A     -0.825484    96A     -0.821427  
      97A     -0.821379    98A     -0.802796    99A     -0.779193  
     100A     -0.758940   101A     -0.756434   102A     -0.752321  
     103A     -0.752312   104A     -0.735955   105A     -0.735944  
     106A     -0.686471   107A     -0.684966   108A     -0.673536  
     109A     -0.673528   110A     -0.673388   111A     -0.673365  
     112A     -0.657001   113A     -0.639887   114A     -0.639875  
     115A     -0.634188   116A     -0.634172   117A     -0.602577  
     118A     -0.599675   119A     -0.593619   120A     -0.591724  
     121A     -0.591718   122A     -0.591187   123A     -0.580422  
     124A     -0.580420   125A     -0.570142   126A     -0.568020  
     127A     -0.568004   128A     -0.548529   129A     -0.543849  
     130A     -0.541824   131A     -0.540899   132A     -0.540867  
     133A     -0.533969   134A     -0.531010   135A     -0.530999  
     136A     -0.527347   137A     -0.525907   138A     -0.525826  
     139A     -0.525770   140A     -0.515255   141A     -0.515249  
     142A     -0.508868   143A     -0.508853   144A     -0.506303  
     145A     -0.506287   146A     -0.499052   147A     -0.496325  
     148A     -0.496318   149A     -0.479990   150A     -0.479987  
     151A     -0.478004   152A     -0.477999   153A     -0.470550  
     154A     -0.466607   155A     -0.463716   156A     -0.463708  
     157A     -0.444723   158A     -0.444681   159A     -0.442042  
     160A     -0.436361   161A     -0.434494   162A     -0.427955  
     163A     -0.425380   164A     -0.422483   165A     -0.422475  
     166A     -0.409322   167A     -0.409306   168A     -0.405903  
     169A     -0.405863   170A     -0.405809   171A     -0.390758  
     172A     -0.390679   173A     -0.382503   174A     -0.382337  
     175A     -0.382272   176A     -0.380012   177A     -0.380002  
     178A     -0.344179   179A     -0.344156   180A     -0.342645  
     181A     -0.316650   182A     -0.316647   183A     -0.289412  
     184A     -0.275776   185A     -0.274695   186A     -0.274643  
     187A     -0.251787   188A     -0.239807   189A     -0.223582  
     190A     -0.223527   191A     -0.165234   192A     -0.165170  

    Virtual:                                                              

     193A      0.073465   194A      0.073529   195A      0.098768  
     196A      0.098771   197A      0.100688   198A      0.101261  
     199A      0.101267   200A      0.108215   201A      0.112335  
     202A      0.123286   203A      0.123288   204A      0.124917  
     205A      0.124964   206A      0.134852   207A      0.138062  
     208A      0.138067   209A      0.141234   210A      0.141552  
     211A      0.141583   212A      0.143696   213A      0.143702  
     214A      0.145867   215A      0.148064   216A      0.149673  
     217A      0.149674   218A      0.157824   219A      0.158536  
     220A      0.163455   221A      0.163463   222A      0.167441  
     223A      0.169795   224A      0.173274   225A      0.173309  
     226A      0.174934   227A      0.181527   228A      0.181830  
     229A      0.181844   230A      0.183363   231A      0.185183  
     232A      0.185189   233A      0.186924   234A      0.188000  
     235A      0.188004   236A      0.193025   237A      0.195088  
     238A      0.196623   239A      0.200725   240A      0.200738  
     241A      0.204869   242A      0.204874   243A      0.207701  
     244A      0.207702   245A      0.212538   246A      0.212543  
     247A      0.225932   248A      0.226690   249A      0.226694  
     250A      0.231512   251A      0.231551   252A      0.234499  
     253A      0.235648   254A      0.235661   255A      0.236212  
     256A      0.241555   257A      0.241565   258A      0.243474  
     259A      0.245535   260A      0.245559   261A      0.247514  
     262A      0.252197   263A      0.252201   264A      0.255765  
     265A      0.258104   266A      0.258109   267A      0.261915  
     268A      0.263226   269A      0.263290   270A      0.263305  
     271A      0.266297   272A      0.266683   273A      0.266706  
     274A      0.268135   275A      0.268862   276A      0.269173  
     277A      0.278191   278A      0.280100   279A      0.280376  
     280A      0.280407   281A      0.282066   282A      0.282101  
     283A      0.282288   284A      0.285172   285A      0.285199  
     286A      0.285697   287A      0.290723   288A      0.290739  
     289A      0.298534   290A      0.298594   291A      0.298596  
     292A      0.299339   293A      0.299359   294A      0.301858  
     295A      0.311574   296A      0.311578   297A      0.312378  
     298A      0.312421   299A      0.313831   300A      0.313847  
     301A      0.320091   302A      0.320106   303A      0.325947  
     304A      0.325955   305A      0.329655   306A      0.329661  
     307A      0.331717   308A      0.333182   309A      0.333247  
     310A      0.335834   311A      0.335876   312A      0.338193  
     313A      0.348525   314A      0.348540   315A      0.349924  
     316A      0.349927   317A      0.355876   318A      0.356001  
     319A      0.358334   320A      0.358904   321A      0.358917  
     322A      0.361093   323A      0.363187   324A      0.363258  
     325A      0.364466   326A      0.365910   327A      0.367243  
     328A      0.367272   329A      0.371287   330A      0.371292  
     331A      0.371869   332A      0.376389   333A      0.376399  
     334A      0.377107   335A      0.378132   336A      0.380719  
     337A      0.382011   338A      0.383680   339A      0.387627  
     340A      0.388330   341A      0.388361   342A      0.390845  
     343A      0.390918   344A      0.395089   345A      0.400330  
     346A      0.400356   347A      0.402362   348A      0.403443  
     349A      0.403458   350A      0.404428   351A      0.407110  
     352A      0.407111   353A      0.408108   354A      0.409070  
     355A      0.409084   356A      0.414397   357A      0.422497  
     358A      0.422524   359A      0.423062   360A      0.423143  
     361A      0.428959   362A      0.429008   363A      0.429945  
     364A      0.433891   365A      0.438681   366A      0.438715  
     367A      0.445049   368A      0.445059   369A      0.445191  
     370A      0.445271   371A      0.446720   372A      0.448980  
     373A      0.450662   374A      0.451874   375A      0.451938  
     376A      0.452092   377A      0.454421   378A      0.454483  
     379A      0.455300   380A      0.455331   381A      0.459945  
     382A      0.459957   383A      0.461310   384A      0.464309  
     385A      0.467444   386A      0.467518   387A      0.467786  
     388A      0.468131   389A      0.469754   390A      0.469824  
     391A      0.471390   392A      0.472299   393A      0.472316  
     394A      0.475576   395A      0.477766   396A      0.477820  
     397A      0.480933   398A      0.482054   399A      0.482098  
     400A      0.483677   401A      0.483714   402A      0.493691  
     403A      0.493881   404A      0.496843   405A      0.498000  
     406A      0.498280   407A      0.499415   408A      0.500247  
     409A      0.500419   410A      0.504387   411A      0.504418  
     412A      0.506982   413A      0.506996   414A      0.508312  
     415A      0.510178   416A      0.510206   417A      0.518160  
     418A      0.521055   419A      0.521068   420A      0.521518  
     421A      0.526823   422A      0.526902   423A      0.527210  
     424A      0.528406   425A      0.533118   426A      0.533126  
     427A      0.534163   428A      0.538777   429A      0.538802  
     430A      0.539976   431A      0.540008   432A      0.542602  
     433A      0.546515   434A      0.546573   435A      0.546792  
     436A      0.549761   437A      0.549808   438A      0.553099  
     439A      0.553115   440A      0.557428   441A      0.562311  
     442A      0.563697   443A      0.563729   444A      0.564123  
     445A      0.567635   446A      0.573340   447A      0.574024  
     448A      0.574528   449A      0.574569   450A      0.577514  
     451A      0.583739   452A      0.583827   453A      0.588948  
     454A      0.589105   455A      0.590092   456A      0.590242  
     457A      0.593800   458A      0.598596   459A      0.603622  
     460A      0.604974   461A      0.605003   462A      0.608756  
     463A      0.610232   464A      0.610255   465A      0.611098  
     466A      0.613394   467A      0.613466   468A      0.619355  
     469A      0.619963   470A      0.620063   471A      0.620997  
     472A      0.621016   473A      0.624774   474A      0.629661  
     475A      0.629686   476A      0.638829   477A      0.652245  
     478A      0.652493   479A      0.654886   480A      0.658902  
     481A      0.658966   482A      0.673993   483A      0.677222  
     484A      0.677308   485A      0.685552   486A      0.685594  
     487A      0.686001   488A      0.686085   489A      0.702573  
     490A      0.704438   491A      0.704669   492A      0.706933  
     493A      0.712243   494A      0.712267   495A      0.715768  
     496A      0.728716   497A      0.728860   498A      0.728895  
     499A      0.736734   500A      0.736744   501A      0.740428  
     502A      0.742011   503A      0.742101   504A      0.770651  
     505A      0.775444   506A      0.775515   507A      0.792785  
     508A      0.799369   509A      0.802446   510A      0.802630  
     511A      0.802932   512A      0.803016   513A      0.815839  
     514A      0.815852   515A      0.822532   516A      0.826565  
     517A      0.836445   518A      0.850005   519A      0.855732  
     520A      0.855802   521A      0.864326   522A      0.867130  
     523A      0.870691   524A      0.870722   525A      0.872807  
     526A      0.881875   527A      0.882290   528A      0.882577  
     529A      0.886293   530A      0.886329   531A      0.886483  
     532A      0.894465   533A      0.902849   534A      0.902991  
     535A      0.913589   536A      0.913655   537A      0.919615  
     538A      0.920142   539A      0.923465   540A      0.923541  
     541A      0.928360   542A      0.929156   543A      0.929562  
     544A      0.934696   545A      0.934753   546A      0.936596  
     547A      0.937146   548A      0.947289   549A      0.947382  
     550A      0.949127   551A      0.949192   552A      0.956180  
     553A      0.956306   554A      0.956855   555A      0.957883  
     556A      0.958934   557A      0.966522   558A      0.966912  
     559A      0.969001   560A      0.971469   561A      0.976532  
     562A      0.977346   563A      0.977568   564A      0.980860  
     565A      0.981667   566A      0.985176   567A      0.986683  
     568A      0.987015   569A      0.991582   570A      0.991928  
     571A      0.994990   572A      0.995143   573A      1.003069  
     574A      1.003208   575A      1.007771   576A      1.007856  
     577A      1.012984   578A      1.015670   579A      1.015797  
     580A      1.026818   581A      1.027113   582A      1.030801  
     583A      1.031230   584A      1.032347   585A      1.032412  
     586A      1.035674   587A      1.037693   588A      1.037956  
     589A      1.044074   590A      1.047405   591A      1.047466  
     592A      1.050878   593A      1.059625   594A      1.059676  
     595A      1.064785   596A      1.072379   597A      1.072386  
     598A      1.075017   599A      1.075680   600A      1.075698  
     601A      1.091171   602A      1.091208   603A      1.096303  
     604A      1.096509   605A      1.097067   606A      1.099141  
     607A      1.099218   608A      1.102272   609A      1.102386  
     610A      1.104363   611A      1.104431   612A      1.105261  
     613A      1.107435   614A      1.108844   615A      1.112491  
     616A      1.112527   617A      1.112722   618A      1.119445  
     619A      1.121908   620A      1.123777   621A      1.124237  
     622A      1.129094   623A      1.129110   624A      1.136385  
     625A      1.136395   626A      1.136863   627A      1.140174  
     628A      1.143748   629A      1.146271   630A      1.146323  
     631A      1.148653   632A      1.148792   633A      1.151483  
     634A      1.151522   635A      1.163042   636A      1.163091  
     637A      1.163547   638A      1.165274   639A      1.165347  
     640A      1.174772   641A      1.174804   642A      1.183906  
     643A      1.185007   644A      1.185688   645A      1.185804  
     646A      1.187164   647A      1.187311   648A      1.193787  
     649A      1.197852   650A      1.197938   651A      1.201967  
     652A      1.203744   653A      1.203764   654A      1.205974  
     655A      1.207832   656A      1.214141   657A      1.223556  
     658A      1.235340   659A      1.236076   660A      1.239468  
     661A      1.239704   662A      1.244491   663A      1.245604  
     664A      1.245653   665A      1.255009   666A      1.255128  
     667A      1.260017   668A      1.260117   669A      1.269675  
     670A      1.276977   671A      1.277028   672A      1.280567  
     673A      1.282028   674A      1.282062   675A      1.295314  
     676A      1.295885   677A      1.296010   678A      1.316018  
     679A      1.316110   680A      1.320445   681A      1.320566  
     682A      1.322492   683A      1.322618   684A      1.323640  
     685A      1.323738   686A      1.332336   687A      1.335390  
     688A      1.347923   689A      1.347942   690A      1.348051  
     691A      1.353033   692A      1.354507   693A      1.356452  
     694A      1.357448   695A      1.361893   696A      1.361914  
     697A      1.367599   698A      1.367616   699A      1.367964  
     700A      1.371852   701A      1.378573   702A      1.378649  
     703A      1.380944   704A      1.380958   705A      1.389768  
     706A      1.389864   707A      1.393306   708A      1.399277  
     709A      1.400840   710A      1.405260   711A      1.405322  
     712A      1.412135   713A      1.415317   714A      1.415345  
     715A      1.417787   716A      1.417817   717A      1.421745  
     718A      1.421785   719A      1.424558   720A      1.426935  
     721A      1.426946   722A      1.437900   723A      1.451191  
     724A      1.459319   725A      1.463377   726A      1.463399  
     727A      1.468967   728A      1.468975   729A      1.470718  
     730A      1.470752   731A      1.479845   732A      1.480615  
     733A      1.486958   734A      1.487081   735A      1.489316  
     736A      1.490509   737A      1.495250   738A      1.495286  
     739A      1.498631   740A      1.498870   741A      1.499121  
     742A      1.503755   743A      1.507094   744A      1.507099  
     745A      1.510001   746A      1.524642   747A      1.524657  
     748A      1.534336   749A      1.534491   750A      1.575811  
     751A      1.575870   752A      1.581701   753A      1.581723  
     754A      1.588778   755A      1.612721   756A      1.637973  
     757A      1.640063   758A      1.640130   759A      1.644404  
     760A      1.660676   761A      1.661234   762A      1.664014  
     763A      1.670120   764A      1.670532   765A      1.670578  
     766A      1.675435   767A      1.675647   768A      1.680792  
     769A      1.683138   770A      1.683217   771A      1.691984  
     772A      1.692350   773A      1.700286   774A      1.700322  
     775A      1.704181   776A      1.704237   777A      1.704276  
     778A      1.705066   779A      1.709916   780A      1.720766  
     781A      1.720788   782A      1.727038   783A      1.735851  
     784A      1.735878   785A      1.737550   786A      1.737843  
     787A      1.737890   788A      1.742637   789A      1.746972  
     790A      1.747025   791A      1.755515   792A      1.756949  
     793A      1.758514   794A      1.758558   795A      1.761834  
     796A      1.766125   797A      1.766192   798A      1.774888  
     799A      1.774906   800A      1.801573   801A      1.811952  
     802A      1.818580   803A      1.818598   804A      1.818684  
     805A      1.821175   806A      1.836317   807A      1.836343  
     808A      1.850957   809A      1.850978   810A      1.875334  
     811A      1.875374   812A      1.875559   813A      1.879410  
     814A      1.885346   815A      1.885446   816A      1.890433  
     817A      1.890514   818A      1.897078   819A      1.902870  
     820A      1.903261   821A      1.919328   822A      1.919369  
     823A      1.920855   824A      1.920907   825A      1.923070  
     826A      1.928440   827A      1.931993   828A      1.940530  
     829A      1.940571   830A      1.946647   831A      1.946727  
     832A      1.956192   833A      1.956312   834A      1.957585  
     835A      1.961155   836A      1.961280   837A      1.969049  
     838A      1.969170   839A      1.973741   840A      1.974003  
     841A      1.977584   842A      1.977738   843A      1.979234  
     844A      1.981906   845A      1.981992   846A      1.997910  
     847A      1.999277   848A      1.999391   849A      2.002118  
     850A      2.003663   851A      2.003727   852A      2.006558  
     853A      2.006630   854A      2.013586   855A      2.014815  
     856A      2.014910   857A      2.016592   858A      2.016611  
     859A      2.017782   860A      2.028120   861A      2.029428  
     862A      2.043931   863A      2.044075   864A      2.049494  
     865A      2.052785   866A      2.052868   867A      2.056631  
     868A      2.057532   869A      2.057606   870A      2.062564  
     871A      2.066138   872A      2.071688   873A      2.071844  
     874A      2.088282   875A      2.088467   876A      2.090040  
     877A      2.090554   878A      2.090892   879A      2.090994  
     880A      2.091182   881A      2.107598   882A      2.111402  
     883A      2.111604   884A      2.118095   885A      2.118956  
     886A      2.122126   887A      2.122178   888A      2.128591  
     889A      2.129069   890A      2.132369   891A      2.132699  
     892A      2.135220   893A      2.136258   894A      2.136380  
     895A      2.143034   896A      2.143177   897A      2.143438  
     898A      2.146887   899A      2.147000   900A      2.151966  
     901A      2.152662   902A      2.155248   903A      2.155741  
     904A      2.158820   905A      2.160068   906A      2.160147  
     907A      2.167786   908A      2.167826   909A      2.168641  
     910A      2.170611   911A      2.170674   912A      2.175589  
     913A      2.178352   914A      2.178430   915A      2.181111  
     916A      2.181236   917A      2.185980   918A      2.186056  
     919A      2.194054   920A      2.194061   921A      2.194611  
     922A      2.194684   923A      2.197640   924A      2.202183  
     925A      2.202204   926A      2.216372   927A      2.220535  
     928A      2.220548   929A      2.222962   930A      2.222981  
     931A      2.232164   932A      2.237543   933A      2.237627  
     934A      2.248583   935A      2.248940   936A      2.251819  
     937A      2.252800   938A      2.257481   939A      2.257599  
     940A      2.259449   941A      2.279222   942A      2.281167  
     943A      2.281212   944A      2.286661   945A      2.289731  
     946A      2.290035   947A      2.291184   948A      2.300694  
     949A      2.301001   950A      2.302146   951A      2.302536  
     952A      2.305089   953A      2.318206   954A      2.318324  
     955A      2.329304   956A      2.329320   957A      2.330608  
     958A      2.330653   959A      2.338593   960A      2.358935  
     961A      2.365606   962A      2.370761   963A      2.372611  
     964A      2.382684   965A      2.383698   966A      2.391580  
     967A      2.392415   968A      2.392519   969A      2.394932  
     970A      2.410952   971A      2.411560   972A      2.412216  
     973A      2.412436   974A      2.426794   975A      2.426890  
     976A      2.436225   977A      2.440237   978A      2.474558  
     979A      2.483765   980A      2.483950   981A      2.483987  
     982A      2.495281   983A      2.501349   984A      2.501394  
     985A      2.529878   986A      2.531952   987A      2.532115  
     988A      2.544585   989A      2.544605   990A      2.561895  
     991A      2.578096   992A      2.589341   993A      2.589918  
     994A      2.602393   995A      2.604512   996A      2.604561  
     997A      2.612053   998A      2.612122   999A      2.615782  
    1000A      2.619332  1001A      2.619340  1002A      2.632608  
    1003A      2.632733  1004A      2.632777  1005A      2.633170  
    1006A      2.645286  1007A      2.645429  1008A      2.647393  
    1009A      2.649102  1010A      2.649318  1011A      2.664801  
    1012A      2.682153  1013A      2.682250  1014A      2.685818  
    1015A      2.691511  1016A      2.692039  1017A      2.699702  
    1018A      2.699773  1019A      2.709139  1020A      2.709484  
    1021A      2.715726  1022A      2.742062  1023A      2.742958  
    1024A      2.743253  1025A      2.744639  1026A      2.763150  
    1027A      2.763479  1028A      2.773349  1029A      2.773356  
    1030A      2.778675  1031A      2.778693  1032A      2.782185  
    1033A      2.782409  1034A      2.799165  1035A      2.811198  
    1036A      2.811615  1037A      2.837611  1038A      2.854789  
    1039A      2.854935  1040A      2.875691  1041A      2.887201  
    1042A      2.887776  1043A      2.912003  1044A      2.912140  
    1045A      2.917475  1046A      2.919547  1047A      2.919611  
    1048A      2.919871  1049A      2.927519  1050A      2.954998  
    1051A      2.955123  1052A      2.975505  1053A      2.975529  
    1054A      2.977150  1055A      2.983234  1056A      2.992296  
    1057A      2.992354  1058A      3.008844  1059A      3.008878  
    1060A      3.021468  1061A      3.067005  1062A      3.067174  
    1063A      3.069737  1064A      3.087728  1065A      3.124842  
    1066A      3.124878  1067A      3.130472  1068A      3.130547  
    1069A      3.168374  1070A      3.169193  1071A      3.186015  
    1072A      3.188827  1073A      3.189122  1074A      3.196409  
    1075A      3.205522  1076A      3.205561  1077A      3.206051  
    1078A      3.207715  1079A      3.207723  1080A      3.216564  
    1081A      3.216958  1082A      3.224568  1083A      3.225045  
    1084A      3.249876  1085A      3.269364  1086A      3.277269  
    1087A      3.279148  1088A      3.296676  1089A      3.334397  
    1090A      3.336640  1091A      3.336804  1092A      3.341847  
    1093A      3.342014  1094A      3.476897  1095A      3.477356  
    1096A      3.507368  1097A      3.542664  1098A      3.545312  
    1099A      3.610672  1100A      3.638753  1101A      3.640731  
    1102A      3.655081  1103A      3.686363  1104A      3.688360  
    1105A      3.722925  1106A      3.729528  1107A      3.829499  
    1108A      3.843693  1109A      3.844686  1110A      3.929746  
    1111A      3.929758  1112A      3.972605  1113A      3.972716  
    1114A      4.037631  1115A      4.071705  1116A      4.095602  
    1117A      4.107489  1118A      4.145439  1119A      4.174857  
    1120A      4.175541  1121A      4.175602  1122A      4.203148  
    1123A      4.203168  1124A      4.203324  1125A      4.203858  
    1126A      4.203936  1127A      4.236117  1128A      4.236135  
    1129A      4.242723  1130A      4.450449  1131A      4.450583  
    1132A      4.450935  1133A      4.651658  1134A      4.652147  
    1135A      4.652211  1136A      4.751898  1137A      4.787417  
    1138A      4.787734  

    Final Occupation by Irrep:
              A 
    DOCC [   192 ]
    NA   [   192 ]
    NB   [   192 ]

  @DF-RHF Final Energy: -2478.65819733276840

   => Energetics <=

    Nuclear Repulsion Energy =           7533.8341979533561243
    One-Electron Energy =              -18419.6315860528666235
    Two-Electron Energy =                8407.1391907667421037
    Total Energy =                      -2478.6581973327683954

Computation Completed


Properties will be evaluated at   0.000000,   0.000000,   0.000000 [a0]

Properties computed using the SCF density matrix


 Multipole Moments:

 ------------------------------------------------------------------------------------
     Multipole            Electronic (a.u.)      Nuclear  (a.u.)        Total (a.u.)
 ------------------------------------------------------------------------------------

 L = 1.  Multiply by 2.5417464519 to convert [e a0] to [Debye]
 Dipole X            :         -0.0005071            0.0000481           -0.0004590
 Dipole Y            :          0.0010432           -0.0001453            0.0008979
 Dipole Z            :        -31.1122956           41.6864235           10.5741280
 Magnitude           :                                                   10.5741280

 ------------------------------------------------------------------------------------

*** tstop() called on d-6-9-4 at Sat Jan 20 22:16:55 2024
Module time:
	user time   =    3429.43 seconds =      57.16 minutes
	system time =      92.74 seconds =       1.55 minutes
	total time  =        378 seconds =       6.30 minutes
Total time:
	user time   =    3429.43 seconds =      57.16 minutes
	system time =      92.74 seconds =       1.55 minutes
	total time  =        378 seconds =       6.30 minutes

  //>>>>>>>>>>>>>>>>>>>>>>>>>>>>>>>>>>>//
  //            Monomer A HF           //
  //<<<<<<<<<<<<<<<<<<<<<<<<<<<<<<<<<<<//

   => Libint2 <=

    Primary   basis highest AM E, G, H:  7, 7, 4
    Auxiliary basis highest AM E, G, H:  7, 7, 5
    Onebody   basis highest AM E, G, H:  7, 7, 5
    Solid Harmonics ordering:            gaussian

*** tstart() called on d-6-9-4
*** at Sat Jan 20 22:16:55 2024

   => Loading Basis Set <=

    Name: JUN-CC-PVDZ
    Role: ORBITAL
    Keyword: BASIS
    atoms 1     entry B          line   130 file /home/gridsan/tfroembgen/.conda/envs/psi4test/share/psi4/basis/jun-cc-pvdz.gbs 
    atoms 2-5   entry F          line   266 file /home/gridsan/tfroembgen/.conda/envs/psi4test/share/psi4/basis/jun-cc-pvdz.gbs 
    atoms 6-59  entry C          line   164 file /home/gridsan/tfroembgen/.conda/envs/psi4test/share/psi4/basis/jun-cc-pvdz.gbs 
    atoms 60-77 entry H          line    36 file /home/gridsan/tfroembgen/.conda/envs/psi4test/share/psi4/basis/jun-cc-pvdz.gbs 


         ---------------------------------------------------------
                                   SCF
               by Justin Turney, Rob Parrish, Andy Simmonett
                          and Daniel G. A. Smith
                              RHF Reference
                       12 Threads,  30517 MiB Core
         ---------------------------------------------------------

  ==> Geometry <==

    Molecular point group: c1
    Full point group: C1

    Geometry (in Angstrom), charge = -1, multiplicity = 1:

       Center              X                  Y                   Z               Mass       
    ------------   -----------------  -----------------  -----------------  -----------------
         B           -0.000198161052     0.000273808717    -6.014430047244    11.009305360000
         F           -0.000000401852    -0.000000464183    -4.601645047244    18.998403162730
         F            1.147859598148     0.675780735817    -6.485571047244    18.998403162730
         F            0.011917658148    -1.332011464183    -6.485369047244    18.998403162730
         F           -1.159666401852     0.656073035817    -6.485290047244    18.998403162730
      Gh(C)           1.225311973413     0.707538196736     0.791673580040    12.000000000000
      Gh(C)           1.225323934041    -0.707538986754     0.779342770470    12.000000000000
      Gh(C)          -0.000006075942     1.414965821907     0.778809146949    12.000000000000
      Gh(C)           2.456448831939     1.418327794995     0.794560437440    12.000000000000
      Gh(C)           0.000010905269    -1.414976590818     0.789008704274    12.000000000000
      Gh(C)          -1.225300870919     0.707545281801     0.793925100363    12.000000000000
      Gh(C)           2.456437833310    -1.418323396064     0.777097613613    12.000000000000
      Gh(C)          -0.000001254988     2.836800939098     0.776405596815    12.000000000000
      Gh(C)           3.681826775460     0.709317863818     0.777446403411    12.000000000000
      Gh(C)           2.455120126855     2.834223569306     0.777343846450    12.000000000000
      Gh(C)           3.681821183209    -0.709333931612     0.793518887429    12.000000000000
      Gh(C)          -1.225313520698    -0.707527607727     0.780415531897    12.000000000000
      Gh(C)           1.226699659192     3.543469391811     0.793702919360    12.000000000000
      Gh(C)           0.000004862847    -2.836782231419     0.793856871895    12.000000000000
      Gh(C)          -2.456435954859     1.418316826102     0.793960496208    12.000000000000
      Gh(C)           2.455123495769    -2.834230120772     0.793366979062    12.000000000000
      Gh(C)          -1.226714286599     3.543468971567     0.793806252579    12.000000000000
      Gh(C)           4.914517373191     1.427172780306     0.783927086440    12.000000000000
      Gh(C)           3.693150269466     3.542795200362     0.783976886077    12.000000000000
      Gh(C)          -2.456437522078    -1.418313373022     0.777072575488    12.000000000000
      Gh(C)           1.226704919933    -3.543474334090     0.777732788610    12.000000000000
      Gh(C)          -2.455125320518     2.834216570451     0.777350222796    12.000000000000
      Gh(C)           4.914524458772    -1.427187002127     0.786899829175    12.000000000000
      Gh(C)           1.221424691688     4.970133973077     0.787038263435    12.000000000000
      Gh(C)           4.893008307311     2.825187907843     0.785143754799    12.000000000000
      Gh(C)          -1.226696930499    -3.543471089260     0.777999993020    12.000000000000
      Gh(C)          -3.681818898536     0.709324874549     0.777459083891    12.000000000000
      Gh(C)           3.693147179140    -3.542801433574     0.787017719736    12.000000000000
      Gh(C)          -1.221432174004     4.970128205680     0.787221758807    12.000000000000
      Gh(C)           6.134771050916     0.680547854922     0.784696860990    12.000000000000
      Gh(C)           3.656788958600     4.972953151384     0.784885523859    12.000000000000
      Gh(C)          -2.455126829744    -2.834215185244     0.793122621264    12.000000000000
      Gh(C)          -3.681819101071    -0.709325795652     0.793636509008    12.000000000000
      Gh(C)           4.893012695903    -2.825200197815     0.785754906695    12.000000000000
      Gh(C)          -0.000000995123     5.650447273849     0.785990450100    12.000000000000
      Gh(C)           6.134775190322    -0.680554946258     0.785962181506    12.000000000000
      Gh(C)           2.478131560845     5.653576659148     0.786174303509    12.000000000000
      Gh(C)           1.221422482727    -4.970127147116     0.784238766412    12.000000000000
      Gh(C)          -3.693162305975     3.542796862009     0.784142393536    12.000000000000
      Gh(C)          -1.221428442955    -4.970118395779     0.784126004579    12.000000000000
      Gh(C)          -4.914521729952     1.427175354812     0.784004031448    12.000000000000
      Gh(C)           3.656787097669    -4.972955318422     0.786336024393    12.000000000000
      Gh(C)          -2.478138452116     5.653574330345     0.786458828518    12.000000000000
      Gh(C)          -3.693141660574    -3.542790311162     0.786901593580    12.000000000000
      Gh(C)          -4.914512405063    -1.427181092211     0.786934526349    12.000000000000
      Gh(C)          -0.000005930936    -5.650438379197     0.785594945979    12.000000000000
      Gh(C)          -4.893020406111     2.825188506736     0.785133672939    12.000000000000
      Gh(C)           2.478126071288    -5.653573636072     0.785245423601    12.000000000000
      Gh(C)          -3.656798632268     4.972956089858     0.785062204234    12.000000000000
      Gh(C)          -4.892999400866    -2.825191859243     0.785600870997    12.000000000000
      Gh(C)          -2.478128420093    -5.653566262190     0.784970235954    12.000000000000
      Gh(C)          -6.134770425341     0.680548674073     0.784671309288    12.000000000000
      Gh(C)          -3.656788755199    -4.972944115154     0.786121736577    12.000000000000
      Gh(C)          -6.134764964923    -0.680554007665     0.785941705711    12.000000000000
      Gh(H)           5.835288573806     3.369275802771     0.789503080462     1.007825032230
      Gh(H)           7.073859250737     1.228217156716     0.785158504383     1.007825032230
      Gh(H)           4.600663342164     5.512380710270     0.785390724611     1.007825032230
      Gh(H)           5.835283465295    -3.369306148912     0.781300439380     1.007825032230
      Gh(H)          -0.000012073316     6.738530581953     0.781641205093     1.007825032230
      Gh(H)           7.073861249820    -1.228227034927     0.785453443412     1.007825032230
      Gh(H)           2.473313809789     6.740684199211     0.785707582579     1.007825032230
      Gh(H)           4.600668569371    -5.512376221359     0.785926027225     1.007825032230
      Gh(H)          -2.473318602548     6.740681627423     0.786008929204     1.007825032230
      Gh(H)          -0.000010190238    -6.738528268635     0.790124630964     1.007825032230
      Gh(H)          -5.835301836354     3.369270858113     0.789639102610     1.007825032230
      Gh(H)           2.473308001821    -6.740685466612     0.785815754026     1.007825032230
      Gh(H)          -4.600674763218     5.512377934420     0.785556052935     1.007825032230
      Gh(H)          -5.835279428845    -3.369289055963     0.781021133499     1.007825032230
      Gh(H)          -2.473300269450    -6.740679170323     0.785366437481     1.007825032230
      Gh(H)          -7.073857688778     1.228220380657     0.785074512903     1.007825032230
      Gh(H)          -4.600673708095    -5.512362761970     0.785753719202     1.007825032230
      Gh(H)          -7.073856856419    -1.228220724160     0.785358586945     1.007825032230

  Running in c1 symmetry.

  Rotational constants: A =      0.00150  B =      0.00150  C =      0.00110 [cm^-1]
  Rotational constants: A =     44.88146  B =     44.87680  C =     33.02251 [MHz]
  Nuclear repulsion =  178.879455044809106

  Charge       = -1
  Multiplicity = 1
  Electrons    = 42
  Nalpha       = 21
  Nbeta        = 21

  ==> Algorithm <==

  SCF Algorithm Type is DF.
  DIIS enabled.
  MOM disabled.
  Fractional occupation disabled.
  Guess Type is SAD.
  Energy threshold   = 1.00e-08
  Density threshold  = 1.00e-08
  Integral threshold = 1.00e-12

  ==> Primary Basis <==

  Basis Set: JUN-CC-PVDZ
    Blend: JUN-CC-PVDZ
    Number of shells: 526
    Number of basis functions: 1152
    Number of Cartesian functions: 1211
    Spherical Harmonics?: true
    Max angular momentum: 2

   => Loading Basis Set <=

    Name: (JUN-CC-PVDZ AUX)
    Role: JKFIT
    Keyword: DF_BASIS_SCF
    atoms 1     entry B          line    90 file /home/gridsan/tfroembgen/.conda/envs/psi4test/share/psi4/basis/jun-cc-pvdz-jkfit.gbs 
    atoms 2-5   entry F          line   314 file /home/gridsan/tfroembgen/.conda/envs/psi4test/share/psi4/basis/jun-cc-pvdz-jkfit.gbs 
    atoms 6-59  entry C          line   146 file /home/gridsan/tfroembgen/.conda/envs/psi4test/share/psi4/basis/jun-cc-pvdz-jkfit.gbs 
    atoms 60-77 entry H          line    70 file /home/gridsan/tfroembgen/.conda/envs/psi4test/share/psi4/basis/jun-cc-pvdz-jkfit.gbs 

  ==> Integral Setup <==

  ==> DiskDFJK: Density-Fitted J/K Matrices <==

    J tasked:                  Yes
    K tasked:                  Yes
    wK tasked:                  No
    OpenMP threads:             12
    Integrals threads:          12
    Memory [MiB]:            22888
    Algorithm:                Core
    Integral Cache:           LOAD
    Schwarz Cutoff:          1E-12
    Fitting Condition:       1E-10

   => Auxiliary Basis Set <=

  Basis Set: (JUN-CC-PVDZ AUX)
    Blend: JUN-CC-PVDZ-JKFIT
    Number of shells: 1755
    Number of basis functions: 5075
    Number of Cartesian functions: 5819
    Spherical Harmonics?: true
    Max angular momentum: 3

  Minimum eigenvalue in the overlap matrix is 8.3993147855E-10.
  Reciprocal condition number of the overlap matrix is 3.7512164580E-11.
    Using canonical orthogonalization.
  Overall, 14 of 1152 possible MOs eliminated.


  ==> Pre-Iterations <==

  SCF Guess: Superposition of Atomic Densities via on-the-fly atomic UHF (no occupation information).

   -------------------------
    Irrep   Nso     Nmo    
   -------------------------
     A       1152    1138 
   -------------------------
    Total    1152    1138
   -------------------------

  ==> Iterations <==

                           Total Energy        Delta E     RMS |[F,P]|

   @DF-RHF iter SAD:  -421.23044342475959   -4.21230e+02   0.00000e+00 
   @DF-RHF iter   1:  -422.64981716216130   -1.41937e+00   5.29857e-04 ADIIS/DIIS
   @DF-RHF iter   2:  -422.73260054507358   -8.27834e-02   3.22921e-04 ADIIS/DIIS
   @DF-RHF iter   3:  -422.77116979421169   -3.85692e-02   1.73850e-05 DIIS
   @DF-RHF iter   4:  -422.77153029354196   -3.60499e-04   2.75260e-06 DIIS
   @DF-RHF iter   5:  -422.77153893779757   -8.64426e-06   7.01951e-07 DIIS
   @DF-RHF iter   6:  -422.77153949574574   -5.57948e-07   1.44684e-07 DIIS
   @DF-RHF iter   7:  -422.77153951672528   -2.09795e-08   1.40930e-08 DIIS
   @DF-RHF iter   8:  -422.77153951693509   -2.09809e-10   4.06389e-09 DIIS
  Energy and wave function converged.


  ==> Post-Iterations <==

    Orbital Energies [Eh]
    ---------------------

    Doubly Occupied:                                                      

       1A    -26.067091     2A    -26.067013     3A    -26.066994  
       4A    -26.066912     5A     -7.539278     6A     -1.410945  
       7A     -1.351240     8A     -1.351190     9A     -1.351053  
      10A     -0.602227    11A     -0.528429    12A     -0.528408  
      13A     -0.528342    14A     -0.447287    15A     -0.447245  
      16A     -0.408457    17A     -0.408433    18A     -0.408357  
      19A     -0.384972    20A     -0.384940    21A     -0.384886  

    Virtual:                                                              

      22A      0.078588    23A      0.080516    24A      0.080519  
      25A      0.088621    26A      0.088627    27A      0.100345  
      28A      0.101417    29A      0.102356    30A      0.117502  
      31A      0.117504    32A      0.118595    33A      0.118598  
      34A      0.127612    35A      0.134005    36A      0.134010  
      37A      0.135925    38A      0.135933    39A      0.136323  
      40A      0.136338    41A      0.144022    42A      0.147059  
      43A      0.147067    44A      0.156372    45A      0.157507  
      46A      0.157722    47A      0.160804    48A      0.165389  
      49A      0.167563    50A      0.169600    51A      0.169605  
      52A      0.170110    53A      0.176391    54A      0.176402  
      55A      0.178951    56A      0.178955    57A      0.183068  
      58A      0.183082    59A      0.186770    60A      0.186787  
      61A      0.189428    62A      0.189669    63A      0.189684  
      64A      0.193227    65A      0.193243    66A      0.194237  
      67A      0.199584    68A      0.199604    69A      0.204349  
      70A      0.204350    71A      0.207497    72A      0.207632  
      73A      0.207641    74A      0.209646    75A      0.212343  
      76A      0.212360    77A      0.214173    78A      0.214335  
      79A      0.216282    80A      0.216283    81A      0.222679  
      82A      0.222682    83A      0.225925    84A      0.229198  
      85A      0.234685    86A      0.235284    87A      0.235287  
      88A      0.235689    89A      0.238264    90A      0.239600  
      91A      0.239614    92A      0.248079    93A      0.248086  
      94A      0.248772    95A      0.250272    96A      0.250306  
      97A      0.253208    98A      0.253312    99A      0.259911  
     100A      0.259914   101A      0.262366   102A      0.262404  
     103A      0.262979   104A      0.266019   105A      0.266036  
     106A      0.267970   107A      0.267985   108A      0.274593  
     109A      0.274606   110A      0.278928   111A      0.279700  
     112A      0.279704   113A      0.285525   114A      0.285874  
     115A      0.285879   116A      0.287058   117A      0.291794  
     118A      0.291817   119A      0.292697   120A      0.292713  
     121A      0.296804   122A      0.302915   123A      0.303265  
     124A      0.307586   125A      0.307597   126A      0.310183  
     127A      0.312302   128A      0.312308   129A      0.317664  
     130A      0.317696   131A      0.319976   132A      0.319981  
     133A      0.320468   134A      0.320482   135A      0.325376  
     136A      0.334010   137A      0.334015   138A      0.338064  
     139A      0.338094   140A      0.338997   141A      0.339010  
     142A      0.342373   143A      0.342378   144A      0.343067  
     145A      0.343310   146A      0.343317   147A      0.349172  
     148A      0.351705   149A      0.354984   150A      0.358873  
     151A      0.358897   152A      0.360908   153A      0.365009  
     154A      0.365049   155A      0.371404   156A      0.380074  
     157A      0.380339   158A      0.380383   159A      0.380909  
     160A      0.380925   161A      0.386814   162A      0.386867  
     163A      0.387362   164A      0.389577   165A      0.390434  
     166A      0.390452   167A      0.392771   168A      0.392851  
     169A      0.398627   170A      0.401720   171A      0.403292  
     172A      0.403347   173A      0.410923   174A      0.415430  
     175A      0.415455   176A      0.418375   177A      0.418511  
     178A      0.421753   179A      0.425133   180A      0.425505  
     181A      0.426778   182A      0.426998   183A      0.427034  
     184A      0.430303   185A      0.431326   186A      0.431550  
     187A      0.433450   188A      0.433556   189A      0.437211  
     190A      0.441276   191A      0.441301   192A      0.441561  
     193A      0.442098   194A      0.444912   195A      0.444936  
     196A      0.448196   197A      0.451998   198A      0.452430  
     199A      0.461109   200A      0.461149   201A      0.463506  
     202A      0.463700   203A      0.463794   204A      0.469360  
     205A      0.470089   206A      0.470181   207A      0.473893  
     208A      0.476393   209A      0.476404   210A      0.477007  
     211A      0.486077   212A      0.486124   213A      0.488047  
     214A      0.491275   215A      0.491815   216A      0.491838  
     217A      0.497504   218A      0.497583   219A      0.498296  
     220A      0.499659   221A      0.501498   222A      0.501524  
     223A      0.501997   224A      0.506624   225A      0.506673  
     226A      0.507146   227A      0.507228   228A      0.510264  
     229A      0.513475   230A      0.514250   231A      0.514547  
     232A      0.518471   233A      0.519109   234A      0.520305  
     235A      0.522282   236A      0.522383   237A      0.526145  
     238A      0.530081   239A      0.532849   240A      0.532981  
     241A      0.534692   242A      0.540513   243A      0.540620  
     244A      0.542640   245A      0.542677   246A      0.546726  
     247A      0.548072   248A      0.549343   249A      0.549349  
     250A      0.556128   251A      0.556212   252A      0.557389  
     253A      0.557556   254A      0.558845   255A      0.562720  
     256A      0.562932   257A      0.564087   258A      0.570425  
     259A      0.576555   260A      0.576584   261A      0.577865  
     262A      0.577894   263A      0.583837   264A      0.586179  
     265A      0.587617   266A      0.587731   267A      0.588211  
     268A      0.591144   269A      0.591275   270A      0.592127  
     271A      0.593565   272A      0.593690   273A      0.596945  
     274A      0.597021   275A      0.608233   276A      0.608879  
     277A      0.608895   278A      0.610987   279A      0.613175  
     280A      0.623816   281A      0.623819   282A      0.628262  
     283A      0.628273   284A      0.631279   285A      0.631481  
     286A      0.631538   287A      0.633160   288A      0.639474  
     289A      0.641636   290A      0.641646   291A      0.649784  
     292A      0.649805   293A      0.651005   294A      0.654701  
     295A      0.658049   296A      0.658075   297A      0.669146  
     298A      0.669155   299A      0.669215   300A      0.671963  
     301A      0.672041   302A      0.674951   303A      0.674960  
     304A      0.675422   305A      0.678198   306A      0.678265  
     307A      0.682898   308A      0.682945   309A      0.692606  
     310A      0.698845   311A      0.700803   312A      0.700804  
     313A      0.705670   314A      0.706094   315A      0.706100  
     316A      0.709463   317A      0.709636   318A      0.709715  
     319A      0.720000   320A      0.723683   321A      0.724404  
     322A      0.724509   323A      0.728393   324A      0.730270  
     325A      0.734184   326A      0.739548   327A      0.739561  
     328A      0.739728   329A      0.741371   330A      0.741375  
     331A      0.743923   332A      0.743975   333A      0.747963  
     334A      0.756331   335A      0.756351   336A      0.762122  
     337A      0.763038   338A      0.763209   339A      0.771742  
     340A      0.771868   341A      0.777352   342A      0.777372  
     343A      0.777453   344A      0.779163   345A      0.779179  
     346A      0.786922   347A      0.789838   348A      0.789865  
     349A      0.796296   350A      0.796533   351A      0.803495  
     352A      0.805821   353A      0.805826   354A      0.810119  
     355A      0.820331   356A      0.820347   357A      0.821325  
     358A      0.824402   359A      0.832333   360A      0.832346  
     361A      0.833274   362A      0.835768   363A      0.835794  
     364A      0.836651   365A      0.840962   366A      0.841122  
     367A      0.841450   368A      0.846922   369A      0.846973  
     370A      0.851930   371A      0.856177   372A      0.857242  
     373A      0.857261   374A      0.857656   375A      0.862046  
     376A      0.862119   377A      0.864889   378A      0.864905  
     379A      0.866966   380A      0.869674   381A      0.878319  
     382A      0.897684   383A      0.897689   384A      0.909604  
     385A      0.909617   386A      0.930251   387A      0.934847  
     388A      0.934950   389A      0.937385   390A      0.939426  
     391A      0.939479   392A      0.943296   393A      0.943309  
     394A      0.943466   395A      0.952154   396A      0.952173  
     397A      0.959736   398A      0.959776   399A      0.961276  
     400A      0.965076   401A      0.994182   402A      0.995154  
     403A      0.995182   404A      1.010849   405A      1.019893  
     406A      1.019927   407A      1.030276   408A      1.030313  
     409A      1.038281   410A      1.045590   411A      1.054019  
     412A      1.054034   413A      1.070205   414A      1.073523  
     415A      1.096556   416A      1.096595   417A      1.116293  
     418A      1.116343   419A      1.121927   420A      1.124184  
     421A      1.124198   422A      1.133869   423A      1.133899  
     424A      1.158677   425A      1.161355   426A      1.161372  
     427A      1.168818   428A      1.221412   429A      1.221470  
     430A      1.225574   431A      1.225716   432A      1.230722  
     433A      1.239952   434A      1.242436   435A      1.242446  
     436A      1.261016   437A      1.261063   438A      1.278510  
     439A      1.283448   440A      1.283451   441A      1.289414  
     442A      1.297034   443A      1.345721   444A      1.345823  
     445A      1.354680   446A      1.361779   447A      1.361822  
     448A      1.368522   449A      1.370423   450A      1.370471  
     451A      1.384270   452A      1.384361   453A      1.393284  
     454A      1.395946   455A      1.411189   456A      1.424873  
     457A      1.436154   458A      1.436212   459A      1.483400  
     460A      1.510768   461A      1.511321   462A      1.528831  
     463A      1.528854   464A      1.534709   465A      1.535529  
     466A      1.535602   467A      1.538725   468A      1.548713  
     469A      1.549597   470A      1.613370   471A      1.621418  
     472A      1.621473   473A      1.624051   474A      1.625313  
     475A      1.636898   476A      1.636932   477A      1.637780  
     478A      1.640008   479A      1.692739   480A      1.703561  
     481A      1.705753   482A      1.716249   483A      1.719103  
     484A      1.727020   485A      1.734093   486A      1.734161  
     487A      1.751366   488A      1.752079   489A      1.753973  
     490A      1.754689   491A      1.768701   492A      1.806942  
     493A      1.808241   494A      1.808582   495A      1.809389  
     496A      1.810535   497A      1.816873   498A      1.821132  
     499A      1.821487   500A      1.824956   501A      1.833202  
     502A      1.833294   503A      1.843749   504A      1.853890  
     505A      1.854810   506A      1.859151   507A      1.859916  
     508A      1.867360   509A      1.879048   510A      1.890815  
     511A      1.891220   512A      1.891419   513A      1.893100  
     514A      1.893300   515A      1.893454   516A      1.895260  
     517A      1.897395   518A      1.898974   519A      1.902544  
     520A      1.902620   521A      1.906467   522A      1.906592  
     523A      1.915472   524A      1.923228   525A      1.923903  
     526A      1.931907   527A      1.931984   528A      1.939315  
     529A      1.944943   530A      1.947497   531A      1.950069  
     532A      1.950291   533A      1.951736   534A      1.952685  
     535A      1.962801   536A      1.963041   537A      1.971474  
     538A      1.972217   539A      1.972626   540A      1.973536  
     541A      1.974488   542A      1.978849   543A      1.983848  
     544A      1.984192   545A      1.992151   546A      1.992738  
     547A      1.994982   548A      1.995111   549A      1.997891  
     550A      2.001730   551A      2.003757   552A      2.005466  
     553A      2.005474   554A      2.012076   555A      2.017202  
     556A      2.017301   557A      2.027631   558A      2.034126  
     559A      2.035149   560A      2.035446   561A      2.039525  
     562A      2.039700   563A      2.048568   564A      2.048662  
     565A      2.052578   566A      2.052621   567A      2.057010  
     568A      2.059845   569A      2.062683   570A      2.062701  
     571A      2.066486   572A      2.066636   573A      2.066920  
     574A      2.072103   575A      2.085346   576A      2.085392  
     577A      2.094446   578A      2.094663   579A      2.126481  
     580A      2.132626   581A      2.132698   582A      2.134530  
     583A      2.140317   584A      2.140447   585A      2.144049  
     586A      2.146286   587A      2.147798   588A      2.147903  
     589A      2.152361   590A      2.159017   591A      2.159242  
     592A      2.163554   593A      2.166411   594A      2.179866  
     595A      2.179961   596A      2.184959   597A      2.185696  
     598A      2.189748   599A      2.193542   600A      2.193574  
     601A      2.203319   602A      2.203411   603A      2.203707  
     604A      2.205440   605A      2.205454   606A      2.211327  
     607A      2.211365   608A      2.212844   609A      2.214001  
     610A      2.214889   611A      2.214906   612A      2.216561  
     613A      2.218997   614A      2.219038   615A      2.225178  
     616A      2.225183   617A      2.226511   618A      2.228854  
     619A      2.228857   620A      2.233259   621A      2.234768  
     622A      2.234810   623A      2.236521   624A      2.238360  
     625A      2.240144   626A      2.240259   627A      2.242586  
     628A      2.242622   629A      2.243317   630A      2.243690  
     631A      2.244027   632A      2.247926   633A      2.247939  
     634A      2.248919   635A      2.252347   636A      2.252474  
     637A      2.258672   638A      2.259391   639A      2.259535  
     640A      2.259965   641A      2.260015   642A      2.281970  
     643A      2.281994   644A      2.302753   645A      2.302896  
     646A      2.308022   647A      2.308040   648A      2.312441  
     649A      2.312573   650A      2.316177   651A      2.316190  
     652A      2.317680   653A      2.332218   654A      2.332954  
     655A      2.333043   656A      2.338856   657A      2.338944  
     658A      2.339989   659A      2.350681   660A      2.350714  
     661A      2.357068   662A      2.357087   663A      2.361945  
     664A      2.373923   665A      2.374010   666A      2.382182  
     667A      2.393207   668A      2.393230   669A      2.393593  
     670A      2.393672   671A      2.398452   672A      2.405130  
     673A      2.409548   674A      2.409752   675A      2.409774  
     676A      2.423568   677A      2.424972   678A      2.429474  
     679A      2.429513   680A      2.432829   681A      2.432907  
     682A      2.435232   683A      2.435303   684A      2.436839  
     685A      2.437850   686A      2.444188   687A      2.444591  
     688A      2.444665   689A      2.451366   690A      2.451397  
     691A      2.453838   692A      2.458952   693A      2.461440  
     694A      2.474893   695A      2.475048   696A      2.477743  
     697A      2.478134   698A      2.482134   699A      2.483355  
     700A      2.483495   701A      2.487551   702A      2.487572  
     703A      2.496276   704A      2.503062   705A      2.512592  
     706A      2.512621   707A      2.518598   708A      2.518779  
     709A      2.520414   710A      2.520592   711A      2.530238  
     712A      2.532705   713A      2.535730   714A      2.535781  
     715A      2.538722   716A      2.541410   717A      2.550647  
     718A      2.551120   719A      2.551246   720A      2.567218  
     721A      2.567274   722A      2.570485   723A      2.570520  
     724A      2.579591   725A      2.589288   726A      2.591964  
     727A      2.600521   728A      2.600580   729A      2.606898  
     730A      2.607524   731A      2.613002   732A      2.613033  
     733A      2.613716   734A      2.613823   735A      2.620570  
     736A      2.625316   737A      2.625385   738A      2.630154  
     739A      2.638119   740A      2.645012   741A      2.645139  
     742A      2.657828   743A      2.670104   744A      2.670174  
     745A      2.687274   746A      2.690055   747A      2.690107  
     748A      2.697054   749A      2.697076   750A      2.697647  
     751A      2.697703   752A      2.698630   753A      2.713108  
     754A      2.713668   755A      2.713991   756A      2.717908  
     757A      2.722251   758A      2.722626   759A      2.723858  
     760A      2.723917   761A      2.741289   762A      2.741406  
     763A      2.757453   764A      2.757484   765A      2.765982  
     766A      2.766251   767A      2.773146   768A      2.774615  
     769A      2.776810   770A      2.779157   771A      2.779384  
     772A      2.784330   773A      2.784365   774A      2.789595  
     775A      2.789666   776A      2.808446   777A      2.808558  
     778A      2.810652   779A      2.810743   780A      2.811008  
     781A      2.815226   782A      2.823162   783A      2.823242  
     784A      2.824671   785A      2.833805   786A      2.833920  
[...]
     709A      1.366424   710A      1.380083   711A      1.391537  
     712A      1.400596   713A      1.404542   714A      1.404562  
     715A      1.408263   716A      1.408277   717A      1.412252  
     718A      1.412284   719A      1.420067   720A      1.422071  
     721A      1.426985   722A      1.427089   723A      1.429313  
     724A      1.429590   725A      1.436397   726A      1.436434  
     727A      1.437421   728A      1.439777   729A      1.439940  
     730A      1.440144   731A      1.448133   732A      1.448140  
     733A      1.450515   734A      1.463577   735A      1.463591  
     736A      1.473320   737A      1.473489   738A      1.516574  
     739A      1.516628   740A      1.521330   741A      1.521354  
     742A      1.530700   743A      1.552356   744A      1.575720  
     745A      1.596552   746A      1.599963   747A      1.600542  
     748A      1.605230   749A      1.608729   750A      1.608760  
     751A      1.609712   752A      1.612913   753A      1.613091  
     754A      1.617324   755A      1.621793   756A      1.621914  
     757A      1.630041   758A      1.630372   759A      1.638451  
     760A      1.638522   761A      1.643365   762A      1.643380  
     763A      1.643540   764A      1.643906   765A      1.644935  
     766A      1.644989   767A      1.650072   768A      1.661211  
     769A      1.661240   770A      1.667414   771A      1.676312  
     772A      1.676410   773A      1.676747   774A      1.676784  
     775A      1.677028   776A      1.679557   777A      1.686649  
     778A      1.686701   779A      1.689980   780A      1.696050  
     781A      1.699333   782A      1.699379   783A      1.699899  
     784A      1.702572   785A      1.704772   786A      1.704843  
     787A      1.715732   788A      1.715752   789A      1.741688  
     790A      1.742368   791A      1.742575   792A      1.751407  
     793A      1.760360   794A      1.760381   795A      1.761073  
     796A      1.761772   797A      1.776748   798A      1.776770  
     799A      1.791551   800A      1.791572   801A      1.816562  
     802A      1.816601   803A      1.817260   804A      1.818797  
     805A      1.824682   806A      1.824783   807A      1.830860  
     808A      1.830927   809A      1.832852   810A      1.842411  
     811A      1.842699   812A      1.849369   813A      1.860785  
     814A      1.860830   815A      1.862529   816A      1.862569  
     817A      1.864042   818A      1.869266   819A      1.872400  
     820A      1.880188   821A      1.880245   822A      1.896219  
     823A      1.896318   824A      1.899510   825A      1.902971  
     826A      1.903099   827A      1.908655   828A      1.908774  
     829A      1.914488   830A      1.914750   831A      1.917699  
     832A      1.917849   833A      1.919239   834A      1.921990  
     835A      1.922077   836A      1.940444   837A      1.941038  
     838A      1.941827   839A      1.941996   840A      1.946417  
     841A      1.946446   842A      1.954280   843A      1.954357  
     844A      1.955229   845A      1.955239   846A      1.958005  
     847A      1.970953   848A      1.982950   849A      1.983039  
     850A      1.990161   851A      1.997109   852A      1.998521  
     853A      1.998547   854A      2.004846   855A      2.008031  
     856A      2.012271   857A      2.012432   858A      2.027845  
     859A      2.029648   860A      2.030198   861A      2.030646  
     862A      2.030945   863A      2.031394   864A      2.031585  
     865A      2.047845   866A      2.052076   867A      2.052383  
     868A      2.057583   869A      2.058483   870A      2.061024  
     871A      2.061062   872A      2.068227   873A      2.071075  
     874A      2.071894   875A      2.072219   876A      2.075504  
     877A      2.075603   878A      2.082554   879A      2.085742  
     880A      2.085832   881A      2.092745   882A      2.094916  
     883A      2.096329   884A      2.096859   885A      2.100496  
     886A      2.100568   887A      2.108095   888A      2.108275  
     889A      2.108328   890A      2.109474   891A      2.109509  
     892A      2.112575   893A      2.116882   894A      2.119230  
     895A      2.119279   896A      2.120803   897A      2.120918  
     898A      2.126568   899A      2.126620   900A      2.134364  
     901A      2.134572   902A      2.135757   903A      2.135841  
     904A      2.143177   905A      2.143197   906A      2.155804  
     907A      2.159625   908A      2.159643   909A      2.163057  
     910A      2.163076   911A      2.171232   912A      2.178206  
     913A      2.178282   914A      2.190485   915A      2.190866  
     916A      2.192506   917A      2.194020   918A      2.195827  
     919A      2.195945   920A      2.198291   921A      2.219680  
     922A      2.220281   923A      2.220313   924A      2.228097  
     925A      2.228465   926A      2.229353   927A      2.229647  
     928A      2.243248   929A      2.243601   930A      2.243805  
     931A      2.244203   932A      2.247070   933A      2.260140  
     934A      2.260255   935A      2.270136   936A      2.270147  
     937A      2.272044   938A      2.272090   939A      2.281053  
     940A      2.300188   941A      2.306675   942A      2.310429  
     943A      2.312413   944A      2.322186   945A      2.322943  
     946A      2.331007   947A      2.331066   948A      2.331117  
     949A      2.334082   950A      2.350679   951A      2.351362  
     952A      2.352514   953A      2.352614   954A      2.366373  
     955A      2.366495   956A      2.374584   957A      2.380736  
     958A      2.415895   959A      2.424007   960A      2.424385  
     961A      2.424410   962A      2.436456   963A      2.441107  
     964A      2.441151   965A      2.469883   966A      2.472818  
     967A      2.472981   968A      2.485347   969A      2.485379  
     970A      2.502304   971A      2.519391   972A      2.529803  
     973A      2.530082   974A      2.543508   975A      2.545733  
     976A      2.545767   977A      2.554146   978A      2.554213  
     979A      2.554824   980A      2.559883   981A      2.559889  
     982A      2.572972   983A      2.573006   984A      2.574670  
     985A      2.575217   986A      2.586277   987A      2.586397  
     988A      2.587293   989A      2.589761   990A      2.591397  
     991A      2.605948   992A      2.623455   993A      2.623545  
     994A      2.625891   995A      2.631312   996A      2.631852  
     997A      2.641159   998A      2.641228   999A      2.650783  
    1000A      2.651136  1001A      2.656844  1002A      2.681873  
    1003A      2.683044  1004A      2.683969  1005A      2.686796  
    1006A      2.701909  1007A      2.702235  1008A      2.713014  
    1009A      2.713021  1010A      2.718664  1011A      2.718684  
    1012A      2.722469  1013A      2.722697  1014A      2.738616  
    1015A      2.752311  1016A      2.752717  1017A      2.776858  
    1018A      2.794287  1019A      2.794441  1020A      2.810824  
    1021A      2.811439  1022A      2.813401  1023A      2.820860  
    1024A      2.827103  1025A      2.827392  1026A      2.852704  
    1027A      2.852838  1028A      2.856044  1029A      2.858331  
    1030A      2.859323  1031A      2.859409  1032A      2.869554  
    1033A      2.916752  1034A      2.916777  1035A      2.924306  
    1036A      2.933562  1037A      2.933618  1038A      2.949593  
    1039A      2.949621  1040A      2.962699  1041A      3.006622  
    1042A      3.006822  1043A      3.011863  1044A      3.029399  
    1045A      3.064106  1046A      3.064143  1047A      3.070459  
    1048A      3.070542  1049A      3.109479  1050A      3.110301  
    1051A      3.127778  1052A      3.129671  1053A      3.129965  
    1054A      3.137454  1055A      3.146565  1056A      3.146604  
    1057A      3.146993  1058A      3.148928  1059A      3.148935  
    1060A      3.157594  1061A      3.157978  1062A      3.165567  
    1063A      3.166048  1064A      3.191594  1065A      3.211141  
    1066A      3.218983  1067A      3.237510  1068A      3.273619  
    1069A      3.276889  1070A      3.277035  1071A      3.281914  
    1072A      3.282079  1073A      3.416228  1074A      3.416697  
    1075A      3.443045  1076A      3.481543  1077A      3.484215  
    1078A      3.549133  1079A      3.577128  1080A      3.579120  
    1081A      3.593815  1082A      3.626463  1083A      3.628453  
    1084A      3.663124  1085A      3.669650  1086A      3.769226  
    1087A      3.782682  1088A      3.783643  1089A      3.870713  
    1090A      3.870725  1091A      3.913076  1092A      3.913188  
    1093A      3.976922  1094A      4.010910  1095A      4.032759  
    1096A      4.044620  1097A      4.082194  1098A      4.187870  
    1099A      4.187923  1100A      4.208854  1101A      4.329861  
    1102A      5.747002  1103A      5.748137  1104A      5.748143  
    1105A      5.752158  1106A      5.752162  1107A      5.756883  
    1108A      5.759172  1109A      5.759175  1110A      5.778227  
    1111A      5.778269  1112A      5.784777  1113A      6.018234  
    1114A      6.019313  1115A      6.019655  1116A      6.192182  
    1117A      6.325585  1118A      6.325917  1119A      6.372976  
    1120A      6.373316  1121A      6.374680  1122A      7.152225  
    1123A      7.152322  1124A      7.225925  1125A      7.226008  
    1126A      7.228598  1127A      7.238350  1128A      7.262933  
    1129A      7.263005  1130A      7.454357  1131A      7.454504  
    1132A      7.484643  1133A      7.594636  1134A     12.598517  
    1135A     42.907209  1136A     42.907259  1137A     42.913394  
    1138A     42.937572  

    Final Occupation by Irrep:
              A 
    DOCC [   171 ]
    NA   [   171 ]
    NB   [   171 ]

  @DF-RHF Final Energy: -2055.89181858358688

   => Energetics <=

    Nuclear Repulsion Energy =           6452.5568002797772351
    One-Electron Energy =              -15636.4321714960169629
    Two-Electron Energy =                7127.9835526326523905
    Total Energy =                      -2055.8918185835873373

Computation Completed


Properties will be evaluated at   0.000000,   0.000000,   0.000000 [a0]

Properties computed using the SCF density matrix


 Multipole Moments:

 ------------------------------------------------------------------------------------
     Multipole            Electronic (a.u.)      Nuclear  (a.u.)        Total (a.u.)
 ------------------------------------------------------------------------------------

 L = 1.  Multiply by 2.5417464519 to convert [e a0] to [Debye]
 Dipole X            :          0.0000501            0.0000419            0.0000920
 Dipole Y            :          0.0000311           -0.0000426           -0.0000114
 Dipole Z            :       -507.6772246          507.6797089            0.0024843
 Magnitude           :                                                    0.0024860

 ------------------------------------------------------------------------------------

*** tstop() called on d-6-9-4 at Sat Jan 20 22:27:48 2024
Module time:
	user time   =    2646.97 seconds =      44.12 minutes
	system time =      89.43 seconds =       1.49 minutes
	total time  =        280 seconds =       4.67 minutes
Total time:
	user time   =    7149.19 seconds =     119.15 minutes
	system time =     198.83 seconds =       3.31 minutes
	total time  =       1031 seconds =      17.18 minutes
  Constructing Basis Sets for SAPT...

   => Loading Basis Set <=

    Name: (JUN-CC-PVDZ AUX)
    Role: RIFIT
    Keyword: DF_BASIS_SAPT
    atoms 1     entry B          line    56 file /home/gridsan/tfroembgen/.conda/envs/psi4test/share/psi4/basis/jun-cc-pvdz-ri.gbs 
    atoms 2-5   entry F          line   232 file /home/gridsan/tfroembgen/.conda/envs/psi4test/share/psi4/basis/jun-cc-pvdz-ri.gbs 
    atoms 6-59  entry C          line   100 file /home/gridsan/tfroembgen/.conda/envs/psi4test/share/psi4/basis/jun-cc-pvdz-ri.gbs 
    atoms 60-77 entry H          line    30 file /home/gridsan/tfroembgen/.conda/envs/psi4test/share/psi4/basis/jun-cc-pvdz-ri.gbs 

   => Loading Basis Set <=

    Name: (JUN-CC-PVDZ AUX)
    Role: JKFIT
    Keyword: DF_BASIS_ELST
    atoms 1     entry B          line    90 file /home/gridsan/tfroembgen/.conda/envs/psi4test/share/psi4/basis/jun-cc-pvdz-jkfit.gbs 
    atoms 2-5   entry F          line   314 file /home/gridsan/tfroembgen/.conda/envs/psi4test/share/psi4/basis/jun-cc-pvdz-jkfit.gbs 
    atoms 6-59  entry C          line   146 file /home/gridsan/tfroembgen/.conda/envs/psi4test/share/psi4/basis/jun-cc-pvdz-jkfit.gbs 
    atoms 60-77 entry H          line    70 file /home/gridsan/tfroembgen/.conda/envs/psi4test/share/psi4/basis/jun-cc-pvdz-jkfit.gbs 


  //>>>>>>>>>>>>>>>>>>>>>>>>>>>>>>>>>>>//
  //               SSAPT0              //
  //<<<<<<<<<<<<<<<<<<<<<<<<<<<<<<<<<<<//


*** tstart() called on d-6-9-4
*** at Sat Jan 20 22:27:49 2024

        SAPT0  
    Ed Hohenstein
     6 June 2009

      Orbital Information
  --------------------------
    NSO        =      1152
    NMO        =      1138
    NRI        =      4087
    NRI (Elst) =      5075
    NOCC A     =        21
    NOCC B     =       171
    FOCC A     =         5
    FOCC B     =        54
    NVIR A     =      1117
    NVIR B     =       967

    Elst10,r            =     0.007810106640 [Eh]
    Exch10              =    -0.000000283305 [Eh]
    Exch10 (S^2)        =    -0.000000283304 [Eh]

    Iter     Energy [mEh]          dE [mEh]         Residual      Time [s]
       1      -0.00590392       0.005903916       0.575204262           392
       2      -0.00694909       0.001045173       0.301359019           726
       3      -0.00741197       0.000462880       0.052585148          1101
       4      -0.00741019      -0.000001781       0.011797749          1304
       5      -0.00739991      -0.000010281       0.001688004          1362
       6      -0.00740159       0.000001684       0.000288800          1377
       7      -0.00740151      -0.000000077       0.000069416          1433
       8      -0.00740149      -0.000000021       0.000013287          1447
       9      -0.00740149       0.000000000       0.000003714          1459
      10      -0.00740149       0.000000001       0.000000800          1472

    CHF Iterations converged


    Iter     Energy [mEh]          dE [mEh]         Residual      Time [s]
       1      -3.84176066       3.841760661      32.593910171            51
       2      -2.60107705      -1.240683611       4.134426375           176
       3      -2.60067808      -0.000398966       1.449922333           196
       4      -2.66197830       0.061300215       0.326214444           229
       5      -2.66481927       0.002840970       0.093880987           260
       6      -2.66357063      -0.001248645       0.046067868           280
       7      -2.66315738      -0.000413244       0.022262693           301
       8      -2.66341719       0.000259810       0.014553544           322
       9      -2.66349652       0.000079329       0.009364613           341
      10      -2.66341720      -0.000079319       0.004560791           359
      11      -2.66341093      -0.000006271       0.001667962           378
      12      -2.66341949       0.000008557       0.000690191           396
      13      -2.66342177       0.000002287       0.000261141           418
      14      -2.66342129      -0.000000480       0.000095994           440
      15      -2.66342059      -0.000000700       0.000029013           462
      16      -2.66342075       0.000000152       0.000015321           482
      17      -2.66342079       0.000000040       0.000007004           500
      18      -2.66342077      -0.000000012       0.000002566           519
      19      -2.66342076      -0.000000011       0.000001065           536
      20      -2.66342076      -0.000000001       0.000000350           553

    CHF Iterations converged

    Ind20,r (A<-B)      =    -0.000007401495 [Eh]
    Ind20,r (B<-A)      =    -0.002663420760 [Eh]
    Ind20,r             =    -0.002670822255 [Eh]
    Exch-Ind20,r (A<-B) =     0.000000175570 [Eh]
    Exch-Ind20,r (B<-A) =     0.000000827308 [Eh]
    Exch-Ind20,r        =     0.000001002878 [Eh]
    Disp20              =    -0.000503638812 [Eh]
    Disp20 (SS)         =    -0.000251819406 [Eh]
    Disp20 (OS)         =    -0.000251819406 [Eh]
    Exch-Disp20         =     0.000000512035 [Eh]
    Exch-Disp20 (SS)    =     0.000000395038 [Eh]
    Exch-Disp20 (OS)    =     0.000000116997 [Eh]

    SAPT Results 
  --------------------------------------------------------------------------------------------------------
    Electrostatics                  7.81010664 [mEh]       4.90091591 [kcal/mol]      20.50543216 [kJ/mol]
      Elst10,r                      7.81010664 [mEh]       4.90091591 [kcal/mol]      20.50543216 [kJ/mol]

    Exchange                       -0.00028331 [mEh]      -0.00017778 [kcal/mol]      -0.00074382 [kJ/mol]
      Exch10                       -0.00028331 [mEh]      -0.00017778 [kcal/mol]      -0.00074382 [kJ/mol]
      Exch10(S^2)                  -0.00028330 [mEh]      -0.00017778 [kcal/mol]      -0.00074381 [kJ/mol]

    Induction                      -2.64905558 [mEh]      -1.66230747 [kcal/mol]      -6.95509447 [kJ/mol]
      Ind20,r                      -2.67082226 [mEh]      -1.67596627 [kcal/mol]      -7.01224287 [kJ/mol]
      Exch-Ind20,r                  0.00100288 [mEh]       0.00062932 [kcal/mol]       0.00263306 [kJ/mol]
      delta HF,r (2)                0.02076380 [mEh]       0.01302948 [kcal/mol]       0.05451534 [kJ/mol]

    Dispersion                     -0.50312678 [mEh]      -0.31571682 [kcal/mol]      -1.32095917 [kJ/mol]
      Disp20                       -0.50363881 [mEh]      -0.31603813 [kcal/mol]      -1.32230352 [kJ/mol]
      Exch-Disp20                   0.00051203 [mEh]       0.00032131 [kcal/mol]       0.00134435 [kJ/mol]
      Disp20 (SS)                  -0.25181941 [mEh]      -0.15801906 [kcal/mol]      -0.66115176 [kJ/mol]
      Disp20 (OS)                  -0.25181941 [mEh]      -0.15801906 [kcal/mol]      -0.66115176 [kJ/mol]
      Exch-Disp20 (SS)              0.00039504 [mEh]       0.00024789 [kcal/mol]       0.00103717 [kJ/mol]
      Exch-Disp20 (OS)              0.00011700 [mEh]       0.00007342 [kcal/mol]       0.00030718 [kJ/mol]

  Total HF                          5.16076775 [mEh]       3.23843066 [kcal/mol]      13.54959387 [kJ/mol]
  Total SAPT0                       4.65764098 [mEh]       2.92271384 [kcal/mol]      12.22863470 [kJ/mol]

  Special recipe for scaled SAPT0 (see Manual):
    Electrostatics sSAPT0           7.81010664 [mEh]       4.90091591 [kcal/mol]      20.50543216 [kJ/mol]
    Exchange sSAPT0                -0.00028331 [mEh]      -0.00017778 [kcal/mol]      -0.00074382 [kJ/mol]
    Induction sSAPT0               -2.64905558 [mEh]      -1.66230747 [kcal/mol]      -6.95509447 [kJ/mol]
    Dispersion sSAPT0              -0.50312678 [mEh]      -0.31571682 [kcal/mol]      -1.32095917 [kJ/mol]
  Total sSAPT0                      4.65764098 [mEh]       2.92271384 [kcal/mol]      12.22863470 [kJ/mol]
  --------------------------------------------------------------------------------------------------------

*** tstop() called on d-6-9-4 at Sat Jan 20 23:29:38 2024
Module time:
	user time   =    8317.97 seconds =     138.63 minutes
	system time =     680.12 seconds =      11.34 minutes
	total time  =       3709 seconds =      61.82 minutes
Total time:
	user time   =   15468.74 seconds =     257.81 minutes
	system time =     878.98 seconds =      14.65 minutes
	total time  =       4741 seconds =      79.02 minutes

    Psi4 stopped on: Saturday, 20 January 2024 11:29PM
    Psi4 wall time for execution: 1:19:02.38

*** Psi4 exiting successfully. Buy a developer a beer!
