
    -----------------------------------------------------------------------
          Psi4: An Open-Source Ab Initio Electronic Structure Package
                               Psi4 1.9 release

                         Git: Rev {} zzzzzzz 


    D. G. A. Smith, L. A. Burns, A. C. Simmonett, R. M. Parrish,
    M. C. Schieber, R. Galvelis, P. Kraus, H. Kruse, R. Di Remigio,
    A. Alenaizan, A. M. James, S. Lehtola, J. P. Misiewicz, M. Scheurer,
    R. A. Shaw, J. B. Schriber, Y. Xie, Z. L. Glick, D. A. Sirianni,
    J. S. O'Brien, J. M. Waldrop, A. Kumar, E. G. Hohenstein,
    B. P. Pritchard, B. R. Brooks, H. F. Schaefer III, A. Yu. Sokolov,
    K. Patkowski, A. E. DePrince III, U. Bozkaya, R. A. King,
    F. A. Evangelista, J. M. Turney, T. D. Crawford, C. D. Sherrill,
    J. Chem. Phys. 152(18) 184108 (2020). https://doi.org/10.1063/5.0006002

                            Additional Code Authors
    E. T. Seidl, C. L. Janssen, E. F. Valeev, M. L. Leininger,
    J. F. Gonthier, R. M. Richard, H. R. McAlexander, M. Saitow, X. Wang,
    P. Verma, M. H. Lechner, A. Jiang, S. Behnle, A. G. Heide,
    M. F. Herbst, and D. L. Poole

             Previous Authors, Complete List of Code Contributors,
                       and Citations for Specific Modules
    https://github.com/psi4/psi4/blob/master/codemeta.json
    https://github.com/psi4/psi4/graphs/contributors
    http://psicode.org/psi4manual/master/introduction.html#citing-psifour

    -----------------------------------------------------------------------


    Psi4 started on: Wednesday, 24 January 2024 10:36PM

    Process ID: 4030561
    Host:       n2cn0795
    PSIDATADIR: /opt/software/pc2/EB-SW/software/PSI4/1.9-foss-2022a/share/psi4
    Memory:     500.0 MiB
    Threads:    16
    
  ==> Input File <==

--------------------------------------------------------------------------
memory 47 GB # how much memory is available ! Depends on the nodes/cores !

molecule dimer {
# monomer A
-1 1    # Charge and multiplicity
B -1.977592e-04  2.742729e-04 7.400034
F  1.123153e-16  1.430594e-17 8.812819
F  1.147860e+00  6.757812e-01 6.928893
F  1.191806e-02 -1.332011e+00 6.929095
F -1.159666e+00  6.560735e-01 6.929174
--
# monomer B
0 1     # Charge and multiplicity
C   -3.66844126402057      7.80375217008252      0.00190004133558
C   -4.84759871934653      7.13124183134024     -0.00046653359696
C   -4.89495929917518      5.69633040353158     -0.00103944469517
C   -3.65374067877320      4.98073034095895      0.00662099703436
C   -2.40942512149445      7.11398103667468      0.00209438359570
C   -2.42547734410473      5.68112195090346     -0.00491050527438
C   -1.19474401643570      7.78614419430947      0.00356656413763
C   0.03795902893699      7.09942164575698      0.00139585983271
C   0.03033258741920      5.66948955970466     -0.00408752508301
C   -1.20098450790502      4.96927034791531      0.00488220885047
C   1.27795782581485      7.77285944319479      0.00277170839332
C   2.48535808472416      7.08769688523756      0.00049722048857
C   2.48612868491717      5.65477081024076     -0.00644052849921
C   1.25408291964399      4.95607811366431      0.00518741308898
C   3.75171459140595      7.76391215098033      0.00062407186893
C   4.92356605618520      7.07878077698995     -0.00143240883900
C   4.95560727132542      5.64344746336949     -0.00159282164606
C   3.70680153420475      4.94121020833308      0.00349873852374
H   -3.65852113775815      8.89082741913536      0.00358502958574
H   -1.18921332975660      8.87412108735996      0.00753844057883
H   1.28429423888630      8.86083343548850      0.00693053253426
H   3.75354208679975      8.85103527897216      0.00214659618464
H   5.86995870320703      7.61379483465560     -0.00235777588134
H   -5.78823170750226      7.67630221293400     -0.00202638095293
C   -6.09197395869619      4.99326001364347     -0.00291168518608
C   -6.12866148031747      3.58258016879823     -0.00171050815740
C   -3.66457974004527      3.56418217974434     -0.00463560277484
C   -4.89429820469869      2.86108077590057      0.00453338221034
C   -2.43733499489796      2.84761165708481      0.00719617576166
C   -1.20922785759670      3.54788693497833     -0.00648285103018
C   1.24714157216223      3.53468075142962     -0.00729145743546
C   0.01517603956900      2.83311183930540      0.00439272578912
C   2.46764517244071      2.82128997725533      0.00449278391269
C   3.70254947457969      3.52466015442405     -0.00899517692985
C   6.14498038638375      4.92757236613191     -0.00282626685777
C   6.16658835886151      3.51658447594213     -0.00065971342101
C   4.92460995845939      2.80840792535402      0.00587903281610
H   7.08990550964105      5.46688776622306     -0.00658814770723
H   -7.03104175110130      5.54268795285765     -0.00714490013730
C   -7.33969804112295      2.85841153457957     -0.00333767559888
C   -7.36488195805880      1.47032337158330     -0.00157213747140
C   -4.90350460894690      1.44442681216000     -0.00628840166334
C   -6.13225715261081      0.73993935705394      0.00600164231964
C   -3.67687480051673      0.72669714267312      0.00433931473643
C   -2.44565658606518      1.42964113326212     -0.00597039546461
C   -1.22360068130162      0.71532450163492      0.00545886906656
C   0.00763786931376      1.41738314923765      0.00392452278437
C   1.23121980774686      0.70211669058719     -0.01490206287210
C   2.46082110053113      1.40329203612573      0.00460244601878
C   3.68443025419614      0.68719842821222      0.00377365974158
C   4.91870890153864      1.39173456118907     -0.00862816189375
C   7.36980207796101      2.77948220318441     -0.00242013321349
C   7.38016266612146      1.39121750785509     -0.00087345036788
C   6.13979953912259      0.67411862320065      0.00545489144369
H   -8.27919079934664      3.40711804112415     -0.00763522772059
H   8.31511347147953      3.31811809662368     -0.00663070901292
C   -8.59175593758115      0.72483255304480     -0.00123170985383
C   -8.59902460370342     -0.63263980622873      0.00089141472904
C   -6.13981313911873     -0.67413663715361     -0.00609792660607
C   -7.38018411213749     -1.39126618958160      0.00131813493501
C   -4.91868448025621     -1.39175501803000      0.00624257154343
C   -3.68443829568458     -0.68723731573599     -0.00478966852105
C   -2.46081704024768     -1.40334517882457      0.00575341766833
C   -1.23116201232071     -0.70217386488055     -0.00636696112346
C   -0.00756962538737     -1.41741884941102      0.00108956317991
C   1.22364771588843     -0.71527537726392      0.01109518512883
C   2.44567064933149     -1.42964328900682     -0.00065482763106
C   3.67686670284649     -0.72670743155550     -0.00479541202602
C   6.13224884641929     -0.73997883984993     -0.00632338623858
C   4.90351914550401     -1.44445752054090      0.00751768830159
C   8.59901484869081      0.63260386666793     -0.00101133422380
C   8.59174548810050     -0.72485086719319      0.00072504603735
C   7.36486276438985     -1.47033266560598      0.00049486934466
H   -9.52830597181814      1.27684744919284     -0.00270163681798
H   9.54141097460619      1.17457248844457     -0.00206336648518
C   -7.36983790976868     -2.77954514593389      0.00312634335708
C   -4.92459910905015     -2.80843725734101     -0.00460528907921
C   -6.16662249566744     -3.51665219282533      0.00169655107992
C   -3.70251035970491     -3.52468154912026      0.00571878010666
C   -2.46764698511392     -2.82132596280400     -0.00632585824990
C   -0.01513347410770     -2.83314164539971     -0.00604426974092
C   -1.24712184122656     -3.53473217556300      0.00551968366725
C   1.20924506964357     -3.54791467864352      0.00805871345849
C   2.43733602215464     -2.84764173817541     -0.00608104485234
C   4.89430234377080     -2.86112296828604     -0.00526030478103
C   3.66461525504104     -3.56421984553201      0.00761911515957
C   6.12863901474565     -3.58258405771778      0.00096495711699
C   7.33967266469532     -2.85841330737039      0.00248018319869
H   -9.54144911125902     -1.17456346666430      0.00226083090216
H   9.52826186807155     -1.27691907390448      0.00197485379837
H   -8.31516504384864     -3.31814985321231      0.00729857188773
H   8.27915514249207     -3.40714078989363      0.00681973918158
C   -6.14499418870218     -4.92764727278338      0.00302254913999
C   -3.70678334799751     -4.94126171411716     -0.00679841894792
C   -4.95559005800169     -5.64349397349412      0.00116871569699
C   -2.48612132622665     -5.65478557440947      0.00614125209662
C   -1.25405833548005     -4.95612205000132     -0.00503435388927
C   1.20101257386816     -4.96928038819302     -0.00385322963129
C   -0.03033667441341     -5.66952030313900      0.00398997003238
C   3.65375010132847     -4.98074377541453     -0.00309522988330
C   2.42549269587528     -5.68117463552727      0.00628170066869
C   6.09196561781097     -4.99325796338655      0.00325918379042
C   4.89497644461045     -5.69634842095790      0.00202298796027
H   -7.08989238804069     -5.46699984223871      0.00742531082125
H   7.03105520920009     -5.54265853633254      0.00683896355417
C   -4.92354532219813     -7.07882109967734      0.00061394679214
C   -2.48534208823777     -7.08772807792913     -0.00189594564379
C   -3.75168589177895     -7.76394715763627     -0.00170126671874
C   -0.03794895698805     -7.09946487446944     -0.00168022049625
C   -1.27795610040136     -7.77290438466689     -0.00366491325785
C   2.40944432072629     -7.11402201200282     -0.00081701968533
C   1.19474993715296     -7.78618536556242     -0.00296931056689
C   4.84762105249800     -7.13126211057943      0.00168979497423
C   3.66847160587561     -7.80378799294376     -0.00065863938960
H   -5.86994035041618     -7.61383059804164      0.00215798365757
H   5.78824962538815     -7.67633218931421      0.00281691445618
H   -3.75352693944918     -8.85107156923607     -0.00353718114765
H   -1.28430440589466     -8.86087539249706     -0.00809229711623
H   1.18922157469537     -8.87416062058945     -0.00706194725726
H   3.65854661482387     -8.89086063405326     -0.00231318081200

    units angstrom      # Angstroms are the default
    no_reorient         # Geometry fixed, default
    symmetry c1         # C1 symmetry, default
}

set {
    scf_type DF         # Density fitting, faster than exact integrals
    freeze_core True    # Freeze core electrons
    basis jun-cc-pVDZ   # Jun-cc-pVDZ basis set, recommended for sSAPT0 in https://doi.org/10.1063/1.4867135
}

energy('ssapt0')        # Compute sSAPT0 energy, includes also SAPT0
--------------------------------------------------------------------------

  Memory set to  43.772 GiB by Python driver.

Scratch directory: /tmp/
   => Loading Basis Set <=

    Name: JUN-CC-PVDZ
    Role: ORBITAL
    Keyword: BASIS
    atoms 1                                                   entry B          line   130 file /opt/software/pc2/EB-SW/software/PSI4/1.9-foss-2022a/share/psi4/basis/jun-cc-pvdz.gbs 
    atoms 2-5                                                 entry F          line   266 file /opt/software/pc2/EB-SW/software/PSI4/1.9-foss-2022a/share/psi4/basis/jun-cc-pvdz.gbs 
    atoms 6-23, 30-42, 45-59, 62-78, 81-93, 98-108, 111-119   entry C          line   164 file /opt/software/pc2/EB-SW/software/PSI4/1.9-foss-2022a/share/psi4/basis/jun-cc-pvdz.gbs 
    atoms 24-29, 43-44, 60-61, 79-80, 94-97, 109-110, 120-125 entry H          line    36 file /opt/software/pc2/EB-SW/software/PSI4/1.9-foss-2022a/share/psi4/basis/jun-cc-pvdz.gbs 

   => Loading Basis Set <=

    Name: JUN-CC-PVDZ
    Role: ORBITAL
    Keyword: BASIS
    atoms 1                                                   entry B          line   130 file /opt/software/pc2/EB-SW/software/PSI4/1.9-foss-2022a/share/psi4/basis/jun-cc-pvdz.gbs 
    atoms 2-5                                                 entry F          line   266 file /opt/software/pc2/EB-SW/software/PSI4/1.9-foss-2022a/share/psi4/basis/jun-cc-pvdz.gbs 
    atoms 6-23, 30-42, 45-59, 62-78, 81-93, 98-108, 111-119   entry C          line   164 file /opt/software/pc2/EB-SW/software/PSI4/1.9-foss-2022a/share/psi4/basis/jun-cc-pvdz.gbs 
    atoms 24-29, 43-44, 60-61, 79-80, 94-97, 109-110, 120-125 entry H          line    36 file /opt/software/pc2/EB-SW/software/PSI4/1.9-foss-2022a/share/psi4/basis/jun-cc-pvdz.gbs 


  //>>>>>>>>>>>>>>>>>>>>>>>>>>>>>>>>>>>//
  //              Dimer HF             //
  //<<<<<<<<<<<<<<<<<<<<<<<<<<<<<<<<<<<//

   => Libint2 <=

    Primary   basis highest AM E, G, H:  5, 4, 3
    Auxiliary basis highest AM E, G, H:  6, 5, 4
    Onebody   basis highest AM E, G, H:  6, 5, 4
    Solid Harmonics ordering:            gaussian

*** tstart() called on n2cn0795
*** at Wed Jan 24 22:36:42 2024

   => Loading Basis Set <=

    Name: JUN-CC-PVDZ
    Role: ORBITAL
    Keyword: BASIS
    atoms 1                                                   entry B          line   130 file /opt/software/pc2/EB-SW/software/PSI4/1.9-foss-2022a/share/psi4/basis/jun-cc-pvdz.gbs 
    atoms 2-5                                                 entry F          line   266 file /opt/software/pc2/EB-SW/software/PSI4/1.9-foss-2022a/share/psi4/basis/jun-cc-pvdz.gbs 
    atoms 6-23, 30-42, 45-59, 62-78, 81-93, 98-108, 111-119   entry C          line   164 file /opt/software/pc2/EB-SW/software/PSI4/1.9-foss-2022a/share/psi4/basis/jun-cc-pvdz.gbs 
    atoms 24-29, 43-44, 60-61, 79-80, 94-97, 109-110, 120-125 entry H          line    36 file /opt/software/pc2/EB-SW/software/PSI4/1.9-foss-2022a/share/psi4/basis/jun-cc-pvdz.gbs 


         ---------------------------------------------------------
                                   SCF
               by Justin Turney, Rob Parrish, Andy Simmonett
                          and Daniel G. A. Smith
                              RHF Reference
                       16 Threads,  44822 MiB Core
         ---------------------------------------------------------

  ==> Geometry <==

    Molecular point group: c1
    Full point group: C1

    Geometry (in Angstrom), charge = -1, multiplicity = 1:

       Center              X                  Y                   Z               Mass       
    ------------   -----------------  -----------------  -----------------  -----------------
         B           -0.000201921932     0.000288800891     6.890352015271    11.009305360000
         F           -0.000004162732     0.000014527991     8.303137015271    18.998403162730
         F            1.147855837268     0.675795727991     6.419211015271    18.998403162730
         F            0.011913897268    -1.331996472009     6.419413015271    18.998403162730
         F           -1.159670162732     0.656088027991     6.419492015271    18.998403162730
         C           -3.668445426752     7.803766698073    -0.507781943394    12.000000000000
         C           -4.847602882078     7.131256359331    -0.510148518326    12.000000000000
         C           -4.894963461907     5.696344931522    -0.510721429424    12.000000000000
         C           -3.653744841505     4.980744868950    -0.503060987695    12.000000000000
         C           -2.409429284226     7.113995564665    -0.507587601133    12.000000000000
         C           -2.425481506836     5.681136478894    -0.514592490003    12.000000000000
         C           -1.194748179167     7.786158722300    -0.506115420591    12.000000000000
         C            0.037954866205     7.099436173748    -0.508286124896    12.000000000000
         C            0.030328424687     5.669504087695    -0.513769509812    12.000000000000
         C           -1.200988670637     4.969284875906    -0.504799775879    12.000000000000
         C            1.277953663083     7.772873971185    -0.506910276336    12.000000000000
         C            2.485353921992     7.087711413228    -0.509184764241    12.000000000000
         C            2.486124522185     5.654785338231    -0.516122513228    12.000000000000
         C            1.254078756912     4.956092641655    -0.504494571640    12.000000000000
         C            3.751710428674     7.763926678971    -0.509057912860    12.000000000000
         C            4.923561893453     7.078795304981    -0.511114393568    12.000000000000
         C            4.955603108594     5.643461991360    -0.511274806375    12.000000000000
         C            3.706797371473     4.941224736324    -0.506183246205    12.000000000000
         H           -3.658525300490     8.890841947126    -0.506096955143     1.007825032230
         H           -1.189217492488     8.874135615351    -0.502143544150     1.007825032230
         H            1.284290076155     8.860847963479    -0.502751452195     1.007825032230
         H            3.753537924068     8.851049806963    -0.507535388544     1.007825032230
         H            5.869954540475     7.613809362646    -0.512039760610     1.007825032230
         H           -5.788235870234     7.676316740925    -0.511708365682     1.007825032230
         C           -6.091978121428     4.993274541634    -0.512593669915    12.000000000000
         C           -6.128665643049     3.582594696789    -0.511392492887    12.000000000000
         C           -3.664583902777     3.564196707735    -0.514317587504    12.000000000000
         C           -4.894302367430     2.861095303891    -0.505148602519    12.000000000000
         C           -2.437339157630     2.847626185075    -0.502485808967    12.000000000000
         C           -1.209232020328     3.547901462969    -0.516164835759    12.000000000000
         C            1.247137409430     3.534695279420    -0.516973442165    12.000000000000
         C            0.015171876837     2.833126367296    -0.505289258940    12.000000000000
         C            2.467641009709     2.821304505246    -0.505189200816    12.000000000000
         C            3.702545311848     3.524674682415    -0.518677161659    12.000000000000
         C            6.144976223652     4.927586894122    -0.512508251587    12.000000000000
         C            6.166584196130     3.516599003933    -0.510341698150    12.000000000000
         C            4.924605795728     2.808422453345    -0.503802951913    12.000000000000
         H            7.089901346909     5.466902294214    -0.516270132436     1.007825032230
         H           -7.031045913833     5.542702480848    -0.516826884866     1.007825032230
         C           -7.339702203855     2.858426062570    -0.513019660328    12.000000000000
         C           -7.364886120791     1.470337899574    -0.511254122201    12.000000000000
         C           -4.903508771679     1.444441340151    -0.515970386392    12.000000000000
         C           -6.132261315343     0.739953885044    -0.503680342409    12.000000000000
         C           -3.676878963248     0.726711670664    -0.505342669993    12.000000000000
         C           -2.445660748797     1.429655661253    -0.515652380194    12.000000000000
         C           -1.223604844033     0.715339029625    -0.504223115663    12.000000000000
         C            0.007633706582     1.417397677228    -0.505757461945    12.000000000000
         C            1.231215645015     0.702131218578    -0.524584047601    12.000000000000
         C            2.460816937799     1.403306564116    -0.505079538710    12.000000000000
         C            3.684426091464     0.687212956203    -0.505908324988    12.000000000000
         C            4.918704738807     1.391749089180    -0.518310146623    12.000000000000
         C            7.369797915229     2.779496731175    -0.512102117943    12.000000000000
         C            7.380158503390     1.391232035846    -0.510555435097    12.000000000000
         C            6.139795376391     0.674133151191    -0.504227093285    12.000000000000
         H           -8.279194962078     3.407132569115    -0.517317212450     1.007825032230
         H            8.315109308748     3.318132624614    -0.516312693742     1.007825032230
         C           -8.591760100313     0.724847081035    -0.510913694583    12.000000000000
         C           -8.599028766435    -0.632625278238    -0.508790570000    12.000000000000
         C           -6.139817301850    -0.674122109163    -0.515779911335    12.000000000000
         C           -7.380188274869    -1.391251661591    -0.508363849794    12.000000000000
         C           -4.918688642988    -1.391740490039    -0.503439413186    12.000000000000
         C           -3.684442458416    -0.687222787745    -0.514471653250    12.000000000000
         C           -2.460821202979    -1.403330650834    -0.503928567061    12.000000000000
         C           -1.231166175052    -0.702159336890    -0.516048945853    12.000000000000
         C           -0.007573788119    -1.417404321420    -0.508592421549    12.000000000000
         C            1.223643553157    -0.715260849273    -0.498586799600    12.000000000000
         C            2.445666486600    -1.429628761016    -0.510336812360    12.000000000000
         C            3.676862540115    -0.726692903565    -0.514477396755    12.000000000000
         C            6.132244683688    -0.739964311859    -0.516005370968    12.000000000000
         C            4.903514982772    -1.444442992550    -0.502164296428    12.000000000000
         C            8.599010685959     0.632618394658    -0.510693318953    12.000000000000
         C            8.591741325369    -0.724836339203    -0.508956938692    12.000000000000
         C            7.364858601658    -1.470318137615    -0.509187115384    12.000000000000
         H           -9.528310134550     1.276861977183    -0.512383621547     1.007825032230
         H            9.541406811874     1.174587016435    -0.511745351214     1.007825032230
         C           -7.369842072500    -2.779530617943    -0.506555641372    12.000000000000
         C           -4.924603271782    -2.808422729350    -0.514287273808    12.000000000000
         C           -6.166626658399    -3.516637664835    -0.507985433649    12.000000000000
         C           -3.702514522437    -3.524667021130    -0.503963204622    12.000000000000
         C           -2.467651147846    -2.821311434813    -0.516007842979    12.000000000000
         C           -0.015137636839    -2.833127117409    -0.515726254470    12.000000000000
         C           -1.247126003958    -3.534717647572    -0.504162301062    12.000000000000
         C            1.209240906912    -3.547900150653    -0.501623271271    12.000000000000
         C            2.437331859423    -2.847627210185    -0.515763029581    12.000000000000
         C            4.894298181039    -2.861108440295    -0.514942289510    12.000000000000
         C            3.664611092309    -3.564205317541    -0.502062869570    12.000000000000
         C            6.128634852014    -3.582569529727    -0.508717027612    12.000000000000
         C            7.339668501964    -2.858398779380    -0.507201801530    12.000000000000
         H           -9.541453273991    -1.174548938674    -0.507421153827     1.007825032230
         H            9.528257705340    -1.276904545914    -0.507707130931     1.007825032230
         H           -8.315169206580    -3.318135325222    -0.502383412841     1.007825032230
         H            8.279150979760    -3.407126261903    -0.502862245548     1.007825032230
         C           -6.144998351434    -4.927632744793    -0.506659435589    12.000000000000
         C           -3.706787510729    -4.941247186127    -0.516480403677    12.000000000000
         C           -4.955594220733    -5.643479445504    -0.508513269032    12.000000000000
         C           -2.486125488958    -5.654771046419    -0.503540732632    12.000000000000
         C           -1.254062498212    -4.956107522011    -0.514716338618    12.000000000000
         C            1.201008411136    -4.969265860202    -0.513535214360    12.000000000000
         C           -0.030340837145    -5.669505775148    -0.505692014697    12.000000000000
         C            3.653745938597    -4.980729247424    -0.512777214612    12.000000000000
         C            2.425488533144    -5.681160107537    -0.503400284060    12.000000000000
         C            6.091961455079    -4.993243435396    -0.506422800939    12.000000000000
         C            4.894972281879    -5.696333892967    -0.507658996769    12.000000000000
         H           -7.089896550772    -5.466985314248    -0.502256673908     1.007825032230
         H            7.031051046468    -5.542644008342    -0.502843021175     1.007825032230
         C           -4.923549484930    -7.078806571687    -0.509068037937    12.000000000000
         C           -2.485346250970    -7.087713549939    -0.511577930373    12.000000000000
         C           -3.751690054511    -7.763932629646    -0.511383251448    12.000000000000
         C           -0.037953119720    -7.099450346479    -0.511362205225    12.000000000000
         C           -1.277960263133    -7.772889856676    -0.513346897987    12.000000000000
         C            2.409440157995    -7.114007484012    -0.510499004414    12.000000000000
         C            1.194745774421    -7.786170837572    -0.512651295296    12.000000000000
         C            4.847616889766    -7.131247582589    -0.507992189755    12.000000000000
         C            3.668467443144    -7.803773464953    -0.510340624119    12.000000000000
         H           -5.869944513148    -7.613816070051    -0.507524001072     1.007825032230
         H            5.788245462656    -7.676317661324    -0.506865070273     1.007825032230
         H           -3.753531102181    -8.851057041246    -0.513219165877     1.007825032230
         H           -1.284308568626    -8.860860864507    -0.517774281845     1.007825032230
         H            1.189217411964    -8.874146092599    -0.516743931986     1.007825032230
         H            3.658542452092    -8.890846106063    -0.511995165541     1.007825032230

  Running in c1 symmetry.

  Rotational constants: A =      0.00059  B =      0.00059  C =      0.00035 [cm^-1]
  Rotational constants: A =     17.77405  B =     17.77137  C =     10.55117 [MHz]
  Nuclear repulsion = 17150.026665065328416

  Charge       = -1
  Multiplicity = 1
  Electrons    = 642
  Nalpha       = 321
  Nbeta        = 321

  ==> Algorithm <==

  SCF Algorithm Type is DF.
  DIIS enabled.
  MOM disabled.
  Fractional occupation disabled.
  Guess Type is SAD.
  Energy threshold   = 1.00e-08
  Density threshold  = 1.00e-08
  Integral threshold = 1.00e-12

  ==> Primary Basis <==

  Basis Set: JUN-CC-PVDZ
    Blend: JUN-CC-PVDZ
    Number of shells: 880
    Number of basis functions: 1938
    Number of Cartesian functions: 2039
    Spherical Harmonics?: true
    Max angular momentum: 2

   => Loading Basis Set <=

    Name: (JUN-CC-PVDZ AUX)
    Role: JKFIT
    Keyword: DF_BASIS_SCF
    atoms 1                                                   entry B          line    90 file /opt/software/pc2/EB-SW/software/PSI4/1.9-foss-2022a/share/psi4/basis/jun-cc-pvdz-jkfit.gbs 
    atoms 2-5                                                 entry F          line   314 file /opt/software/pc2/EB-SW/software/PSI4/1.9-foss-2022a/share/psi4/basis/jun-cc-pvdz-jkfit.gbs 
    atoms 6-23, 30-42, 45-59, 62-78, 81-93, 98-108, 111-119   entry C          line   146 file /opt/software/pc2/EB-SW/software/PSI4/1.9-foss-2022a/share/psi4/basis/jun-cc-pvdz-jkfit.gbs 
    atoms 24-29, 43-44, 60-61, 79-80, 94-97, 109-110, 120-125 entry H          line    70 file /opt/software/pc2/EB-SW/software/PSI4/1.9-foss-2022a/share/psi4/basis/jun-cc-pvdz-jkfit.gbs 

  ==> Integral Setup <==

  ==> DiskDFJK: Density-Fitted J/K Matrices <==

    J tasked:                  Yes
    K tasked:                  Yes
    wK tasked:                  No
    OpenMP threads:             16
    Integrals threads:          16
    Memory [MiB]:            33617
    Algorithm:                Disk
    Integral Cache:           SAVE
    Schwarz Cutoff:          1E-12
    Fitting Condition:       1E-10

   => Auxiliary Basis Set <=

  Basis Set: (JUN-CC-PVDZ AUX)
    Blend: JUN-CC-PVDZ-JKFIT
    Number of shells: 2943
    Number of basis functions: 8531
    Number of Cartesian functions: 9791
    Spherical Harmonics?: true
    Max angular momentum: 3

  Minimum eigenvalue in the overlap matrix is 9.0486846312E-11.
  Reciprocal condition number of the overlap matrix is 3.9682098347E-12.
    Using canonical orthogonalization.
  Overall, 38 of 1938 possible MOs eliminated.


  ==> Pre-Iterations <==

  SCF Guess: Superposition of Atomic Densities via on-the-fly atomic UHF (no occupation information).

   -------------------------
    Irrep   Nso     Nmo    
   -------------------------
     A       1938    1900 
   -------------------------
    Total    1938    1900
   -------------------------

  ==> Iterations <==

                           Total Energy        Delta E     RMS |[F,P]|

   @DF-RHF iter SAD: -4084.99854064600640   -4.08500e+03   0.00000e+00 
   @DF-RHF iter   1: -4071.52650516488802    1.34720e+01   7.87830e-04 ADIIS/DIIS
   @DF-RHF iter   2: -4072.91739098797098   -1.39089e+00   3.06922e-04 ADIIS/DIIS
   @DF-RHF iter   3: -4073.07848666202153   -1.61096e-01   1.01644e-04 ADIIS/DIIS
   @DF-RHF iter   4: -4073.09994521120734   -2.14585e-02   3.67694e-05 DIIS
   @DF-RHF iter   5: -4073.10312105986850   -3.17585e-03   1.07777e-05 DIIS
   @DF-RHF iter   6: -4073.10354304248767   -4.21983e-04   4.19808e-06 DIIS
   @DF-RHF iter   7: -4073.10371888686586   -1.75844e-04   2.17457e-06 DIIS
   @DF-RHF iter   8: -4073.10377142061679   -5.25338e-05   1.17312e-06 DIIS
   @DF-RHF iter   9: -4073.10378753755049   -1.61169e-05   3.66512e-07 DIIS
   @DF-RHF iter  10: -4073.10378854269175   -1.00514e-06   1.70862e-07 DIIS
   @DF-RHF iter  11: -4073.10378871520152   -1.72510e-07   6.17805e-08 DIIS
   @DF-RHF iter  12: -4073.10378874922299   -3.40215e-08   3.14276e-08 DIIS
   @DF-RHF iter  13: -4073.10378875634706   -7.12407e-09   1.05742e-08 DIIS
   @DF-RHF iter  14: -4073.10378875722699   -8.79936e-10   4.72448e-09 DIIS
  Energy and wave function converged.


  ==> Post-Iterations <==

    Orbital Energies [Eh]
    ---------------------

    Doubly Occupied:                                                      

       1A    -26.064792     2A    -26.064573     3A    -26.064481  
       4A    -26.064394     5A    -11.211840     6A    -11.211834  
       7A    -11.211826     8A    -11.211822     9A    -11.211818  
      10A    -11.211812    11A    -11.211803    12A    -11.211800  
      13A    -11.211793    14A    -11.211790    15A    -11.211784  
      16A    -11.211775    17A    -11.211669    18A    -11.211657  
      19A    -11.211648    20A    -11.211641    21A    -11.211628  
      22A    -11.211617    23A    -11.210640    24A    -11.210614  
      25A    -11.210611    26A    -11.210537    27A    -11.210535  
      28A    -11.210440    29A    -11.210434    30A    -11.210336  
      31A    -11.210332    32A    -11.210247    33A    -11.210245  
      34A    -11.210210    35A    -11.209915    36A    -11.209823  
      37A    -11.209819    38A    -11.209650    39A    -11.209649  
      40A    -11.209470    41A    -11.209397    42A    -11.209355  
      43A    -11.209167    44A    -11.209161    45A    -11.209119  
      46A    -11.209117    47A    -11.208986    48A    -11.208925  
      49A    -11.208920    50A    -11.208814    51A    -11.208813  
      52A    -11.208798    53A    -11.208533    54A    -11.208531  
      55A    -11.208453    56A    -11.208271    57A    -11.208244  
      58A    -11.208242    59A    -11.208142    60A    -11.208141  
      61A    -11.208119    62A    -11.208117    63A    -11.208114  
      64A    -11.208042    65A    -11.207959    66A    -11.207955  
      67A    -11.207942    68A    -11.207926    69A    -11.207799  
      70A    -11.207796    71A    -11.207771    72A    -11.207768  
      73A    -11.207728    74A    -11.207378    75A    -11.207369  
      76A    -11.206985    77A    -11.206805    78A    -11.206802  
      79A    -11.206801    80A    -11.206800    81A    -11.206796  
      82A    -11.206793    83A    -11.205344    84A    -11.205341  
      85A    -11.205340    86A    -11.205339    87A    -11.205335  
      88A    -11.205333    89A    -11.204163    90A    -11.204161  
      91A    -11.204149    92A    -11.204106    93A    -11.204102  
      94A    -11.204099    95A    -11.204072    96A    -11.204070  
      97A    -11.204059    98A    -11.204017    99A    -11.204011  
     100A    -11.204009   101A     -7.536844   102A     -1.408514  
     103A     -1.348900   104A     -1.348712   105A     -1.348546  
     106A     -1.201014   107A     -1.187141   108A     -1.187139  
     109A     -1.169291   110A     -1.169286   111A     -1.163394  
     112A     -1.150503   113A     -1.144699   114A     -1.136371  
     115A     -1.136368   116A     -1.123401   117A     -1.123397  
     118A     -1.104105   119A     -1.104099   120A     -1.101137  
     121A     -1.094561   122A     -1.094559   123A     -1.077647  
     124A     -1.063260   125A     -1.063061   126A     -1.061630  
     127A     -1.061062   128A     -1.061048   129A     -1.037636  
     130A     -1.037620   131A     -1.026958   132A     -1.026957  
     133A     -1.016456   134A     -1.016426   135A     -1.013558  
     136A     -0.996218   137A     -0.996210   138A     -0.989927  
     139A     -0.988726   140A     -0.988725   141A     -0.973821  
     142A     -0.969303   143A     -0.969253   144A     -0.956927  
     145A     -0.955702   146A     -0.953146   147A     -0.949447  
     148A     -0.949400   149A     -0.941348   150A     -0.920089  
     151A     -0.920042   152A     -0.905640   153A     -0.905585  
     154A     -0.855952   155A     -0.855911   156A     -0.853908  
     157A     -0.853866   158A     -0.852299   159A     -0.840549  
     160A     -0.840490   161A     -0.838929   162A     -0.838871  
     163A     -0.838356   164A     -0.822262   165A     -0.819989  
     166A     -0.801477   167A     -0.796710   168A     -0.796690  
     169A     -0.794206   170A     -0.792039   171A     -0.784152  
     172A     -0.784140   173A     -0.778499   174A     -0.778496  
     175A     -0.734899   176A     -0.734885   177A     -0.732431  
     178A     -0.732409   179A     -0.731700   180A     -0.731681  
     181A     -0.730912   182A     -0.716378   183A     -0.709354  
     184A     -0.699652   185A     -0.683837   186A     -0.676541  
     187A     -0.676528   188A     -0.674499   189A     -0.673975  
     190A     -0.673956   191A     -0.667242   192A     -0.662799  
     193A     -0.662792   194A     -0.649582   195A     -0.649571  
     196A     -0.635926   197A     -0.635926   198A     -0.635121  
     199A     -0.631845   200A     -0.631834   201A     -0.628450  
     202A     -0.603797   203A     -0.600782   204A     -0.600753  
     205A     -0.599789   206A     -0.599617   207A     -0.598869  
     208A     -0.598853   209A     -0.590192   210A     -0.590165  
     211A     -0.589912   212A     -0.589085   213A     -0.585443  
     214A     -0.585414   215A     -0.578730   216A     -0.565576  
     217A     -0.565548   218A     -0.563965   219A     -0.558699  
     220A     -0.558693   221A     -0.548470   222A     -0.547728  
     223A     -0.547717   224A     -0.547464   225A     -0.546854  
     226A     -0.546808   227A     -0.545148   228A     -0.545137  
     229A     -0.544663   230A     -0.542598   231A     -0.541422  
     232A     -0.541419   233A     -0.536062   234A     -0.528616  
     235A     -0.528606   236A     -0.526030   237A     -0.525971  
     238A     -0.525886   239A     -0.524334   240A     -0.524330  
     241A     -0.523321   242A     -0.517608   243A     -0.517593  
     244A     -0.516934   245A     -0.516248   246A     -0.516220  
     247A     -0.511748   248A     -0.508963   249A     -0.508081  
     250A     -0.508063   251A     -0.503785   252A     -0.500020  
     253A     -0.498633   254A     -0.493295   255A     -0.483560  
     256A     -0.483544   257A     -0.482738   258A     -0.482728  
     259A     -0.478034   260A     -0.478017   261A     -0.476618  
     262A     -0.466820   263A     -0.466787   264A     -0.465056  
     265A     -0.465050   266A     -0.459898   267A     -0.459880  
     268A     -0.447612   269A     -0.445870   270A     -0.445843  
     271A     -0.444859   272A     -0.444817   273A     -0.441976  
     274A     -0.441961   275A     -0.437388   276A     -0.431705  
     277A     -0.427395   278A     -0.427392   279A     -0.423871  
     280A     -0.418284   281A     -0.415898   282A     -0.415892  
     283A     -0.407761   284A     -0.406023   285A     -0.405988  
     286A     -0.405905   287A     -0.394980   288A     -0.394919  
     289A     -0.389326   290A     -0.388964   291A     -0.388927  
     292A     -0.384922   293A     -0.383980   294A     -0.382579  
     295A     -0.382518   296A     -0.382408   297A     -0.356430  
     298A     -0.356406   299A     -0.335997   300A     -0.335995  
     301A     -0.334799   302A     -0.334750   303A     -0.331911  
     304A     -0.303553   305A     -0.303536   306A     -0.299841  
     307A     -0.285270   308A     -0.282965   309A     -0.282959  
     310A     -0.282408   311A     -0.282339   312A     -0.255240  
     313A     -0.250377   314A     -0.250214   315A     -0.250151  
     316A     -0.235647   317A     -0.207364   318A     -0.201873  
     319A     -0.201822   320A     -0.153631   321A     -0.153543  

    Virtual:                                                              

     322A      0.039028   323A      0.039109   324A      0.086640  
     325A      0.086653   326A      0.086719   327A      0.086867  
     328A      0.086897   329A      0.088436   330A      0.089396  
     331A      0.089417   332A      0.094778   333A      0.097386  
     334A      0.102837   335A      0.102854   336A      0.114114  
     337A      0.114121   338A      0.116864   339A      0.117553  
     340A      0.121547   341A      0.121603   342A      0.123278  
     343A      0.124994   344A      0.125355   345A      0.125388  
     346A      0.127277   347A      0.127573   348A      0.127692  
     349A      0.129462   350A      0.133547   351A      0.133570  
     352A      0.133723   353A      0.138119   354A      0.138130  
     355A      0.139318   356A      0.141545   357A      0.141579  
     358A      0.145531   359A      0.149647   360A      0.149705  
     361A      0.151121   362A      0.152214   363A      0.154265  
     364A      0.155965   365A      0.156087   366A      0.156325  
     367A      0.156393   368A      0.159391   369A      0.161176  
     370A      0.161517   371A      0.161575   372A      0.162033  
     373A      0.162098   374A      0.167408   375A      0.169172  
     376A      0.169225   377A      0.169339   378A      0.172583  
     379A      0.172737   380A      0.176478   381A      0.176511  
     382A      0.181708   383A      0.183193   384A      0.183344  
     385A      0.187931   386A      0.188405   387A      0.188700  
     388A      0.189050   389A      0.189079   390A      0.195333  
     391A      0.195522   392A      0.198935   393A      0.199324  
     394A      0.201076   395A      0.201461   396A      0.202395  
     397A      0.202464   398A      0.204013   399A      0.204194  
     400A      0.204948   401A      0.207333   402A      0.207590  
     403A      0.208175   404A      0.208246   405A      0.209846  
     406A      0.212602   407A      0.212888   408A      0.213916  
     409A      0.214038   410A      0.215135   411A      0.216849  
     412A      0.216913   413A      0.221904   414A      0.222872  
     415A      0.225736   416A      0.225748   417A      0.231346  
     418A      0.231461   419A      0.234221   420A      0.234429  
     421A      0.234742   422A      0.235930   423A      0.237591  
     424A      0.237837   425A      0.240611   426A      0.240903  
     427A      0.241905   428A      0.241947   429A      0.246999  
     430A      0.247574   431A      0.247609   432A      0.248466  
     433A      0.248715   434A      0.248852   435A      0.249631  
     436A      0.249746   437A      0.253128   438A      0.254691  
     439A      0.258107   440A      0.258139   441A      0.258810  
     442A      0.258875   443A      0.259395   444A      0.259700  
     445A      0.261231   446A      0.263013   447A      0.263492  
     448A      0.263504   449A      0.264620   450A      0.264728  
     451A      0.266659   452A      0.266701   453A      0.267311  
     454A      0.267317   455A      0.269828   456A      0.269987  
     457A      0.271934   458A      0.273950   459A      0.274539  
     460A      0.275411   461A      0.278398   462A      0.280515  
     463A      0.281793   464A      0.281856   465A      0.282585  
     466A      0.284110   467A      0.285153   468A      0.285261  
     469A      0.287309   470A      0.287451   471A      0.290136  
     472A      0.291782   473A      0.295134   474A      0.297867  
     475A      0.298014   476A      0.298840   477A      0.300978  
     478A      0.301562   479A      0.301625   480A      0.303464  
     481A      0.304302   482A      0.305888   483A      0.306640  
     484A      0.306702   485A      0.307100   486A      0.307861  
     487A      0.309663   488A      0.309684   489A      0.313839  
     490A      0.314008   491A      0.314732   492A      0.314909  
     493A      0.314977   494A      0.319156   495A      0.319189  
     496A      0.325011   497A      0.326426   498A      0.326473  
     499A      0.328150   500A      0.328562   501A      0.329532  
     502A      0.330417   503A      0.331848   504A      0.332038  
     505A      0.332743   506A      0.333627   507A      0.335620  
     508A      0.335750   509A      0.336865   510A      0.340210  
     511A      0.342218   512A      0.343573   513A      0.343676  
     514A      0.344774   515A      0.345689   516A      0.347323  
     517A      0.347360   518A      0.351417   519A      0.352402  
     520A      0.352468   521A      0.353729   522A      0.353812  
     523A      0.355455   524A      0.355922   525A      0.356143  
     526A      0.356500   527A      0.357234   528A      0.359158  
     529A      0.359197   530A      0.360494   531A      0.360589  
     532A      0.363207   533A      0.363278   534A      0.364131  
     535A      0.368270   536A      0.368427   537A      0.368892  
     538A      0.370055   539A      0.370221   540A      0.374520  
     541A      0.374892   542A      0.374936   543A      0.376024  
     544A      0.376539   545A      0.376938   546A      0.377025  
     547A      0.378028   548A      0.378427   549A      0.378864  
     550A      0.378981   551A      0.381401   552A      0.384726  
     553A      0.386813   554A      0.386821   555A      0.387097  
     556A      0.389781   557A      0.389808   558A      0.390911  
     559A      0.392747   560A      0.393273   561A      0.393360  
     562A      0.395506   563A      0.400328   564A      0.400871  
     565A      0.401393   566A      0.401512   567A      0.402018  
     568A      0.402959   569A      0.403570   570A      0.403979  
     571A      0.404024   572A      0.405544   573A      0.407421  
     574A      0.408313   575A      0.411137   576A      0.411200  
     577A      0.413176   578A      0.413694   579A      0.413998  
     580A      0.414663   581A      0.415518   582A      0.415558  
     583A      0.420384   584A      0.421280   585A      0.421374  
     586A      0.425988   587A      0.426072   588A      0.426342  
     589A      0.428185   590A      0.428397   591A      0.430680  
     592A      0.430699   593A      0.434645   594A      0.435469  
     595A      0.435591   596A      0.435800   597A      0.435860  
     598A      0.439505   599A      0.439754   600A      0.439921  
     601A      0.441254   602A      0.443092   603A      0.443275  
     604A      0.444856   605A      0.444921   606A      0.445655  
     607A      0.447067   608A      0.447089   609A      0.447779  
     610A      0.447915   611A      0.448727   612A      0.450079  
     613A      0.451036   614A      0.451398   615A      0.452121  
     616A      0.455178   617A      0.455217   618A      0.455495  
     619A      0.455581   620A      0.456239   621A      0.456368  
     622A      0.459737   623A      0.459777   624A      0.460337  
     625A      0.460446   626A      0.460689   627A      0.463918  
     628A      0.463941   629A      0.464552   630A      0.464606  
     631A      0.464715   632A      0.464809   633A      0.466771  
     634A      0.467135   635A      0.468255   636A      0.468333  
     637A      0.468433   638A      0.470666   639A      0.470838  
     640A      0.471316   641A      0.471433   642A      0.474594  
     643A      0.475748   644A      0.477149   645A      0.478360  
     646A      0.478519   647A      0.479110   648A      0.480094  
     649A      0.480164   650A      0.481277   651A      0.481878  
     652A      0.483596   653A      0.483729   654A      0.484339  
     655A      0.484510   656A      0.486567   657A      0.487898  
     658A      0.489708   659A      0.489965   660A      0.490308  
     661A      0.491042   662A      0.491087   663A      0.492137  
     664A      0.494728   665A      0.494917   666A      0.497050  
     667A      0.497990   668A      0.498046   669A      0.501438  
     670A      0.502807   671A      0.502923   672A      0.504095  
     673A      0.504757   674A      0.505051   675A      0.505403  
     676A      0.508018   677A      0.508898   678A      0.511037  
     679A      0.511416   680A      0.511804   681A      0.512046  
     682A      0.512081   683A      0.516277   684A      0.516443  
     685A      0.516722   686A      0.517664   687A      0.521716  
     688A      0.522831   689A      0.523285   690A      0.523505  
     691A      0.525431   692A      0.525582   693A      0.526510  
     694A      0.526555   695A      0.528934   696A      0.530423  
     697A      0.531735   698A      0.532566   699A      0.532819  
     700A      0.533708   701A      0.534329   702A      0.535393  
     703A      0.535516   704A      0.536039   705A      0.536844  
     706A      0.537654   707A      0.538446   708A      0.539582  
     709A      0.541294   710A      0.542205   711A      0.542832  
     712A      0.543897   713A      0.544637   714A      0.545338  
     715A      0.545548   716A      0.546496   717A      0.548294  
     718A      0.548481   719A      0.550830   720A      0.552466  
     721A      0.552585   722A      0.556256   723A      0.556724  
     724A      0.556857   725A      0.559327   726A      0.559843  
     727A      0.560331   728A      0.562039   729A      0.562258  
     730A      0.565388   731A      0.565736   732A      0.567125  
     733A      0.568255   734A      0.568350   735A      0.569524  
     736A      0.571518   737A      0.575220   738A      0.575267  
     739A      0.576483   740A      0.577262   741A      0.577546  
     742A      0.579970   743A      0.584048   744A      0.585358  
     745A      0.587211   746A      0.587333   747A      0.587556  
     748A      0.587812   749A      0.594511   750A      0.595569  
     751A      0.600071   752A      0.600423   753A      0.602914  
     754A      0.609052   755A      0.609454   756A      0.610058  
     757A      0.611787   758A      0.613618   759A      0.614697  
     760A      0.615205   761A      0.617711   762A      0.617818  
     763A      0.622614   764A      0.624640   765A      0.625404  
     766A      0.627095   767A      0.628142   768A      0.630384  
     769A      0.632693   770A      0.633404   771A      0.635391  
     772A      0.636265   773A      0.636612   774A      0.636880  
     775A      0.637736   776A      0.638271   777A      0.639085  
     778A      0.641774   779A      0.642285   780A      0.647465  
     781A      0.648881   782A      0.649447   783A      0.652522  
     784A      0.654691   785A      0.655763   786A      0.655875  
     787A      0.656929   788A      0.657508   789A      0.658162  
     790A      0.666415   791A      0.668695   792A      0.670354  
     793A      0.670916   794A      0.671395   795A      0.671845  
     796A      0.676448   797A      0.677652   798A      0.679886  
     799A      0.683341   800A      0.685496   801A      0.686104  
     802A      0.688547   803A      0.693058   804A      0.694195  
     805A      0.697657   806A      0.699422   807A      0.699991  
     808A      0.703990   809A      0.708897   810A      0.709051  
     811A      0.711263   812A      0.711615   813A      0.711660  
     814A      0.714382   815A      0.715113   816A      0.716785  
     817A      0.723228   818A      0.723799   819A      0.727297  
     820A      0.729940   821A      0.735834   822A      0.737078  
     823A      0.739474   824A      0.740955   825A      0.741011  
     826A      0.741728   827A      0.742380   828A      0.743221  
     829A      0.743643   830A      0.744573   831A      0.744708  
     832A      0.745378   833A      0.752566   834A      0.755514  
     835A      0.755704   836A      0.761745   837A      0.762717  
     838A      0.762958   839A      0.764803   840A      0.772841  
     841A      0.774350   842A      0.780223   843A      0.782748  
     844A      0.784011   845A      0.789964   846A      0.792395  
     847A      0.792858   848A      0.794975   849A      0.798659  
     850A      0.798882   851A      0.802427   852A      0.803027  
     853A      0.805508   854A      0.823243   855A      0.827172  
     856A      0.833598   857A      0.834016   858A      0.838923  
     859A      0.839051   860A      0.843050   861A      0.844653  
     862A      0.846536   863A      0.849569   864A      0.851604  
     865A      0.852724   866A      0.854912   867A      0.856016  
     868A      0.857365   869A      0.858422   870A      0.863857  
     871A      0.864217   872A      0.865058   873A      0.866376  
     874A      0.867090   875A      0.867944   876A      0.876573  
     877A      0.877563   878A      0.878023   879A      0.882263  
     880A      0.885635   881A      0.886340   882A      0.887054  
     883A      0.887458   884A      0.888333   885A      0.888869  
     886A      0.893235   887A      0.894170   888A      0.894883  
     889A      0.897545   890A      0.899790   891A      0.902485  
     892A      0.904418   893A      0.907454   894A      0.909654  
     895A      0.910764   896A      0.911291   897A      0.912676  
     898A      0.915235   899A      0.917803   900A      0.917811  
     901A      0.918959   902A      0.919752   903A      0.920591  
     904A      0.921533   905A      0.922186   906A      0.924796  
     907A      0.925055   908A      0.926699   909A      0.926946  
     910A      0.928128   911A      0.928473   912A      0.930086  
     913A      0.933624   914A      0.934836   915A      0.937801  
     916A      0.938215   917A      0.940710   918A      0.941771  
     919A      0.943219   920A      0.944795   921A      0.945450  
     922A      0.947523   923A      0.947602   924A      0.950092  
     925A      0.951442   926A      0.954701   927A      0.955479  
     928A      0.956687   929A      0.962064   930A      0.963834  
     931A      0.968664   932A      0.969226   933A      0.969539  
     934A      0.970244   935A      0.970914   936A      0.971004  
     937A      0.971446   938A      0.971666   939A      0.977034  
     940A      0.977901   941A      0.981072   942A      0.982734  
     943A      0.982873   944A      0.983276   945A      0.984610  
     946A      0.987702   947A      0.989099   948A      0.989591  
     949A      0.994640   950A      0.998334   951A      0.998666  
     952A      0.999489   953A      0.999810   954A      1.000676  
     955A      1.001191   956A      1.001305   957A      1.003368  
     958A      1.005909   959A      1.005984   960A      1.006246  
     961A      1.006424   962A      1.007823   963A      1.014360  
     964A      1.015289   965A      1.017495   966A      1.017927  
     967A      1.022148   968A      1.025382   969A      1.032026  
     970A      1.032568   971A      1.033615   972A      1.034324  
     973A      1.041763   974A      1.042386   975A      1.043673  
     976A      1.043789   977A      1.049796   978A      1.052599  
     979A      1.052678   980A      1.054636   981A      1.054806  
     982A      1.055524   983A      1.056122   984A      1.056350  
     985A      1.064187   986A      1.064322   987A      1.066002  
     988A      1.068757   989A      1.068859   990A      1.071371  
     991A      1.071487   992A      1.071588   993A      1.079636  
     994A      1.081149   995A      1.081467   996A      1.081706  
     997A      1.086459   998A      1.086737   999A      1.092826  
    1000A      1.095367  1001A      1.095521  1002A      1.096981  
    1003A      1.097581  1004A      1.097993  1005A      1.099173  
    1006A      1.099790  1007A      1.100068  1008A      1.101162  
    1009A      1.103469  1010A      1.103828  1011A      1.107697  
    1012A      1.107720  1013A      1.111004  1014A      1.111541  
    1015A      1.111629  1016A      1.113698  1017A      1.115456  
    1018A      1.118447  1019A      1.119291  1020A      1.119372  
    1021A      1.119571  1022A      1.120514  1023A      1.121214  
    1024A      1.121560  1025A      1.122692  1026A      1.123826  
    1027A      1.124113  1028A      1.124438  1029A      1.124616  
    1030A      1.124982  1031A      1.125709  1032A      1.126449  
    1033A      1.127946  1034A      1.128169  1035A      1.129010  
    1036A      1.129785  1037A      1.130678  1038A      1.131459  
    1039A      1.132434  1040A      1.132565  1041A      1.132894  
    1042A      1.133186  1043A      1.134027  1044A      1.135156  
    1045A      1.135612  1046A      1.135775  1047A      1.136237  
    1048A      1.136718  1049A      1.136751  1050A      1.138933  
    1051A      1.139060  1052A      1.140469  1053A      1.140841  
    1054A      1.145597  1055A      1.147802  1056A      1.148205  
    1057A      1.149236  1058A      1.151607  1059A      1.152003  
    1060A      1.152747  1061A      1.153114  1062A      1.153387  
    1063A      1.154866  1064A      1.161486  1065A      1.162427  
    1066A      1.165935  1067A      1.172608  1068A      1.173573  
    1069A      1.174251  1070A      1.175092  1071A      1.180620  
    1072A      1.181389  1073A      1.181766  1074A      1.183325  
    1075A      1.183916  1076A      1.184590  1077A      1.187301  
    1078A      1.189454  1079A      1.189994  1080A      1.192686  
    1081A      1.193120  1082A      1.194176  1083A      1.196667  
    1084A      1.199827  1085A      1.200896  1086A      1.202392  
    1087A      1.202533  1088A      1.203895  1089A      1.205499  
    1090A      1.208191  1091A      1.208293  1092A      1.213091  
    1093A      1.216210  1094A      1.217270  1095A      1.220053  
    1096A      1.221911  1097A      1.222663  1098A      1.227766  
    1099A      1.228007  1100A      1.232158  1101A      1.236076  
    1102A      1.238046  1103A      1.239025  1104A      1.239822  
    1105A      1.239853  1106A      1.244382  1107A      1.245469  
    1108A      1.253848  1109A      1.254435  1110A      1.254609  
    1111A      1.255063  1112A      1.255108  1113A      1.261529  
    1114A      1.262283  1115A      1.263258  1116A      1.263738  
    1117A      1.264876  1118A      1.266580  1119A      1.268953  
    1120A      1.269397  1121A      1.269517  1122A      1.273443  
    1123A      1.276041  1124A      1.284234  1125A      1.284880  
    1126A      1.297096  1127A      1.301247  1128A      1.301659  
    1129A      1.302162  1130A      1.303143  1131A      1.303360  
    1132A      1.309632  1133A      1.312044  1134A      1.312285  
    1135A      1.315294  1136A      1.317596  1137A      1.318792  
    1138A      1.319987  1139A      1.320084  1140A      1.328355  
    1141A      1.332781  1142A      1.332886  1143A      1.338679  
    1144A      1.340514  1145A      1.341471  1146A      1.344180  
    1147A      1.344251  1148A      1.345393  1149A      1.346058  
    1150A      1.347039  1151A      1.347871  1152A      1.351112  
    1153A      1.353687  1154A      1.354216  1155A      1.354743  
    1156A      1.358123  1157A      1.360941  1158A      1.362198  
    1159A      1.364533  1160A      1.365338  1161A      1.365591  
    1162A      1.368072  1163A      1.368287  1164A      1.369652  
    1165A      1.370902  1166A      1.372308  1167A      1.376488  
    1168A      1.376550  1169A      1.380097  1170A      1.380106  
    1171A      1.382476  1172A      1.384858  1173A      1.384959  
    1174A      1.388672  1175A      1.391292  1176A      1.391478  
    1177A      1.399391  1178A      1.399866  1179A      1.401475  
    1180A      1.406988  1181A      1.407362  1182A      1.409197  
    1183A      1.409444  1184A      1.411187  1185A      1.413350  
    1186A      1.413534  1187A      1.418732  1188A      1.419516  
    1189A      1.420893  1190A      1.424674  1191A      1.425536  
    1192A      1.427066  1193A      1.437759  1194A      1.438011  
    1195A      1.439250  1196A      1.442916  1197A      1.443212  
    1198A      1.444629  1199A      1.444879  1200A      1.453289  
    1201A      1.457382  1202A      1.458110  1203A      1.458274  
    1204A      1.459342  1205A      1.459545  1206A      1.460523  
    1207A      1.461884  1208A      1.464535  1209A      1.464995  
    1210A      1.470815  1211A      1.471710  1212A      1.474004  
    1213A      1.474546  1214A      1.476261  1215A      1.478551  
    1216A      1.478738  1217A      1.478796  1218A      1.481447  
    1219A      1.482782  1220A      1.484245  1221A      1.484553  
    1222A      1.485497  1223A      1.490541  1224A      1.490700  
    1225A      1.494092  1226A      1.500746  1227A      1.501432  
    1228A      1.502294  1229A      1.502744  1230A      1.502886  
    1231A      1.503266  1232A      1.503935  1233A      1.515199  
    1234A      1.517350  1235A      1.519655  1236A      1.520517  
    1237A      1.520978  1238A      1.522295  1239A      1.523343  
    1240A      1.530224  1241A      1.534593  1242A      1.534829  
    1243A      1.535590  1244A      1.542924  1245A      1.548860  
    1246A      1.549233  1247A      1.553354  1248A      1.553662  
    1249A      1.556394  1250A      1.556857  1251A      1.567716  
    1252A      1.568392  1253A      1.588661  1254A      1.589119  
    1255A      1.591244  1256A      1.594598  1257A      1.605224  
    1258A      1.605271  1259A      1.635846  1260A      1.635974  
    1261A      1.636155  1262A      1.636195  1263A      1.645512  
    1264A      1.647963  1265A      1.653039  1266A      1.655244  
    1267A      1.657938  1268A      1.658663  1269A      1.659005  
    1270A      1.659436  1271A      1.659832  1272A      1.662105  
    1273A      1.663007  1274A      1.665435  1275A      1.667286  
    1276A      1.667920  1277A      1.667951  1278A      1.670220  
    1279A      1.670660  1280A      1.671888  1281A      1.673191  
    1282A      1.673694  1283A      1.674763  1284A      1.677616  
    1285A      1.678026  1286A      1.678253  1287A      1.683019  
    1288A      1.683660  1289A      1.686484  1290A      1.686753  
    1291A      1.686960  1292A      1.688337  1293A      1.689044  
    1294A      1.690075  1295A      1.690705  1296A      1.691974  
    1297A      1.692121  1298A      1.692471  1299A      1.694741  
    1300A      1.697675  1301A      1.701733  1302A      1.701989  
    1303A      1.706048  1304A      1.706410  1305A      1.706643  
    1306A      1.706713  1307A      1.715797  1308A      1.716572  
    1309A      1.720376  1310A      1.720490  1311A      1.720533  
    1312A      1.720595  1313A      1.721042  1314A      1.723770  
    1315A      1.726341  1316A      1.727258  1317A      1.729690  
    1318A      1.730223  1319A      1.738152  1320A      1.739606  
    1321A      1.744018  1322A      1.745633  1323A      1.747550  
    1324A      1.747796  1325A      1.748667  1326A      1.750446  
    1327A      1.758943  1328A      1.759032  1329A      1.761110  
    1330A      1.765708  1331A      1.765758  1332A      1.766167  
    1333A      1.769424  1334A      1.771242  1335A      1.774546  
    1336A      1.775162  1337A      1.775284  1338A      1.775388  
    1339A      1.782862  1340A      1.788204  1341A      1.797683  
    1342A      1.798764  1343A      1.799066  1344A      1.799289  
    1345A      1.800054  1346A      1.814821  1347A      1.816467  
    1348A      1.818320  1349A      1.830826  1350A      1.833717  
    1351A      1.835465  1352A      1.836163  1353A      1.855445  
    1354A      1.855654  1355A      1.860073  1356A      1.867171  
    1357A      1.873570  1358A      1.874885  1359A      1.876845  
    1360A      1.876970  1361A      1.877239  1362A      1.878851  
    1363A      1.882727  1364A      1.883076  1365A      1.883606  
    1366A      1.887838  1367A      1.888237  1368A      1.888838  
    1369A      1.889646  1370A      1.897126  1371A      1.898354  
    1372A      1.904874  1373A      1.904969  1374A      1.910842  
    1375A      1.911316  1376A      1.914617  1377A      1.914697  
    1378A      1.916266  1379A      1.916372  1380A      1.920400  
    1381A      1.921144  1382A      1.921888  1383A      1.921949  
    1384A      1.923874  1385A      1.930145  1386A      1.930586  
    1387A      1.931523  1388A      1.933575  1389A      1.934399  
    1390A      1.934915  1391A      1.935828  1392A      1.937268  
    1393A      1.940045  1394A      1.940549  1395A      1.940812  
    1396A      1.942472  1397A      1.953524  1398A      1.953752  
    1399A      1.954455  1400A      1.954903  1401A      1.960644  
    1402A      1.962348  1403A      1.967239  1404A      1.968258  
    1405A      1.972243  1406A      1.974148  1407A      1.974371  
    1408A      1.976638  1409A      1.977376  1410A      1.977589  
    1411A      1.984404  1412A      1.986046  1413A      1.986262  
    1414A      1.986726  1415A      1.988666  1416A      1.989333  
    1417A      1.991725  1418A      1.993862  1419A      1.994066  
    1420A      1.995537  1421A      1.996562  1422A      2.000900  
    1423A      2.001806  1424A      2.001990  1425A      2.004784  
    1426A      2.004989  1427A      2.009677  1428A      2.010053  
    1429A      2.010500  1430A      2.010956  1431A      2.011474  
    1432A      2.013691  1433A      2.016830  1434A      2.019630  
    1435A      2.020466  1436A      2.021261  1437A      2.022126  
    1438A      2.025166  1439A      2.029671  1440A      2.033047  
    1441A      2.033455  1442A      2.035853  1443A      2.036391  
    1444A      2.037815  1445A      2.039635  1446A      2.040461  
    1447A      2.040507  1448A      2.045276  1449A      2.046163  
    1450A      2.046268  1451A      2.054911  1452A      2.057339  
    1453A      2.061763  1454A      2.062809  1455A      2.063567  
    1456A      2.066474  1457A      2.066663  1458A      2.067430  
    1459A      2.068550  1460A      2.070524  1461A      2.071120  
    1462A      2.072550  1463A      2.073309  1464A      2.073454  
    1465A      2.079369  1466A      2.081583  1467A      2.083533  
    1468A      2.083994  1469A      2.085914  1470A      2.087908  
    1471A      2.089474  1472A      2.090448  1473A      2.098674  
    1474A      2.100048  1475A      2.102833  1476A      2.104548  
    1477A      2.107284  1478A      2.107959  1479A      2.109609  
    1480A      2.110246  1481A      2.111154  1482A      2.111770  
    1483A      2.117829  1484A      2.118991  1485A      2.120260  
    1486A      2.120637  1487A      2.123828  1488A      2.126865  
    1489A      2.127977  1490A      2.129467  1491A      2.130136  
    1492A      2.131693  1493A      2.132677  1494A      2.133271  
    1495A      2.133862  1496A      2.134158  1497A      2.136312  
    1498A      2.138069  1499A      2.138208  1500A      2.139322  
    1501A      2.139440  1502A      2.139524  1503A      2.140300  
    1504A      2.140894  1505A      2.142995  1506A      2.143384  
    1507A      2.144240  1508A      2.147951  1509A      2.148102  
    1510A      2.150306  1511A      2.151136  1512A      2.151524  
    1513A      2.152135  1514A      2.154097  1515A      2.157477  
    1516A      2.160764  1517A      2.161805  1518A      2.163421  
    1519A      2.163428  1520A      2.163747  1521A      2.164335  
    1522A      2.165770  1523A      2.167332  1524A      2.168737  
    1525A      2.171387  1526A      2.176667  1527A      2.177002  
    1528A      2.177520  1529A      2.177807  1530A      2.178258  
    1531A      2.178571  1532A      2.181029  1533A      2.181995  
    1534A      2.185943  1535A      2.186358  1536A      2.189038  
    1537A      2.190944  1538A      2.193066  1539A      2.193460  
    1540A      2.193858  1541A      2.194677  1542A      2.195277  
    1543A      2.204945  1544A      2.206151  1545A      2.208631  
    1546A      2.209154  1547A      2.209913  1548A      2.210499  
    1549A      2.210832  1550A      2.210864  1551A      2.211912  
    1552A      2.212424  1553A      2.221626  1554A      2.221945  
    1555A      2.230158  1556A      2.230927  1557A      2.231503  
    1558A      2.232548  1559A      2.238742  1560A      2.239682  
    1561A      2.241976  1562A      2.243738  1563A      2.244547  
    1564A      2.246913  1565A      2.247905  1566A      2.249505  
    1567A      2.250895  1568A      2.251696  1569A      2.252562  
    1570A      2.253062  1571A      2.254010  1572A      2.254791  
    1573A      2.255657  1574A      2.259745  1575A      2.264243  
    1576A      2.264649  1577A      2.271365  1578A      2.271498  
    1579A      2.272408  1580A      2.273563  1581A      2.276346  
    1582A      2.276508  1583A      2.279339  1584A      2.280490  
    1585A      2.281983  1586A      2.282645  1587A      2.290315  
    1588A      2.290729  1589A      2.291330  1590A      2.292856  
    1591A      2.296848  1592A      2.297386  1593A      2.300117  
    1594A      2.300856  1595A      2.308919  1596A      2.310200  
    1597A      2.312836  1598A      2.314230  1599A      2.316198  
    1600A      2.318056  1601A      2.326700  1602A      2.332970  
    1603A      2.334620  1604A      2.339841  1605A      2.340495  
    1606A      2.345778  1607A      2.348328  1608A      2.353773  
    1609A      2.354171  1610A      2.359383  1611A      2.366806  
    1612A      2.375212  1613A      2.375629  1614A      2.376047  
    1615A      2.377761  1616A      2.379983  1617A      2.380638  
    1618A      2.382006  1619A      2.384402  1620A      2.385563  
    1621A      2.386281  1622A      2.390936  1623A      2.392334  
    1624A      2.393018  1625A      2.393043  1626A      2.395610  
    1627A      2.396375  1628A      2.396658  1629A      2.401486  
    1630A      2.401720  1631A      2.420720  1632A      2.424878  
    1633A      2.425466  1634A      2.433596  1635A      2.438612  
    1636A      2.441853  1637A      2.443063  1638A      2.444214  
    1639A      2.448624  1640A      2.468709  1641A      2.470066  
    1642A      2.474449  1643A      2.477864  1644A      2.483401  
    1645A      2.492080  1646A      2.493721  1647A      2.503228  
    1648A      2.504172  1649A      2.514605  1650A      2.514655  
    1651A      2.518032  1652A      2.518342  1653A      2.522048  
    1654A      2.522320  1655A      2.540525  1656A      2.540887  
    1657A      2.545702  1658A      2.551392  1659A      2.555503  
    1660A      2.556375  1661A      2.560823  1662A      2.566159  
    1663A      2.589798  1664A      2.589959  1665A      2.590213  
    1666A      2.592027  1667A      2.592857  1668A      2.595965  
    1669A      2.596851  1670A      2.598441  1671A      2.599633  
    1672A      2.601327  1673A      2.608352  1674A      2.608525  
    1675A      2.614989  1676A      2.620609  1677A      2.621454  
    1678A      2.628818  1679A      2.632287  1680A      2.632738  
    1681A      2.635216  1682A      2.636329  1683A      2.637148  
    1684A      2.637234  1685A      2.641880  1686A      2.643543  
    1687A      2.651276  1688A      2.651463  1689A      2.662850  
    1690A      2.662979  1691A      2.663264  1692A      2.663891  
    1693A      2.666334  1694A      2.667526  1695A      2.683241  
    1696A      2.691081  1697A      2.691856  1698A      2.694021  
    1699A      2.696158  1700A      2.697169  1701A      2.699319  
    1702A      2.700183  1703A      2.702077  1704A      2.705392  
    1705A      2.705807  1706A      2.716845  1707A      2.717147  
    1708A      2.717908  1709A      2.719621  1710A      2.719803  
    1711A      2.725220  1712A      2.726608  1713A      2.726787  
    1714A      2.734724  1715A      2.736440  1716A      2.737843  
    1717A      2.741398  1718A      2.742015  1719A      2.742389  
    1720A      2.742939  1721A      2.746820  1722A      2.747967  
    1723A      2.755234  1724A      2.770373  1725A      2.780175  
    1726A      2.780404  1727A      2.781174  1728A      2.781237  
    1729A      2.781387  1730A      2.802793  1731A      2.812147  
    1732A      2.812924  1733A      2.824925  1734A      2.827942  
    1735A      2.830970  1736A      2.831210  1737A      2.850861  
    1738A      2.851434  1739A      2.853446  1740A      2.853694  
    1741A      2.853836  1742A      2.860833  1743A      2.863468  
    1744A      2.865799  1745A      2.866264  1746A      2.866766  
    1747A      2.868659  1748A      2.879974  1749A      2.880281  
    1750A      2.891180  1751A      2.891490  1752A      2.892119  
    1753A      2.892527  1754A      2.896057  1755A      2.911570  
    1756A      2.916090  1757A      2.916693  1758A      2.920175  
    1759A      2.921505  1760A      2.925053  1761A      2.947956  
    1762A      2.948350  1763A      2.948569  1764A      2.948639  
    1765A      2.949497  1766A      2.965350  1767A      2.966821  
    1768A      2.966979  1769A      2.976541  1770A      2.978794  
    1771A      2.984555  1772A      2.984583  1773A      3.013182  
    1774A      3.014258  1775A      3.014837  1776A      3.025958  
    1777A      3.041774  1778A      3.042550  1779A      3.079682  
    1780A      3.080533  1781A      3.084872  1782A      3.088123  
    1783A      3.097292  1784A      3.097685  1785A      3.098277  
    1786A      3.108541  1787A      3.108619  1788A      3.111266  
    1789A      3.123482  1790A      3.157607  1791A      3.162054  
    1792A      3.162428  1793A      3.172621  1794A      3.177895  
    1795A      3.178154  1796A      3.182868  1797A      3.184554  
    1798A      3.191588  1799A      3.192422  1800A      3.198634  
    1801A      3.199054  1802A      3.199411  1803A      3.199977  
    1804A      3.202779  1805A      3.211146  1806A      3.219530  
    1807A      3.222440  1808A      3.224047  1809A      3.224507  
    1810A      3.242481  1811A      3.243041  1812A      3.268692  
    1813A      3.269886  1814A      3.302986  1815A      3.308457  
    1816A      3.311517  1817A      3.311913  1818A      3.312752  
    1819A      3.314659  1820A      3.318295  1821A      3.321219  
    1822A      3.324706  1823A      3.325525  1824A      3.342835  
    1825A      3.344407  1826A      3.345671  1827A      3.352572  
    1828A      3.412539  1829A      3.413549  1830A      3.421623  
    1831A      3.467188  1832A      3.481196  1833A      3.484330  
    1834A      3.491423  1835A      3.498018  1836A      3.501074  
    1837A      3.513430  1838A      3.516133  1839A      3.517511  
    1840A      3.522674  1841A      3.525659  1842A      3.532743  
    1843A      3.536821  1844A      3.545628  1845A      3.560885  
    1846A      3.591073  1847A      3.625835  1848A      3.627567  
    1849A      3.633800  1850A      3.640518  1851A      3.686572  
    1852A      3.689945  1853A      3.715750  1854A      3.717829  
    1855A      3.756494  1856A      3.799219  1857A      3.799665  
    1858A      3.801649  1859A      3.815423  1860A      3.828880  
    1861A      3.831272  1862A      3.892239  1863A      3.893927  
    1864A      3.922075  1865A      3.925262  1866A      3.955491  
    1867A      3.964117  1868A      3.990183  1869A      3.992185  
    1870A      3.999046  1871A      3.999984  1872A      4.010006  
    1873A      4.017300  1874A      4.023137  1875A      4.076630  
    1876A      4.079629  1877A      4.123727  1878A      4.174939  
    1879A      4.175014  1880A      4.175072  1881A      4.202692  
    1882A      4.202716  1883A      4.203266  1884A      4.203330  
    1885A      4.203424  1886A      4.235538  1887A      4.235551  
    1888A      4.235851  1889A      4.282671  1890A      4.355558  
    1891A      4.447108  1892A      4.449978  1893A      4.450281  
    1894A      4.450528  1895A      4.650266  1896A      4.650350  
    1897A      4.650671  1898A      4.751572  1899A      4.787021  
    1900A      4.787325  

    Final Occupation by Irrep:
              A 
    DOCC [   321 ]
    NA   [   321 ]
    NB   [   321 ]

  @DF-RHF Final Energy: -4073.10378875722699

   => Energetics <=

    Nuclear Repulsion Energy =          17150.0266650653284159
    One-Electron Energy =              -39780.0015489050492761
    Two-Electron Energy =               18556.8710950824934116
    Total Energy =                      -4073.1037887572274485

Computation Completed


Properties will be evaluated at   0.000000,   0.000000,   0.000000 [a0]

Properties computed using the SCF density matrix


 Multipole Moments:

 ------------------------------------------------------------------------------------
     Multipole            Electronic (a.u.)      Nuclear  (a.u.)        Total (a.u.)
 ------------------------------------------------------------------------------------

 L = 1.  Multiply by 2.5417464519 to convert [e a0] to [Debye]
 Dipole X            :         -0.0007616           -0.0000548           -0.0008164
 Dipole Y            :          0.0010254           -0.0002464            0.0007791
 Dipole Z            :         31.9324457          -44.0388547          -12.1064090
 Magnitude           :                                                   12.1064090

 ------------------------------------------------------------------------------------

*** tstop() called on n2cn0795 at Thu Jan 25 02:58:54 2024
Module time:
	user time   =   24593.03 seconds =     409.88 minutes
	system time =    1390.76 seconds =      23.18 minutes
	total time  =      15732 seconds =     262.20 minutes
Total time:
	user time   =   24593.03 seconds =     409.88 minutes
	system time =    1390.76 seconds =      23.18 minutes
	total time  =      15732 seconds =     262.20 minutes

  //>>>>>>>>>>>>>>>>>>>>>>>>>>>>>>>>>>>//
  //            Monomer A HF           //
  //<<<<<<<<<<<<<<<<<<<<<<<<<<<<<<<<<<<//

   => Libint2 <=

    Primary   basis highest AM E, G, H:  5, 4, 3
    Auxiliary basis highest AM E, G, H:  6, 5, 4
    Onebody   basis highest AM E, G, H:  6, 5, 4
    Solid Harmonics ordering:            gaussian

*** tstart() called on n2cn0795
*** at Thu Jan 25 02:58:54 2024

   => Loading Basis Set <=

    Name: JUN-CC-PVDZ
    Role: ORBITAL
    Keyword: BASIS
    atoms 1                                                   entry B          line   130 file /opt/software/pc2/EB-SW/software/PSI4/1.9-foss-2022a/share/psi4/basis/jun-cc-pvdz.gbs 
    atoms 2-5                                                 entry F          line   266 file /opt/software/pc2/EB-SW/software/PSI4/1.9-foss-2022a/share/psi4/basis/jun-cc-pvdz.gbs 
    atoms 6-23, 30-42, 45-59, 62-78, 81-93, 98-108, 111-119   entry C          line   164 file /opt/software/pc2/EB-SW/software/PSI4/1.9-foss-2022a/share/psi4/basis/jun-cc-pvdz.gbs 
    atoms 24-29, 43-44, 60-61, 79-80, 94-97, 109-110, 120-125 entry H          line    36 file /opt/software/pc2/EB-SW/software/PSI4/1.9-foss-2022a/share/psi4/basis/jun-cc-pvdz.gbs 


         ---------------------------------------------------------
                                   SCF
               by Justin Turney, Rob Parrish, Andy Simmonett
                          and Daniel G. A. Smith
                              RHF Reference
                       16 Threads,  44822 MiB Core
         ---------------------------------------------------------

  ==> Geometry <==

    Molecular point group: c1
    Full point group: C1

    Geometry (in Angstrom), charge = -1, multiplicity = 1:

       Center              X                  Y                   Z               Mass       
    ------------   -----------------  -----------------  -----------------  -----------------
         B           -0.000201921932     0.000288800891     6.890352015271    11.009305360000
         F           -0.000004162732     0.000014527991     8.303137015271    18.998403162730
         F            1.147855837268     0.675795727991     6.419211015271    18.998403162730
         F            0.011913897268    -1.331996472009     6.419413015271    18.998403162730
         F           -1.159670162732     0.656088027991     6.419492015271    18.998403162730
      Gh(C)          -3.668445426752     7.803766698073    -0.507781943394    12.000000000000
      Gh(C)          -4.847602882078     7.131256359331    -0.510148518326    12.000000000000
      Gh(C)          -4.894963461907     5.696344931522    -0.510721429424    12.000000000000
      Gh(C)          -3.653744841505     4.980744868950    -0.503060987695    12.000000000000
      Gh(C)          -2.409429284226     7.113995564665    -0.507587601133    12.000000000000
      Gh(C)          -2.425481506836     5.681136478894    -0.514592490003    12.000000000000
      Gh(C)          -1.194748179167     7.786158722300    -0.506115420591    12.000000000000
      Gh(C)           0.037954866205     7.099436173748    -0.508286124896    12.000000000000
      Gh(C)           0.030328424687     5.669504087695    -0.513769509812    12.000000000000
      Gh(C)          -1.200988670637     4.969284875906    -0.504799775879    12.000000000000
      Gh(C)           1.277953663083     7.772873971185    -0.506910276336    12.000000000000
      Gh(C)           2.485353921992     7.087711413228    -0.509184764241    12.000000000000
      Gh(C)           2.486124522185     5.654785338231    -0.516122513228    12.000000000000
      Gh(C)           1.254078756912     4.956092641655    -0.504494571640    12.000000000000
      Gh(C)           3.751710428674     7.763926678971    -0.509057912860    12.000000000000
      Gh(C)           4.923561893453     7.078795304981    -0.511114393568    12.000000000000
      Gh(C)           4.955603108594     5.643461991360    -0.511274806375    12.000000000000
      Gh(C)           3.706797371473     4.941224736324    -0.506183246205    12.000000000000
      Gh(H)          -3.658525300490     8.890841947126    -0.506096955143     1.007825032230
      Gh(H)          -1.189217492488     8.874135615351    -0.502143544150     1.007825032230
      Gh(H)           1.284290076155     8.860847963479    -0.502751452195     1.007825032230
      Gh(H)           3.753537924068     8.851049806963    -0.507535388544     1.007825032230
      Gh(H)           5.869954540475     7.613809362646    -0.512039760610     1.007825032230
      Gh(H)          -5.788235870234     7.676316740925    -0.511708365682     1.007825032230
[...]
    1495A      2.102772  1496A      2.106421  1497A      2.109998  
    1498A      2.111513  1499A      2.111913  1500A      2.112126  
    1501A      2.112832  1502A      2.114266  1503A      2.116469  
    1504A      2.117822  1505A      2.119772  1506A      2.125937  
    1507A      2.126197  1508A      2.126643  1509A      2.126800  
    1510A      2.126947  1511A      2.127554  1512A      2.128935  
    1513A      2.130674  1514A      2.134659  1515A      2.135115  
    1516A      2.136892  1517A      2.137754  1518A      2.142939  
    1519A      2.143121  1520A      2.143156  1521A      2.143875  
    1522A      2.144116  1523A      2.154114  1524A      2.154892  
    1525A      2.157209  1526A      2.157266  1527A      2.158446  
    1528A      2.159163  1529A      2.159751  1530A      2.159941  
    1531A      2.162406  1532A      2.162698  1533A      2.171069  
    1534A      2.171383  1535A      2.179561  1536A      2.180736  
    1537A      2.181015  1538A      2.182210  1539A      2.187844  
    1540A      2.188622  1541A      2.190535  1542A      2.191465  
    1543A      2.192544  1544A      2.194937  1545A      2.196411  
    1546A      2.197917  1547A      2.199985  1548A      2.200346  
    1549A      2.200705  1550A      2.201196  1551A      2.203023  
    1552A      2.204132  1553A      2.205463  1554A      2.209005  
    1555A      2.213595  1556A      2.213885  1557A      2.220126  
    1558A      2.222082  1559A      2.222673  1560A      2.224111  
    1561A      2.224694  1562A      2.224736  1563A      2.228757  
    1564A      2.231986  1565A      2.232272  1566A      2.233006  
    1567A      2.238634  1568A      2.238817  1569A      2.239368  
    1570A      2.241238  1571A      2.247408  1572A      2.247722  
    1573A      2.248176  1574A      2.248619  1575A      2.260254  
    1576A      2.261453  1577A      2.263295  1578A      2.264830  
    1579A      2.266460  1580A      2.269484  1581A      2.275197  
    1582A      2.282772  1583A      2.284222  1584A      2.290131  
    1585A      2.290963  1586A      2.296257  1587A      2.296738  
    1588A      2.303688  1589A      2.304101  1590A      2.309024  
    1591A      2.314054  1592A      2.324404  1593A      2.324842  
    1594A      2.325157  1595A      2.327041  1596A      2.329345  
    1597A      2.330528  1598A      2.331048  1599A      2.332906  
    1600A      2.334216  1601A      2.334987  1602A      2.339594  
    1603A      2.341339  1604A      2.342126  1605A      2.342305  
    1606A      2.344758  1607A      2.345761  1608A      2.346265  
    1609A      2.349032  1610A      2.349379  1611A      2.367897  
    1612A      2.372151  1613A      2.372771  1614A      2.383565  
    1615A      2.387906  1616A      2.390133  1617A      2.391578  
    1618A      2.392478  1619A      2.396877  1620A      2.418274  
    1621A      2.419452  1622A      2.423426  1623A      2.427484  
    1624A      2.431805  1625A      2.441407  1626A      2.443077  
    1627A      2.451897  1628A      2.453041  1629A      2.464251  
    1630A      2.464287  1631A      2.467674  1632A      2.467941  
    1633A      2.471884  1634A      2.472145  1635A      2.490924  
    1636A      2.491289  1637A      2.494347  1638A      2.501551  
    1639A      2.505855  1640A      2.506891  1641A      2.511425  
    1642A      2.516145  1643A      2.539027  1644A      2.539079  
    1645A      2.539963  1646A      2.541751  1647A      2.542613  
    1648A      2.544696  1649A      2.547441  1650A      2.548384  
    1651A      2.549090  1652A      2.551024  1653A      2.556492  
    1654A      2.556647  1655A      2.564174  1656A      2.571067  
    1657A      2.571450  1658A      2.579934  1659A      2.583622  
    1660A      2.584086  1661A      2.585013  1662A      2.586207  
    1663A      2.588432  1664A      2.588504  1665A      2.593181  
    1666A      2.593469  1667A      2.601246  1668A      2.601391  
    1669A      2.612656  1670A      2.612837  1671A      2.613178  
    1672A      2.613671  1673A      2.616056  1674A      2.617254  
    1675A      2.632506  1676A      2.640481  1677A      2.641405  
    1678A      2.643559  1679A      2.645364  1680A      2.647265  
    1681A      2.648540  1682A      2.649128  1683A      2.652723  
    1684A      2.655666  1685A      2.656052  1686A      2.665940  
    1687A      2.666022  1688A      2.667526  1689A      2.670317  
    1690A      2.670494  1691A      2.673529  1692A      2.677071  
    1693A      2.677499  1694A      2.684192  1695A      2.685476  
    1696A      2.686992  1697A      2.690974  1698A      2.691190  
    1699A      2.691512  1700A      2.692303  1701A      2.696004  
    1702A      2.697244  1703A      2.703952  1704A      2.720589  
    1705A      2.730623  1706A      2.730678  1707A      2.730827  
    1708A      2.731006  1709A      2.731812  1710A      2.752451  
    1711A      2.759911  1712A      2.760649  1713A      2.772154  
    1714A      2.775745  1715A      2.779425  1716A      2.779826  
    1717A      2.798997  1718A      2.799830  1719A      2.801336  
    1720A      2.802145  1721A      2.802182  1722A      2.808428  
    1723A      2.810342  1724A      2.810780  1725A      2.811444  
    1726A      2.814072  1727A      2.814674  1728A      2.815575  
    1729A      2.815765  1730A      2.816249  1731A      2.827891  
    1732A      2.828166  1733A      2.840083  1734A      2.840430  
    1735A      2.841169  1736A      2.841543  1737A      2.845187  
    1738A      2.860447  1739A      2.864756  1740A      2.865319  
    1741A      2.869634  1742A      2.870933  1743A      2.874112  
    1744A      2.895866  1745A      2.896753  1746A      2.912524  
    1747A      2.917579  1748A      2.917733  1749A      2.927388  
    1750A      2.929487  1751A      2.934775  1752A      2.934811  
    1753A      2.962982  1754A      2.964638  1755A      2.965226  
    1756A      2.976070  1757A      2.991601  1758A      2.992375  
    1759A      3.029117  1760A      3.029875  1761A      3.035281  
    1762A      3.038486  1763A      3.046744  1764A      3.047381  
    1765A      3.047943  1766A      3.057430  1767A      3.057485  
    1768A      3.063126  1769A      3.072803  1770A      3.108352  
    1771A      3.112612  1772A      3.112922  1773A      3.122221  
    1774A      3.126950  1775A      3.127375  1776A      3.132307  
    1777A      3.133929  1778A      3.141871  1779A      3.142846  
    1780A      3.147976  1781A      3.148540  1782A      3.149337  
    1783A      3.150023  1784A      3.153482  1785A      3.162057  
    1786A      3.167583  1787A      3.173102  1788A      3.174601  
    1789A      3.175068  1790A      3.192993  1791A      3.193595  
    1792A      3.219990  1793A      3.252786  1794A      3.259331  
    1795A      3.260436  1796A      3.261307  1797A      3.261939  
    1798A      3.264207  1799A      3.268056  1800A      3.271023  
    1801A      3.274390  1802A      3.275221  1803A      3.292062  
    1804A      3.293597  1805A      3.294610  1806A      3.302050  
    1807A      3.360923  1808A      3.361963  1809A      3.369751  
    1810A      3.415369  1811A      3.429526  1812A      3.431942  
    1813A      3.436901  1814A      3.445042  1815A      3.448060  
    1816A      3.460652  1817A      3.464386  1818A      3.465112  
    1819A      3.470782  1820A      3.473712  1821A      3.480772  
    1822A      3.484122  1823A      3.493314  1824A      3.509043  
    1825A      3.538646  1826A      3.574240  1827A      3.575923  
    1828A      3.582174  1829A      3.589841  1830A      3.634758  
    1831A      3.638065  1832A      3.664489  1833A      3.666659  
    1834A      3.704933  1835A      3.747157  1836A      3.749102  
    1837A      3.750339  1838A      3.762933  1839A      3.778548  
    1840A      3.778587  1841A      3.841832  1842A      3.843123  
    1843A      3.871414  1844A      3.874552  1845A      3.904505  
    1846A      3.912841  1847A      3.937577  1848A      3.939365  
    1849A      3.948164  1850A      3.949099  1851A      3.958329  
    1852A      3.964360  1853A      3.970718  1854A      4.024576  
    1855A      4.027392  1856A      4.070738  1857A      4.182008  
    1858A      4.183925  1859A      4.184189  1860A      4.228914  
    1861A      4.301175  1862A      4.323458  1863A      4.393047  
    1864A      5.747522  1865A      5.747522  1866A      5.748446  
    1867A      5.751738  1868A      5.751757  1869A      5.757886  
    1870A      5.757909  1871A      5.758389  1872A      5.777057  
    1873A      5.777089  1874A      5.778384  1875A      6.018575  
    1876A      6.018899  1877A      6.019524  1878A      6.191110  
    1879A      6.325526  1880A      6.325856  1881A      6.371922  
    1882A      6.372463  1883A      6.372806  1884A      7.146109  
    1885A      7.146513  1886A      7.221710  1887A      7.221801  
    1888A      7.231615  1889A      7.240801  1890A      7.246742  
    1891A      7.247042  1892A      7.452428  1893A      7.452618  
    1894A      7.461629  1895A      7.591808  1896A     12.589781  
    1897A     42.906100  1898A     42.908105  1899A     42.908129  
    1900A     42.936576  

    Final Occupation by Irrep:
              A 
    DOCC [   300 ]
    NA   [   300 ]
    NB   [   300 ]

  @DF-RHF Final Energy: -3650.33751539364766

   => Energetics <=

    Nuclear Repulsion Energy =          15611.4211649754324753
    One-Electron Energy =              -36072.0713596928835614
    Two-Electron Energy =               16810.3126793238043319
    Total Energy =                      -3650.3375153936467541

Computation Completed


Properties will be evaluated at   0.000000,   0.000000,   0.000000 [a0]

Properties computed using the SCF density matrix


 Multipole Moments:

 ------------------------------------------------------------------------------------
     Multipole            Electronic (a.u.)      Nuclear  (a.u.)        Total (a.u.)
 ------------------------------------------------------------------------------------

 L = 1.  Multiply by 2.5417464519 to convert [e a0] to [Debye]
 Dipole X            :         -0.0009577            0.0002304           -0.0007272
 Dipole Y            :          0.0010711           -0.0013052           -0.0002341
 Dipole Z            :        577.8911064         -577.8922254           -0.0011190
 Magnitude           :                                                    0.0013549

 ------------------------------------------------------------------------------------

*** tstop() called on n2cn0795 at Thu Jan 25 06:03:46 2024
Module time:
	user time   =   16703.17 seconds =     278.39 minutes
	system time =     988.78 seconds =      16.48 minutes
	total time  =       7557 seconds =     125.95 minutes
Total time:
	user time   =   45563.41 seconds =     759.39 minutes
	system time =    2630.29 seconds =      43.84 minutes
	total time  =      26824 seconds =     447.07 minutes
  Constructing Basis Sets for SAPT...

   => Loading Basis Set <=

    Name: (JUN-CC-PVDZ AUX)
    Role: RIFIT
    Keyword: DF_BASIS_SAPT
    atoms 1                                                   entry B          line    56 file /opt/software/pc2/EB-SW/software/PSI4/1.9-foss-2022a/share/psi4/basis/jun-cc-pvdz-ri.gbs 
    atoms 2-5                                                 entry F          line   232 file /opt/software/pc2/EB-SW/software/PSI4/1.9-foss-2022a/share/psi4/basis/jun-cc-pvdz-ri.gbs 
    atoms 6-23, 30-42, 45-59, 62-78, 81-93, 98-108, 111-119   entry C          line   100 file /opt/software/pc2/EB-SW/software/PSI4/1.9-foss-2022a/share/psi4/basis/jun-cc-pvdz-ri.gbs 
    atoms 24-29, 43-44, 60-61, 79-80, 94-97, 109-110, 120-125 entry H          line    30 file /opt/software/pc2/EB-SW/software/PSI4/1.9-foss-2022a/share/psi4/basis/jun-cc-pvdz-ri.gbs 

   => Loading Basis Set <=

    Name: (JUN-CC-PVDZ AUX)
    Role: JKFIT
    Keyword: DF_BASIS_ELST
    atoms 1                                                   entry B          line    90 file /opt/software/pc2/EB-SW/software/PSI4/1.9-foss-2022a/share/psi4/basis/jun-cc-pvdz-jkfit.gbs 
    atoms 2-5                                                 entry F          line   314 file /opt/software/pc2/EB-SW/software/PSI4/1.9-foss-2022a/share/psi4/basis/jun-cc-pvdz-jkfit.gbs 
    atoms 6-23, 30-42, 45-59, 62-78, 81-93, 98-108, 111-119   entry C          line   146 file /opt/software/pc2/EB-SW/software/PSI4/1.9-foss-2022a/share/psi4/basis/jun-cc-pvdz-jkfit.gbs 
    atoms 24-29, 43-44, 60-61, 79-80, 94-97, 109-110, 120-125 entry H          line    70 file /opt/software/pc2/EB-SW/software/PSI4/1.9-foss-2022a/share/psi4/basis/jun-cc-pvdz-jkfit.gbs 


  //>>>>>>>>>>>>>>>>>>>>>>>>>>>>>>>>>>>//
  //               SSAPT0              //
  //<<<<<<<<<<<<<<<<<<<<<<<<<<<<<<<<<<<//


*** tstart() called on n2cn0795
*** at Thu Jan 25 06:03:48 2024

        SAPT0  
    Ed Hohenstein
     6 June 2009

      Orbital Information
  --------------------------
    NSO        =      1938
    NMO        =      1900
    NRI        =      6901
    NRI (Elst) =      8531
    NOCC A     =        21
    NOCC B     =       300
    FOCC A     =         5
    FOCC B     =        96
    NVIR A     =      1879
    NVIR B     =      1600

    Elst10,r            =     0.007834645022 [Eh]
    Exch10              =    -0.000000139895 [Eh]
    Exch10 (S^2)        =    -0.000000139895 [Eh]

    Iter     Energy [mEh]          dE [mEh]         Residual      Time [s]
       1      -0.00281654       0.002816543       0.378892199           478
       2      -0.00329479       0.000478249       0.196107746          1029
       3      -0.00348196       0.000187170       0.039628995          1523
       4      -0.00348895       0.000006991       0.007747440          2471
       5      -0.00348278      -0.000006174       0.001012600          3406
       6      -0.00348341       0.000000629       0.000203331          4391
       7      -0.00348339      -0.000000023       0.000049183          5235
       8      -0.00348338      -0.000000010       0.000012720          5616
       9      -0.00348337      -0.000000001       0.000002481          6223
      10      -0.00348338       0.000000001       0.000000331          6756

    CHF Iterations converged


    Iter     Energy [mEh]          dE [mEh]         Residual      Time [s]
       1      -4.12032340       4.120323398      35.240823669           460
       2      -2.65571087      -1.464612525       4.085016411           906
       3      -2.64476325      -0.010947627       1.389516795          1354
       4      -2.69265907       0.047895827       0.426839289          1716
       5      -2.69872924       0.006070166       0.146823728          2099
       6      -2.69820418      -0.000525064       0.096372144          2632
       7      -2.69681100      -0.001393174       0.044507541          3197
       8      -2.69694954       0.000138535       0.026804946          4031
       9      -2.69732055       0.000371010       0.016864559          5253
      10      -2.69720199      -0.000118560       0.012435860          5832
      11      -2.69714375      -0.000058235       0.004966893          6481
      12      -2.69715066       0.000006904       0.002123738          7136
      13      -2.69716180       0.000011144       0.000783321          7818
      14      -2.69716414       0.000002335       0.000258175          8466
      15      -2.69716290      -0.000001237       0.000148568          8979
      16      -2.69716177      -0.000001132       0.000084179          9532
      17      -2.69716234       0.000000578       0.000046936         10052
      18      -2.69716252       0.000000175       0.000017587         10500
      19      -2.69716243      -0.000000087       0.000009231         10939
      20      -2.69716239      -0.000000038       0.000003738         11769
      21      -2.69716240       0.000000010       0.000001651         12272
      22      -2.69716241       0.000000008       0.000000835         12801

    CHF Iterations converged

    Ind20,r (A<-B)      =    -0.000003483375 [Eh]
    Ind20,r (B<-A)      =    -0.002697162412 [Eh]
    Ind20,r             =    -0.002700645787 [Eh]
    Exch-Ind20,r (A<-B) =     0.000000021492 [Eh]
    Exch-Ind20,r (B<-A) =     0.000000041587 [Eh]
    Exch-Ind20,r        =     0.000000063078 [Eh]
    Disp20              =    -0.000346230805 [Eh]
    Disp20 (SS)         =    -0.000173115403 [Eh]
    Disp20 (OS)         =    -0.000173115403 [Eh]
    Exch-Disp20         =     0.000000033460 [Eh]
    Exch-Disp20 (SS)    =     0.000000025943 [Eh]
    Exch-Disp20 (OS)    =     0.000000007517 [Eh]

    SAPT Results 
  --------------------------------------------------------------------------------------------------------
    Electrostatics                  7.83464502 [mEh]       4.91631397 [kcal/mol]      20.56985767 [kJ/mol]
      Elst10,r                      7.83464502 [mEh]       4.91631397 [kcal/mol]      20.56985767 [kJ/mol]

    Exchange                       -0.00013989 [mEh]      -0.00008779 [kcal/mol]      -0.00036729 [kJ/mol]
      Exch10                       -0.00013989 [mEh]      -0.00008779 [kcal/mol]      -0.00036729 [kJ/mol]
      Exch10(S^2)                  -0.00013989 [mEh]      -0.00008779 [kcal/mol]      -0.00036729 [kJ/mol]

    Induction                      -2.68857618 [mEh]      -1.68710703 [kcal/mol]      -7.05885580 [kJ/mol]
      Ind20,r                      -2.70064579 [mEh]      -1.69468082 [kcal/mol]      -7.09054454 [kJ/mol]
      Exch-Ind20,r                  0.00006308 [mEh]       0.00003958 [kcal/mol]       0.00016561 [kJ/mol]
      delta HF,r (2)                0.01200652 [mEh]       0.00753421 [kcal/mol]       0.03152313 [kJ/mol]

    Dispersion                     -0.34619734 [mEh]      -0.21724211 [kcal/mol]      -0.90894100 [kJ/mol]
      Disp20                       -0.34623081 [mEh]      -0.21726311 [kcal/mol]      -0.90902885 [kJ/mol]
      Exch-Disp20                   0.00003346 [mEh]       0.00002100 [kcal/mol]       0.00008785 [kJ/mol]
      Disp20 (SS)                  -0.17311540 [mEh]      -0.10863156 [kcal/mol]      -0.45451443 [kJ/mol]
      Disp20 (OS)                  -0.17311540 [mEh]      -0.10863156 [kcal/mol]      -0.45451443 [kJ/mol]
      Exch-Disp20 (SS)              0.00002594 [mEh]       0.00001628 [kcal/mol]       0.00006811 [kJ/mol]
      Exch-Disp20 (OS)              0.00000752 [mEh]       0.00000472 [kcal/mol]       0.00001974 [kJ/mol]

  Total HF                          5.14592894 [mEh]       3.22911916 [kcal/mol]      13.51063458 [kJ/mol]
  Total SAPT0                       4.79973160 [mEh]       3.01187705 [kcal/mol]      12.60169357 [kJ/mol]

  Special recipe for scaled SAPT0 (see Manual):
    Electrostatics sSAPT0           7.83464502 [mEh]       4.91631397 [kcal/mol]      20.56985767 [kJ/mol]
    Exchange sSAPT0                -0.00013989 [mEh]      -0.00008779 [kcal/mol]      -0.00036729 [kJ/mol]
    Induction sSAPT0               -2.68857618 [mEh]      -1.68710703 [kcal/mol]      -7.05885580 [kJ/mol]
    Dispersion sSAPT0              -0.34619734 [mEh]      -0.21724211 [kcal/mol]      -0.90894100 [kJ/mol]
  Total sSAPT0                      4.79973160 [mEh]       3.01187705 [kcal/mol]      12.60169357 [kJ/mol]
  --------------------------------------------------------------------------------------------------------

*** tstop() called on n2cn0795 at Thu Jan 25 22:27:31 2024
Module time:
	user time   =   71048.54 seconds =    1184.14 minutes
	system time =    3204.65 seconds =      53.41 minutes
	total time  =      59023 seconds =     983.72 minutes
Total time:
	user time   =  116613.29 seconds =    1943.55 minutes
	system time =    5834.95 seconds =      97.25 minutes
	total time  =      85849 seconds =    1430.82 minutes

    Psi4 stopped on: Thursday, 25 January 2024 10:27PM
    Psi4 wall time for execution: 23:50:50.77

*** Psi4 exiting successfully. Buy a developer a beer!
