
    -----------------------------------------------------------------------
          Psi4: An Open-Source Ab Initio Electronic Structure Package
                               Psi4 1.9 release

                         Git: Rev {} zzzzzzz 


    D. G. A. Smith, L. A. Burns, A. C. Simmonett, R. M. Parrish,
    M. C. Schieber, R. Galvelis, P. Kraus, H. Kruse, R. Di Remigio,
    A. Alenaizan, A. M. James, S. Lehtola, J. P. Misiewicz, M. Scheurer,
    R. A. Shaw, J. B. Schriber, Y. Xie, Z. L. Glick, D. A. Sirianni,
    J. S. O'Brien, J. M. Waldrop, A. Kumar, E. G. Hohenstein,
    B. P. Pritchard, B. R. Brooks, H. F. Schaefer III, A. Yu. Sokolov,
    K. Patkowski, A. E. DePrince III, U. Bozkaya, R. A. King,
    F. A. Evangelista, J. M. Turney, T. D. Crawford, C. D. Sherrill,
    J. Chem. Phys. 152(18) 184108 (2020). https://doi.org/10.1063/5.0006002

                            Additional Code Authors
    E. T. Seidl, C. L. Janssen, E. F. Valeev, M. L. Leininger,
    J. F. Gonthier, R. M. Richard, H. R. McAlexander, M. Saitow, X. Wang,
    P. Verma, M. H. Lechner, A. Jiang, S. Behnle, A. G. Heide,
    M. F. Herbst, and D. L. Poole

             Previous Authors, Complete List of Code Contributors,
                       and Citations for Specific Modules
    https://github.com/psi4/psi4/blob/master/codemeta.json
    https://github.com/psi4/psi4/graphs/contributors
    http://psicode.org/psi4manual/master/introduction.html#citing-psifour

    -----------------------------------------------------------------------


    Psi4 started on: Wednesday, 24 January 2024 07:40PM

    Process ID: 274890
    Host:       n2cn0952
    PSIDATADIR: /opt/software/pc2/EB-SW/software/PSI4/1.9-foss-2022a/share/psi4
    Memory:     500.0 MiB
    Threads:    16
    
  ==> Input File <==

--------------------------------------------------------------------------
memory 47 GB # how much memory is available ! Depends on the nodes/cores !

molecule dimer {
# monomer A
-1 1    # Charge and multiplicity
B -0.000046  0.000337 4.799994
F -1.153597  0.000048 5.615641
F  1.153661 -0.000581 5.615641
F -0.000019 -1.153637 3.984360
F -0.000019  1.153978 3.984360
--
# monomer B
0 1     # Charge and multiplicity
C   -3.66844126402057      7.80375217008252      0.00190004133558
C   -4.84759871934653      7.13124183134024     -0.00046653359696
C   -4.89495929917518      5.69633040353158     -0.00103944469517
C   -3.65374067877320      4.98073034095895      0.00662099703436
C   -2.40942512149445      7.11398103667468      0.00209438359570
C   -2.42547734410473      5.68112195090346     -0.00491050527438
C   -1.19474401643570      7.78614419430947      0.00356656413763
C   0.03795902893699      7.09942164575698      0.00139585983271
C   0.03033258741920      5.66948955970466     -0.00408752508301
C   -1.20098450790502      4.96927034791531      0.00488220885047
C   1.27795782581485      7.77285944319479      0.00277170839332
C   2.48535808472416      7.08769688523756      0.00049722048857
C   2.48612868491717      5.65477081024076     -0.00644052849921
C   1.25408291964399      4.95607811366431      0.00518741308898
C   3.75171459140595      7.76391215098033      0.00062407186893
C   4.92356605618520      7.07878077698995     -0.00143240883900
C   4.95560727132542      5.64344746336949     -0.00159282164606
C   3.70680153420475      4.94121020833308      0.00349873852374
H   -3.65852113775815      8.89082741913536      0.00358502958574
H   -1.18921332975660      8.87412108735996      0.00753844057883
H   1.28429423888630      8.86083343548850      0.00693053253426
H   3.75354208679975      8.85103527897216      0.00214659618464
H   5.86995870320703      7.61379483465560     -0.00235777588134
H   -5.78823170750226      7.67630221293400     -0.00202638095293
C   -6.09197395869619      4.99326001364347     -0.00291168518608
C   -6.12866148031747      3.58258016879823     -0.00171050815740
C   -3.66457974004527      3.56418217974434     -0.00463560277484
C   -4.89429820469869      2.86108077590057      0.00453338221034
C   -2.43733499489796      2.84761165708481      0.00719617576166
C   -1.20922785759670      3.54788693497833     -0.00648285103018
C   1.24714157216223      3.53468075142962     -0.00729145743546
C   0.01517603956900      2.83311183930540      0.00439272578912
C   2.46764517244071      2.82128997725533      0.00449278391269
C   3.70254947457969      3.52466015442405     -0.00899517692985
C   6.14498038638375      4.92757236613191     -0.00282626685777
C   6.16658835886151      3.51658447594213     -0.00065971342101
C   4.92460995845939      2.80840792535402      0.00587903281610
H   7.08990550964105      5.46688776622306     -0.00658814770723
H   -7.03104175110130      5.54268795285765     -0.00714490013730
C   -7.33969804112295      2.85841153457957     -0.00333767559888
C   -7.36488195805880      1.47032337158330     -0.00157213747140
C   -4.90350460894690      1.44442681216000     -0.00628840166334
C   -6.13225715261081      0.73993935705394      0.00600164231964
C   -3.67687480051673      0.72669714267312      0.00433931473643
C   -2.44565658606518      1.42964113326212     -0.00597039546461
C   -1.22360068130162      0.71532450163492      0.00545886906656
C   0.00763786931376      1.41738314923765      0.00392452278437
C   1.23121980774686      0.70211669058719     -0.01490206287210
C   2.46082110053113      1.40329203612573      0.00460244601878
C   3.68443025419614      0.68719842821222      0.00377365974158
C   4.91870890153864      1.39173456118907     -0.00862816189375
C   7.36980207796101      2.77948220318441     -0.00242013321349
C   7.38016266612146      1.39121750785509     -0.00087345036788
C   6.13979953912259      0.67411862320065      0.00545489144369
H   -8.27919079934664      3.40711804112415     -0.00763522772059
H   8.31511347147953      3.31811809662368     -0.00663070901292
C   -8.59175593758115      0.72483255304480     -0.00123170985383
C   -8.59902460370342     -0.63263980622873      0.00089141472904
C   -6.13981313911873     -0.67413663715361     -0.00609792660607
C   -7.38018411213749     -1.39126618958160      0.00131813493501
C   -4.91868448025621     -1.39175501803000      0.00624257154343
C   -3.68443829568458     -0.68723731573599     -0.00478966852105
C   -2.46081704024768     -1.40334517882457      0.00575341766833
C   -1.23116201232071     -0.70217386488055     -0.00636696112346
C   -0.00756962538737     -1.41741884941102      0.00108956317991
C   1.22364771588843     -0.71527537726392      0.01109518512883
C   2.44567064933149     -1.42964328900682     -0.00065482763106
C   3.67686670284649     -0.72670743155550     -0.00479541202602
C   6.13224884641929     -0.73997883984993     -0.00632338623858
C   4.90351914550401     -1.44445752054090      0.00751768830159
C   8.59901484869081      0.63260386666793     -0.00101133422380
C   8.59174548810050     -0.72485086719319      0.00072504603735
C   7.36486276438985     -1.47033266560598      0.00049486934466
H   -9.52830597181814      1.27684744919284     -0.00270163681798
H   9.54141097460619      1.17457248844457     -0.00206336648518
C   -7.36983790976868     -2.77954514593389      0.00312634335708
C   -4.92459910905015     -2.80843725734101     -0.00460528907921
C   -6.16662249566744     -3.51665219282533      0.00169655107992
C   -3.70251035970491     -3.52468154912026      0.00571878010666
C   -2.46764698511392     -2.82132596280400     -0.00632585824990
C   -0.01513347410770     -2.83314164539971     -0.00604426974092
C   -1.24712184122656     -3.53473217556300      0.00551968366725
C   1.20924506964357     -3.54791467864352      0.00805871345849
C   2.43733602215464     -2.84764173817541     -0.00608104485234
C   4.89430234377080     -2.86112296828604     -0.00526030478103
C   3.66461525504104     -3.56421984553201      0.00761911515957
C   6.12863901474565     -3.58258405771778      0.00096495711699
C   7.33967266469532     -2.85841330737039      0.00248018319869
H   -9.54144911125902     -1.17456346666430      0.00226083090216
H   9.52826186807155     -1.27691907390448      0.00197485379837
H   -8.31516504384864     -3.31814985321231      0.00729857188773
H   8.27915514249207     -3.40714078989363      0.00681973918158
C   -6.14499418870218     -4.92764727278338      0.00302254913999
C   -3.70678334799751     -4.94126171411716     -0.00679841894792
C   -4.95559005800169     -5.64349397349412      0.00116871569699
C   -2.48612132622665     -5.65478557440947      0.00614125209662
C   -1.25405833548005     -4.95612205000132     -0.00503435388927
C   1.20101257386816     -4.96928038819302     -0.00385322963129
C   -0.03033667441341     -5.66952030313900      0.00398997003238
C   3.65375010132847     -4.98074377541453     -0.00309522988330
C   2.42549269587528     -5.68117463552727      0.00628170066869
C   6.09196561781097     -4.99325796338655      0.00325918379042
C   4.89497644461045     -5.69634842095790      0.00202298796027
H   -7.08989238804069     -5.46699984223871      0.00742531082125
H   7.03105520920009     -5.54265853633254      0.00683896355417
C   -4.92354532219813     -7.07882109967734      0.00061394679214
C   -2.48534208823777     -7.08772807792913     -0.00189594564379
C   -3.75168589177895     -7.76394715763627     -0.00170126671874
C   -0.03794895698805     -7.09946487446944     -0.00168022049625
C   -1.27795610040136     -7.77290438466689     -0.00366491325785
C   2.40944432072629     -7.11402201200282     -0.00081701968533
C   1.19474993715296     -7.78618536556242     -0.00296931056689
C   4.84762105249800     -7.13126211057943      0.00168979497423
C   3.66847160587561     -7.80378799294376     -0.00065863938960
H   -5.86994035041618     -7.61383059804164      0.00215798365757
H   5.78824962538815     -7.67633218931421      0.00281691445618
H   -3.75352693944918     -8.85107156923607     -0.00353718114765
H   -1.28430440589466     -8.86087539249706     -0.00809229711623
H   1.18922157469537     -8.87416062058945     -0.00706194725726
H   3.65854661482387     -8.89086063405326     -0.00231318081200

    units angstrom      # Angstroms are the default
    no_reorient         # Geometry fixed, default
    symmetry c1         # C1 symmetry, default
}

set {
    scf_type DF         # Density fitting, faster than exact integrals
    freeze_core True    # Freeze core electrons
    basis jun-cc-pVDZ   # Jun-cc-pVDZ basis set, recommended for sSAPT0 in https://doi.org/10.1063/1.4867135
}

energy('ssapt0')        # Compute sSAPT0 energy, includes also SAPT0
--------------------------------------------------------------------------

  Memory set to  43.772 GiB by Python driver.

Scratch directory: /tmp/
   => Loading Basis Set <=

    Name: JUN-CC-PVDZ
    Role: ORBITAL
    Keyword: BASIS
    atoms 1                                                   entry B          line   130 file /opt/software/pc2/EB-SW/software/PSI4/1.9-foss-2022a/share/psi4/basis/jun-cc-pvdz.gbs 
    atoms 2-5                                                 entry F          line   266 file /opt/software/pc2/EB-SW/software/PSI4/1.9-foss-2022a/share/psi4/basis/jun-cc-pvdz.gbs 
    atoms 6-23, 30-42, 45-59, 62-78, 81-93, 98-108, 111-119   entry C          line   164 file /opt/software/pc2/EB-SW/software/PSI4/1.9-foss-2022a/share/psi4/basis/jun-cc-pvdz.gbs 
    atoms 24-29, 43-44, 60-61, 79-80, 94-97, 109-110, 120-125 entry H          line    36 file /opt/software/pc2/EB-SW/software/PSI4/1.9-foss-2022a/share/psi4/basis/jun-cc-pvdz.gbs 

   => Loading Basis Set <=

    Name: JUN-CC-PVDZ
    Role: ORBITAL
    Keyword: BASIS
    atoms 1                                                   entry B          line   130 file /opt/software/pc2/EB-SW/software/PSI4/1.9-foss-2022a/share/psi4/basis/jun-cc-pvdz.gbs 
    atoms 2-5                                                 entry F          line   266 file /opt/software/pc2/EB-SW/software/PSI4/1.9-foss-2022a/share/psi4/basis/jun-cc-pvdz.gbs 
    atoms 6-23, 30-42, 45-59, 62-78, 81-93, 98-108, 111-119   entry C          line   164 file /opt/software/pc2/EB-SW/software/PSI4/1.9-foss-2022a/share/psi4/basis/jun-cc-pvdz.gbs 
    atoms 24-29, 43-44, 60-61, 79-80, 94-97, 109-110, 120-125 entry H          line    36 file /opt/software/pc2/EB-SW/software/PSI4/1.9-foss-2022a/share/psi4/basis/jun-cc-pvdz.gbs 


  //>>>>>>>>>>>>>>>>>>>>>>>>>>>>>>>>>>>//
  //              Dimer HF             //
  //<<<<<<<<<<<<<<<<<<<<<<<<<<<<<<<<<<<//

   => Libint2 <=

    Primary   basis highest AM E, G, H:  5, 4, 3
    Auxiliary basis highest AM E, G, H:  6, 5, 4
    Onebody   basis highest AM E, G, H:  6, 5, 4
    Solid Harmonics ordering:            gaussian

*** tstart() called on n2cn0952
*** at Wed Jan 24 19:40:42 2024

   => Loading Basis Set <=

    Name: JUN-CC-PVDZ
    Role: ORBITAL
    Keyword: BASIS
    atoms 1                                                   entry B          line   130 file /opt/software/pc2/EB-SW/software/PSI4/1.9-foss-2022a/share/psi4/basis/jun-cc-pvdz.gbs 
    atoms 2-5                                                 entry F          line   266 file /opt/software/pc2/EB-SW/software/PSI4/1.9-foss-2022a/share/psi4/basis/jun-cc-pvdz.gbs 
    atoms 6-23, 30-42, 45-59, 62-78, 81-93, 98-108, 111-119   entry C          line   164 file /opt/software/pc2/EB-SW/software/PSI4/1.9-foss-2022a/share/psi4/basis/jun-cc-pvdz.gbs 
    atoms 24-29, 43-44, 60-61, 79-80, 94-97, 109-110, 120-125 entry H          line    36 file /opt/software/pc2/EB-SW/software/PSI4/1.9-foss-2022a/share/psi4/basis/jun-cc-pvdz.gbs 


         ---------------------------------------------------------
                                   SCF
               by Justin Turney, Rob Parrish, Andy Simmonett
                          and Daniel G. A. Smith
                              RHF Reference
                       16 Threads,  44822 MiB Core
         ---------------------------------------------------------

  ==> Geometry <==

    Molecular point group: c1
    Full point group: C1

    Geometry (in Angstrom), charge = -1, multiplicity = 1:

       Center              X                  Y                   Z               Mass       
    ------------   -----------------  -----------------  -----------------  -----------------
         B           -0.000050191042     0.000351518223     4.469388400864    11.009305360000
         F           -1.153601191042     0.000062518223     5.285035400864    18.998403162730
         F            1.153656808958    -0.000566481777     5.285035400864    18.998403162730
         F           -0.000023191042    -1.153622481777     3.653754400864    18.998403162730
         F           -0.000023191042     1.153992518223     3.653754400864    18.998403162730
         C           -3.668445455062     7.803766688305    -0.328705557801    12.000000000000
         C           -4.847602910388     7.131256349563    -0.331072132733    12.000000000000
         C           -4.894963490217     5.696344921754    -0.331645043832    12.000000000000
         C           -3.653744869815     4.980744859182    -0.323984602102    12.000000000000
         C           -2.409429312536     7.113995554897    -0.328511215541    12.000000000000
         C           -2.425481535146     5.681136469126    -0.335516104411    12.000000000000
         C           -1.194748207477     7.786158712532    -0.327039034999    12.000000000000
         C            0.037954837895     7.099436163980    -0.329209739304    12.000000000000
         C            0.030328396378     5.669504077927    -0.334693124219    12.000000000000
         C           -1.200988698947     4.969284866138    -0.325723390286    12.000000000000
         C            1.277953634773     7.772873961417    -0.327833890743    12.000000000000
         C            2.485353893683     7.087711403460    -0.330108378648    12.000000000000
         C            2.486124493876     5.654785328463    -0.337046127636    12.000000000000
         C            1.254078728602     4.956092631887    -0.325418186047    12.000000000000
         C            3.751710400364     7.763926669203    -0.329981527267    12.000000000000
         C            4.923561865144     7.078795295213    -0.332038007975    12.000000000000
         C            4.955603080284     5.643461981592    -0.332198420782    12.000000000000
         C            3.706797343163     4.941224726556    -0.327106860613    12.000000000000
         H           -3.658525328800     8.890841937358    -0.327020569551     1.007825032230
         H           -1.189217520798     8.874135605583    -0.323067158558     1.007825032230
         H            1.284290047845     8.860847953711    -0.323675066602     1.007825032230
         H            3.753537895758     8.851049797195    -0.328459002952     1.007825032230
         H            5.869954512165     7.613809352878    -0.332963375018     1.007825032230
         H           -5.788235898544     7.676316731157    -0.332631980089     1.007825032230
         C           -6.091978149738     4.993274531866    -0.333517284323    12.000000000000
         C           -6.128665671359     3.582594687021    -0.332316107294    12.000000000000
         C           -3.664583931087     3.564196697967    -0.335241201911    12.000000000000
         C           -4.894302395740     2.861095294123    -0.326072216926    12.000000000000
         C           -2.437339185940     2.847626175307    -0.323409423375    12.000000000000
         C           -1.209232048638     3.547901453201    -0.337088450167    12.000000000000
         C            1.247137381121     3.534695269652    -0.337897056572    12.000000000000
         C            0.015171848527     2.833126357528    -0.326212873347    12.000000000000
         C            2.467640981399     2.821304495478    -0.326112815224    12.000000000000
         C            3.702545283538     3.524674672647    -0.339600776066    12.000000000000
         C            6.144976195342     4.927586884354    -0.333431865994    12.000000000000
         C            6.166584167820     3.516598994165    -0.331265312557    12.000000000000
         C            4.924605767418     2.808422443577    -0.324726566320    12.000000000000
         H            7.089901318599     5.466902284446    -0.337193746844     1.007825032230
         H           -7.031045942143     5.542702471080    -0.337750499274     1.007825032230
         C           -7.339702232165     2.858426052802    -0.333943274735    12.000000000000
         C           -7.364886149100     1.470337889806    -0.332177736608    12.000000000000
         C           -4.903508799989     1.444441330383    -0.336894000800    12.000000000000
         C           -6.132261343652     0.739953875277    -0.324603956817    12.000000000000
         C           -3.676878991558     0.726711660896    -0.326266284400    12.000000000000
         C           -2.445660777107     1.429655651485    -0.336575994601    12.000000000000
         C           -1.223604872343     0.715339019858    -0.325146730070    12.000000000000
         C            0.007633678272     1.417397667460    -0.326681076352    12.000000000000
         C            1.231215616705     0.702131208810    -0.345507662009    12.000000000000
         C            2.460816909489     1.403306554348    -0.326003153118    12.000000000000
         C            3.684426063155     0.687212946435    -0.326831939395    12.000000000000
         C            4.918704710497     1.391749079412    -0.339233761030    12.000000000000
         C            7.369797886919     2.779496721407    -0.333025732350    12.000000000000
         C            7.380158475080     1.391232026078    -0.331479049504    12.000000000000
         C            6.139795348081     0.674133141423    -0.325150707693    12.000000000000
         H           -8.279194990388     3.407132559347    -0.338240826857     1.007825032230
         H            8.315109280438     3.318132614846    -0.337236308149     1.007825032230
         C           -8.591760128623     0.724847071267    -0.331837308990    12.000000000000
         C           -8.599028794745    -0.632625288006    -0.329714184407    12.000000000000
         C           -6.139817330160    -0.674122118931    -0.336703525742    12.000000000000
         C           -7.380188303179    -1.391251671359    -0.329287464201    12.000000000000
         C           -4.918688671298    -1.391740499807    -0.324363027593    12.000000000000
         C           -3.684442486726    -0.687222797513    -0.335395267657    12.000000000000
         C           -2.460821231289    -1.403330660602    -0.324852181468    12.000000000000
         C           -1.231166203362    -0.702159346658    -0.336972560260    12.000000000000
         C           -0.007573816429    -1.417404331188    -0.329516035957    12.000000000000
         C            1.223643524847    -0.715260859041    -0.319510414008    12.000000000000
         C            2.445666458290    -1.429628770784    -0.331260426767    12.000000000000
         C            3.676862511805    -0.726692913333    -0.335401011162    12.000000000000
         C            6.132244655378    -0.739964321627    -0.336928985375    12.000000000000
         C            4.903514954462    -1.444443002318    -0.323087910835    12.000000000000
         C            8.599010657649     0.632618384891    -0.331616933360    12.000000000000
         C            8.591741297059    -0.724836348971    -0.329880553099    12.000000000000
         C            7.364858573348    -1.470318147383    -0.330110729792    12.000000000000
         H           -9.528310162860     1.276861967415    -0.333307235954     1.007825032230
         H            9.541406783565     1.174587006667    -0.332668965622     1.007825032230
         C           -7.369842100810    -2.779530627711    -0.327479255779    12.000000000000
         C           -4.924603300092    -2.808422739118    -0.335210888216    12.000000000000
         C           -6.166626686709    -3.516637674603    -0.328909048057    12.000000000000
         C           -3.702514550747    -3.524667030898    -0.324886819030    12.000000000000
         C           -2.467651176156    -2.821311444581    -0.336931457386    12.000000000000
         C           -0.015137665149    -2.833127127177    -0.336649868877    12.000000000000
         C           -1.247126032268    -3.534717657340    -0.325085915469    12.000000000000
         C            1.209240878602    -3.547900160421    -0.322546885678    12.000000000000
         C            2.437331831113    -2.847627219953    -0.336686643989    12.000000000000
         C            4.894298152729    -2.861108450063    -0.335865903917    12.000000000000
         C            3.664611063999    -3.564205327309    -0.322986483977    12.000000000000
         C            6.128634823704    -3.582569539495    -0.329640642019    12.000000000000
         C            7.339668473654    -2.858398789148    -0.328125415938    12.000000000000
         H           -9.541453302301    -1.174548948442    -0.328344768234     1.007825032230
         H            9.528257677030    -1.276904555682    -0.328630745338     1.007825032230
         H           -8.315169234890    -3.318135334990    -0.323307027249     1.007825032230
         H            8.279150951450    -3.407126271671    -0.323785859955     1.007825032230
         C           -6.144998379744    -4.927632754561    -0.327583049996    12.000000000000
         C           -3.706787539039    -4.941247195895    -0.337404018084    12.000000000000
         C           -4.955594249043    -5.643479455272    -0.329436883439    12.000000000000
         C           -2.486125517268    -5.654771056187    -0.324464347040    12.000000000000
         C           -1.254062526522    -4.956107531779    -0.335639953026    12.000000000000
         C            1.201008382827    -4.969265869970    -0.334458828768    12.000000000000
         C           -0.030340865455    -5.669505784916    -0.326615629104    12.000000000000
         C            3.653745910287    -4.980729257192    -0.333700829020    12.000000000000
         C            2.425488504834    -5.681160117305    -0.324323898468    12.000000000000
         C            6.091961426769    -4.993243445164    -0.327346415346    12.000000000000
         C            4.894972253569    -5.696333902735    -0.328582611176    12.000000000000
         H           -7.089896579082    -5.466985324016    -0.323180288315     1.007825032230
         H            7.031051018158    -5.542644018110    -0.323766635582     1.007825032230
         C           -4.923549513240    -7.078806581455    -0.329991652344    12.000000000000
         C           -2.485346279279    -7.087713559707    -0.332501544780    12.000000000000
         C           -3.751690082821    -7.763932639414    -0.332306865855    12.000000000000
         C           -0.037953148030    -7.099450356247    -0.332285819633    12.000000000000
         C           -1.277960291443    -7.772889866444    -0.334270512394    12.000000000000
         C            2.409440129685    -7.114007493780    -0.331422618822    12.000000000000
         C            1.194745746111    -7.786170847340    -0.333574909703    12.000000000000
         C            4.847616861456    -7.131247592357    -0.328915804162    12.000000000000
         C            3.668467414834    -7.803773474721    -0.331264238526    12.000000000000
         H           -5.869944541458    -7.613816079819    -0.328447615479     1.007825032230
         H            5.788245434347    -7.676317671092    -0.327788684680     1.007825032230
         H           -3.753531130491    -8.851057051013    -0.334142780284     1.007825032230
         H           -1.284308596936    -8.860860874274    -0.338697896253     1.007825032230
         H            1.189217383654    -8.874146102367    -0.337667546394     1.007825032230
         H            3.658542423782    -8.890846115831    -0.332918779948     1.007825032230

  Running in c1 symmetry.

  Rotational constants: A =      0.00065  B =      0.00065  C =      0.00035 [cm^-1]
  Rotational constants: A =     19.53997  B =     19.53671  C =     10.55117 [MHz]
  Nuclear repulsion = 17514.508452330384898

  Charge       = -1
  Multiplicity = 1
  Electrons    = 642
  Nalpha       = 321
  Nbeta        = 321

  ==> Algorithm <==

  SCF Algorithm Type is DF.
  DIIS enabled.
  MOM disabled.
  Fractional occupation disabled.
  Guess Type is SAD.
  Energy threshold   = 1.00e-08
  Density threshold  = 1.00e-08
  Integral threshold = 1.00e-12

  ==> Primary Basis <==

  Basis Set: JUN-CC-PVDZ
    Blend: JUN-CC-PVDZ
    Number of shells: 880
    Number of basis functions: 1938
    Number of Cartesian functions: 2039
    Spherical Harmonics?: true
    Max angular momentum: 2

   => Loading Basis Set <=

    Name: (JUN-CC-PVDZ AUX)
    Role: JKFIT
    Keyword: DF_BASIS_SCF
    atoms 1                                                   entry B          line    90 file /opt/software/pc2/EB-SW/software/PSI4/1.9-foss-2022a/share/psi4/basis/jun-cc-pvdz-jkfit.gbs 
    atoms 2-5                                                 entry F          line   314 file /opt/software/pc2/EB-SW/software/PSI4/1.9-foss-2022a/share/psi4/basis/jun-cc-pvdz-jkfit.gbs 
    atoms 6-23, 30-42, 45-59, 62-78, 81-93, 98-108, 111-119   entry C          line   146 file /opt/software/pc2/EB-SW/software/PSI4/1.9-foss-2022a/share/psi4/basis/jun-cc-pvdz-jkfit.gbs 
    atoms 24-29, 43-44, 60-61, 79-80, 94-97, 109-110, 120-125 entry H          line    70 file /opt/software/pc2/EB-SW/software/PSI4/1.9-foss-2022a/share/psi4/basis/jun-cc-pvdz-jkfit.gbs 

  ==> Integral Setup <==

  ==> DiskDFJK: Density-Fitted J/K Matrices <==

    J tasked:                  Yes
    K tasked:                  Yes
    wK tasked:                  No
    OpenMP threads:             16
    Integrals threads:          16
    Memory [MiB]:            33617
    Algorithm:                Disk
    Integral Cache:           SAVE
    Schwarz Cutoff:          1E-12
    Fitting Condition:       1E-10

   => Auxiliary Basis Set <=

  Basis Set: (JUN-CC-PVDZ AUX)
    Blend: JUN-CC-PVDZ-JKFIT
    Number of shells: 2943
    Number of basis functions: 8531
    Number of Cartesian functions: 9791
    Spherical Harmonics?: true
    Max angular momentum: 3

  Minimum eigenvalue in the overlap matrix is 8.8643845189E-11.
  Reciprocal condition number of the overlap matrix is 3.8247729005E-12.
    Using canonical orthogonalization.
  Overall, 38 of 1938 possible MOs eliminated.


  ==> Pre-Iterations <==

  SCF Guess: Superposition of Atomic Densities via on-the-fly atomic UHF (no occupation information).

   -------------------------
    Irrep   Nso     Nmo    
   -------------------------
     A       1938    1900 
   -------------------------
    Total    1938    1900
   -------------------------

  ==> Iterations <==

                           Total Energy        Delta E     RMS |[F,P]|

   @DF-RHF iter SAD: -4085.02133015292566   -4.08502e+03   0.00000e+00 
   @DF-RHF iter   1: -4071.51354611523948    1.35078e+01   7.91033e-04 ADIIS/DIIS
   @DF-RHF iter   2: -4072.91620293889082   -1.40266e+00   3.10429e-04 ADIIS/DIIS
   @DF-RHF iter   3: -4073.08287295097034   -1.66670e-01   1.02898e-04 ADIIS/DIIS
   @DF-RHF iter   4: -4073.10510187401997   -2.22289e-02   3.80423e-05 DIIS
   @DF-RHF iter   5: -4073.10857241710755   -3.47054e-03   1.08643e-05 DIIS
   @DF-RHF iter   6: -4073.10901808081962   -4.45664e-04   4.31063e-06 DIIS
   @DF-RHF iter   7: -4073.10919674297793   -1.78662e-04   2.22219e-06 DIIS
   @DF-RHF iter   8: -4073.10925004794308   -5.33050e-05   1.22266e-06 DIIS
   @DF-RHF iter   9: -4073.10926747335407   -1.74254e-05   3.91624e-07 DIIS
   @DF-RHF iter  10: -4073.10926858849871   -1.11514e-06   1.82448e-07 DIIS
   @DF-RHF iter  11: -4073.10926878600321   -1.97505e-07   6.29346e-08 DIIS
   @DF-RHF iter  12: -4073.10926882094191   -3.49387e-08   3.29910e-08 DIIS
   @DF-RHF iter  13: -4073.10926882922195   -8.28004e-09   1.11233e-08 DIIS
   @DF-RHF iter  14: -4073.10926882985859   -6.36646e-10   5.04804e-09 DIIS
  Energy and wave function converged.


  ==> Post-Iterations <==

    Orbital Energies [Eh]
    ---------------------

    Doubly Occupied:                                                      

       1A    -26.076368     2A    -26.076187     3A    -26.072450  
       4A    -26.072417     5A    -11.202098     6A    -11.202095  
       7A    -11.202080     8A    -11.202078     9A    -11.202027  
      10A    -11.202025    11A    -11.202016    12A    -11.202016  
      13A    -11.201982    14A    -11.201979    15A    -11.201968  
      16A    -11.201962    17A    -11.201478    18A    -11.201476  
      19A    -11.201464    20A    -11.201463    21A    -11.201377  
      22A    -11.201361    23A    -11.199078    24A    -11.199062  
      25A    -11.198982    26A    -11.198966    27A    -11.198866  
      28A    -11.198830    29A    -11.198807    30A    -11.198740  
      31A    -11.198719    32A    -11.198672    33A    -11.198553  
      34A    -11.198530    35A    -11.198249    36A    -11.198249  
      37A    -11.198179    38A    -11.198178    39A    -11.198176  
      40A    -11.198172    41A    -11.197942    42A    -11.197929  
      43A    -11.197804    44A    -11.197781    45A    -11.197721  
      46A    -11.197696    47A    -11.197159    48A    -11.197141  
      49A    -11.197054    50A    -11.197006    51A    -11.196968  
      52A    -11.196893    53A    -11.196879    54A    -11.196818  
      55A    -11.196785    56A    -11.196778    57A    -11.196769  
      58A    -11.196748    59A    -11.196715    60A    -11.196715  
      61A    -11.196696    62A    -11.196690    63A    -11.196624  
      64A    -11.196612    65A    -11.196280    66A    -11.196260  
      67A    -11.196050    68A    -11.196024    69A    -11.195975  
      70A    -11.195942    71A    -11.195376    72A    -11.195330  
      73A    -11.195148    74A    -11.195067    75A    -11.194953  
      76A    -11.194907    77A    -11.194224    78A    -11.194207  
      79A    -11.194152    80A    -11.194145    81A    -11.194131  
      82A    -11.194094    83A    -11.194085    84A    -11.194073  
      85A    -11.194060    86A    -11.194051    87A    -11.194018  
      88A    -11.194006    89A    -11.193978    90A    -11.193906  
      91A    -11.193840    92A    -11.193722    93A    -11.193589  
      94A    -11.193565    95A    -11.193011    96A    -11.192697  
      97A    -11.192635    98A    -11.191764    99A    -11.191702  
     100A    -11.191233   101A     -7.546336   102A     -1.418251  
     103A     -1.360334   104A     -1.358415   105A     -1.356554  
     106A     -1.187426   107A     -1.175169   108A     -1.174978  
     109A     -1.158017   110A     -1.158008   111A     -1.150232  
     112A     -1.139839   113A     -1.133723   114A     -1.123892  
     115A     -1.123687   116A     -1.112884   117A     -1.112854  
     118A     -1.092054   119A     -1.092027   120A     -1.088592  
     121A     -1.084179   122A     -1.084171   123A     -1.066275  
     124A     -1.052589   125A     -1.051455   126A     -1.051387  
     127A     -1.048864   128A     -1.048730   129A     -1.026359  
     130A     -1.026318   131A     -1.016621   132A     -1.016599  
     133A     -1.004794   134A     -1.004782   135A     -1.001362  
     136A     -0.985259   137A     -0.985247   138A     -0.978773  
     139A     -0.978379   140A     -0.978360   141A     -0.961958  
     142A     -0.956335   143A     -0.956266   144A     -0.946191  
     145A     -0.944403   146A     -0.941916   147A     -0.937758  
     148A     -0.937705   149A     -0.931212   150A     -0.908559  
     151A     -0.908553   152A     -0.894914   153A     -0.894871  
     154A     -0.845993   155A     -0.845957   156A     -0.841714  
     157A     -0.841675   158A     -0.839504   159A     -0.828153  
     160A     -0.828104   161A     -0.826818   162A     -0.826745  
     163A     -0.826624   164A     -0.811841   165A     -0.810483  
     166A     -0.791120   167A     -0.785046   168A     -0.784972  
     169A     -0.782121   170A     -0.780623   171A     -0.773271  
     172A     -0.773246   173A     -0.768360   174A     -0.768329  
     175A     -0.724968   176A     -0.724962   177A     -0.720464  
     178A     -0.720457   179A     -0.720144   180A     -0.720044  
     181A     -0.719083   182A     -0.705567   183A     -0.697363  
     184A     -0.687852   185A     -0.673750   186A     -0.665664  
     187A     -0.665592   188A     -0.663308   189A     -0.663104  
     190A     -0.663066   191A     -0.654999   192A     -0.651120  
     193A     -0.651090   194A     -0.638942   195A     -0.638902  
     196A     -0.625549   197A     -0.625534   198A     -0.623127  
     199A     -0.621183   200A     -0.621151   201A     -0.617411  
     202A     -0.609517   203A     -0.593131   204A     -0.590019  
     205A     -0.590011   206A     -0.589251   207A     -0.587172  
     208A     -0.587130   209A     -0.579389   210A     -0.578750  
     211A     -0.578647   212A     -0.578575   213A     -0.574139  
     214A     -0.574126   215A     -0.567775   216A     -0.555221  
     217A     -0.555205   218A     -0.550111   219A     -0.548282  
     220A     -0.548278   221A     -0.537376   222A     -0.536580  
     223A     -0.536435   224A     -0.536336   225A     -0.536313  
     226A     -0.535599   227A     -0.535117   228A     -0.534866  
     229A     -0.534840   230A     -0.534767   231A     -0.534555  
     232A     -0.534002   233A     -0.529894   234A     -0.529861  
     235A     -0.529632   236A     -0.523885   237A     -0.518918  
     238A     -0.518905   239A     -0.513241   240A     -0.513224  
     241A     -0.512816   242A     -0.506846   243A     -0.506813  
     244A     -0.504349   245A     -0.504338   246A     -0.503284  
     247A     -0.501961   248A     -0.499018   249A     -0.496718  
     250A     -0.496651   251A     -0.492587   252A     -0.489616  
     253A     -0.489117   254A     -0.482557   255A     -0.473020  
     256A     -0.472997   257A     -0.470033   258A     -0.469794  
     259A     -0.467454   260A     -0.467447   261A     -0.464598  
     262A     -0.455445   263A     -0.455390   264A     -0.454843  
     265A     -0.454812   266A     -0.454685   267A     -0.454480  
     268A     -0.449589   269A     -0.449551   270A     -0.436737  
     271A     -0.434703   272A     -0.434687   273A     -0.429907  
     274A     -0.429853   275A     -0.424528   276A     -0.421362  
     277A     -0.417358   278A     -0.417354   279A     -0.415965  
     280A     -0.415562   281A     -0.415403   282A     -0.413164  
     283A     -0.406659   284A     -0.404659   285A     -0.404643  
     286A     -0.396506   287A     -0.393247   288A     -0.392112  
     289A     -0.391129   290A     -0.382390   291A     -0.382293  
     292A     -0.377502   293A     -0.376465   294A     -0.376140  
     295A     -0.375145   296A     -0.373844   297A     -0.345204  
     298A     -0.345111   299A     -0.326112   300A     -0.326080  
     301A     -0.322954   302A     -0.322931   303A     -0.319401  
     304A     -0.292641   305A     -0.292626   306A     -0.288672  
     307A     -0.273167   308A     -0.273117   309A     -0.271967  
     310A     -0.268294   311A     -0.268126   312A     -0.243544  
     313A     -0.239626   314A     -0.237962   315A     -0.237829  
     316A     -0.224924   317A     -0.197967   318A     -0.189659  
     319A     -0.189571   320A     -0.142611   321A     -0.142527  

    Virtual:                                                              

     322A      0.049747   323A      0.049852   324A      0.091814  
     325A      0.091953   326A      0.091977   327A      0.094342  
     328A      0.094363   329A      0.097511   330A      0.098383  
     331A      0.098516   332A      0.099707   333A      0.102270  
     334A      0.107750   335A      0.107761   336A      0.119059  
     337A      0.119068   338A      0.125539   339A      0.128088  
     340A      0.128142   341A      0.132857   342A      0.132974  
     343A      0.133646   344A      0.133935   345A      0.134702  
     346A      0.135367   347A      0.136067   348A      0.136114  
     349A      0.136245   350A      0.139787   351A      0.139899  
     352A      0.143753   353A      0.145699   354A      0.145934  
     355A      0.145959   356A      0.146719   357A      0.146758  
     358A      0.153008   359A      0.157911   360A      0.157948  
     361A      0.158336   362A      0.160907   363A      0.160975  
     364A      0.161296   365A      0.163942   366A      0.165437  
     367A      0.165591   368A      0.167153   369A      0.167890  
     370A      0.168740   371A      0.169266   372A      0.170132  
     373A      0.170256   374A      0.174005   375A      0.176355  
     376A      0.176390   377A      0.178030   378A      0.178451  
     379A      0.178927   380A      0.183518   381A      0.183577  
     382A      0.187036   383A      0.187365   384A      0.191315  
     385A      0.191610   386A      0.195354   387A      0.195371  
     388A      0.196893   389A      0.198135   390A      0.198270  
     391A      0.200560   392A      0.200675   393A      0.207591  
     394A      0.211198   395A      0.211809   396A      0.212002  
     397A      0.212738   398A      0.213864   399A      0.214866  
     400A      0.215458   401A      0.215711   402A      0.216183  
     403A      0.219589   404A      0.219857   405A      0.220658  
     406A      0.220713   407A      0.221180   408A      0.221718  
     409A      0.222211   410A      0.223540   411A      0.226002  
     412A      0.230615   413A      0.231848   414A      0.234249  
     415A      0.234306   416A      0.235698   417A      0.239132  
     418A      0.239195   419A      0.239772   420A      0.240215  
     421A      0.240351   422A      0.244129   423A      0.247137  
     424A      0.247553   425A      0.249479   426A      0.249812  
     427A      0.253212   428A      0.253430   429A      0.254145  
     430A      0.255494   431A      0.255668   432A      0.255823  
     433A      0.256384   434A      0.256521   435A      0.259819  
     436A      0.260584   437A      0.261490   438A      0.266331  
     439A      0.266461   440A      0.267925   441A      0.268500  
     442A      0.268735   443A      0.268950   444A      0.268986  
     445A      0.269578   446A      0.270758   447A      0.270881  
     448A      0.271705   449A      0.271713   450A      0.272728  
     451A      0.273034   452A      0.274798   453A      0.274814  
     454A      0.280772   455A      0.281554   456A      0.282508  
     457A      0.283292   458A      0.284033   459A      0.286730  
     460A      0.288073   461A      0.288323   462A      0.288383  
     463A      0.288524   464A      0.289507   465A      0.291000  
     466A      0.291053   467A      0.292415   468A      0.293005  
     469A      0.294285   470A      0.301363   471A      0.301744  
     472A      0.302226   473A      0.305107   474A      0.307203  
     475A      0.307411   476A      0.311263   477A      0.312300  
     478A      0.312424   479A      0.312965   480A      0.313804  
     481A      0.314808   482A      0.315608   483A      0.316671  
     484A      0.316832   485A      0.317070   486A      0.320163  
     487A      0.320840   488A      0.322022   489A      0.322134  
     490A      0.323150   491A      0.324170   492A      0.326253  
     493A      0.326338   494A      0.326527   495A      0.331410  
     496A      0.333961   497A      0.334054   498A      0.335612  
     499A      0.335730   500A      0.335852   501A      0.338484  
     502A      0.338679   503A      0.339785   504A      0.342656  
     505A      0.342857   506A      0.343008   507A      0.343384  
     508A      0.345514   509A      0.346906   510A      0.349520  
     511A      0.353913   512A      0.354734   513A      0.354869  
     514A      0.356146   515A      0.357021   516A      0.358254  
     517A      0.361388   518A      0.361561   519A      0.362177  
     520A      0.362464   521A      0.363243   522A      0.364070  
     523A      0.364214   524A      0.365461   525A      0.366162  
     526A      0.367271   527A      0.367338   528A      0.368546  
     529A      0.370793   530A      0.371203   531A      0.371409  
     532A      0.372019   533A      0.372573   534A      0.375429  
     535A      0.376278   536A      0.376370   537A      0.379662  
     538A      0.381378   539A      0.382188   540A      0.382810  
     541A      0.383577   542A      0.384722   543A      0.385076  
     544A      0.385272   545A      0.386256   546A      0.386404  
     547A      0.386621   548A      0.387645   549A      0.389852  
     550A      0.391163   551A      0.392347   552A      0.394275  
     553A      0.394357   554A      0.397029   555A      0.398027  
     556A      0.398106   557A      0.399642   558A      0.401122  
     559A      0.401617   560A      0.402181   561A      0.403767  
     562A      0.404785   563A      0.410389   564A      0.411701  
     565A      0.412998   566A      0.413159   567A      0.415593  
     568A      0.417146   569A      0.418393   570A      0.418744  
     571A      0.419257   572A      0.419558   573A      0.420527  
     574A      0.422107   575A      0.422460   576A      0.424683  
     577A      0.424836   578A      0.425527   579A      0.427634  
     580A      0.428798   581A      0.429825   582A      0.433156  
     583A      0.433779   584A      0.434234   585A      0.435440  
     586A      0.437391   587A      0.437988   588A      0.439177  
     589A      0.439941   590A      0.441127   591A      0.443557  
     592A      0.444972   593A      0.445631   594A      0.446450  
     595A      0.446791   596A      0.448084   597A      0.449667  
     598A      0.450935   599A      0.451257   600A      0.452561  
     601A      0.453553   602A      0.454275   603A      0.455501  
     604A      0.455529   605A      0.456680   606A      0.457815  
     607A      0.458446   608A      0.459158   609A      0.459272  
     610A      0.460865   611A      0.461210   612A      0.462041  
     613A      0.463098   614A      0.463723   615A      0.465783  
     616A      0.465924   617A      0.466392   618A      0.467405  
     619A      0.467775   620A      0.467913   621A      0.469842  
     622A      0.470255   623A      0.470660   624A      0.471016  
     625A      0.471856   626A      0.472530   627A      0.472646  
     628A      0.474922   629A      0.476306   630A      0.476569  
     631A      0.477121   632A      0.478675   633A      0.479118  
     634A      0.480240   635A      0.481178   636A      0.482730  
     637A      0.482915   638A      0.483472   639A      0.484912  
     640A      0.485089   641A      0.487410   642A      0.488093  
     643A      0.489333   644A      0.490692   645A      0.492373  
     646A      0.493317   647A      0.493969   648A      0.494220  
     649A      0.494907   650A      0.495122   651A      0.495903  
     652A      0.496427   653A      0.497514   654A      0.499293  
     655A      0.500115   656A      0.500366   657A      0.500557  
     658A      0.503219   659A      0.503447   660A      0.506107  
     661A      0.506762   662A      0.508215   663A      0.508995  
     664A      0.510053   665A      0.511819   666A      0.512078  
     667A      0.512104   668A      0.513017   669A      0.514440  
     670A      0.515417   671A      0.515625   672A      0.516598  
     673A      0.517629   674A      0.518264   675A      0.519189  
     676A      0.521477   677A      0.521938   678A      0.522622  
     679A      0.525516   680A      0.525774   681A      0.527500  
     682A      0.528542   683A      0.529249   684A      0.529455  
     685A      0.533494   686A      0.534782   687A      0.535966  
     688A      0.536092   689A      0.536427   690A      0.537929  
     691A      0.538519   692A      0.539745   693A      0.541939  
     694A      0.542312   695A      0.543396   696A      0.543970  
     697A      0.544608   698A      0.545195   699A      0.545249  
     700A      0.548087   701A      0.551307   702A      0.552151  
     703A      0.552460   704A      0.552834   705A      0.553383  
     706A      0.553883   707A      0.554710   708A      0.555503  
     709A      0.557008   710A      0.557844   711A      0.558529  
     712A      0.558965   713A      0.559926   714A      0.561503  
     715A      0.561680   716A      0.562052   717A      0.563509  
     718A      0.563809   719A      0.568665   720A      0.569893  
     721A      0.570465   722A      0.571796   723A      0.572071  
     724A      0.575447   725A      0.577601   726A      0.578035  
     727A      0.579084   728A      0.580198   729A      0.580437  
     730A      0.581442   731A      0.581660   732A      0.586539  
     733A      0.586702   734A      0.586996   735A      0.587417  
     736A      0.591958   737A      0.593549   738A      0.594377  
     739A      0.595283   740A      0.596537   741A      0.596933  
     742A      0.598133   743A      0.599545   744A      0.600076  
     745A      0.604949   746A      0.605945   747A      0.608563  
     748A      0.610656   749A      0.611821   750A      0.612958  
     751A      0.619190   752A      0.619718   753A      0.620999  
     754A      0.623575   755A      0.625463   756A      0.625968  
     757A      0.626748   758A      0.626830   759A      0.630401  
     760A      0.631680   761A      0.632766   762A      0.633654  
     763A      0.635938   764A      0.639432   765A      0.640639  
     766A      0.643225   767A      0.644723   768A      0.646446  
     769A      0.648049   770A      0.648174   771A      0.648524  
     772A      0.649638   773A      0.649834   774A      0.651607  
     775A      0.654779   776A      0.657697   777A      0.658474  
     778A      0.659407   779A      0.661857   780A      0.663560  
     781A      0.664660   782A      0.667330   783A      0.668135  
     784A      0.669710   785A      0.670043   786A      0.672720  
     787A      0.673807   788A      0.676587   789A      0.678969  
     790A      0.680364   791A      0.681703   792A      0.683056  
     793A      0.684344   794A      0.686710   795A      0.689811  
     796A      0.690533   797A      0.694956   798A      0.697955  
     799A      0.700062   800A      0.702076   801A      0.707228  
     802A      0.707545   803A      0.707978   804A      0.708515  
     805A      0.711549   806A      0.720253   807A      0.720982  
     808A      0.721799   809A      0.722496   810A      0.723130  
     811A      0.726361   812A      0.727372   813A      0.730987  
     814A      0.734756   815A      0.735024   816A      0.739416  
     817A      0.740541   818A      0.740594   819A      0.741910  
     820A      0.745501   821A      0.751397   822A      0.751640  
     823A      0.751767   824A      0.752550   825A      0.753803  
     826A      0.756886   827A      0.757293   828A      0.758193  
     829A      0.764245   830A      0.768942   831A      0.769369  
     832A      0.770403   833A      0.776054   834A      0.776466  
     835A      0.777620   836A      0.779755   837A      0.784045  
     838A      0.786638   839A      0.789885   840A      0.792692  
     841A      0.794810   842A      0.796928   843A      0.801316  
     844A      0.803512   845A      0.804785   846A      0.808416  
     847A      0.810559   848A      0.813604   849A      0.815011  
     850A      0.815455   851A      0.816318   852A      0.817016  
     853A      0.832985   854A      0.835674   855A      0.845202  
     856A      0.845827   857A      0.848557   858A      0.850214  
     859A      0.850345   860A      0.854156   861A      0.855831  
     862A      0.858454   863A      0.861793   864A      0.862329  
     865A      0.864313   866A      0.865807   867A      0.867114  
     868A      0.870724   869A      0.872646   870A      0.874973  
     871A      0.876093   872A      0.876267   873A      0.878394  
     874A      0.878975   875A      0.879912   876A      0.887877  
     877A      0.888428   878A      0.889874   879A      0.896846  
     880A      0.897182   881A      0.898642   882A      0.901109  
     883A      0.904313   884A      0.905458   885A      0.905612  
     886A      0.906272   887A      0.908571   888A      0.911725  
     889A      0.912293   890A      0.913466   891A      0.918318  
     892A      0.919456   893A      0.922061   894A      0.922339  
     895A      0.923339   896A      0.926826   897A      0.928534  
     898A      0.930188   899A      0.930899   900A      0.931835  
     901A      0.934691   902A      0.935448   903A      0.936912  
     904A      0.936993   905A      0.938673   906A      0.940661  
     907A      0.942297   908A      0.944017   909A      0.945018  
     910A      0.947554   911A      0.949250   912A      0.951554  
     913A      0.952529   914A      0.954059   915A      0.956769  
     916A      0.958003   917A      0.958782   918A      0.959248  
     919A      0.964025   920A      0.965189   921A      0.965710  
     922A      0.968008   923A      0.971055   924A      0.972955  
     925A      0.972982   926A      0.974738   927A      0.975450  
     928A      0.978205   929A      0.980172   930A      0.981365  
     931A      0.981785   932A      0.984122   933A      0.986047  
     934A      0.988994   935A      0.989431   936A      0.991909  
     937A      0.992221   938A      0.993428   939A      0.994342  
     940A      0.995951   941A      0.999369   942A      1.001943  
     943A      1.003492   944A      1.004092   945A      1.004694  
     946A      1.006710   947A      1.008039   948A      1.010145  
     949A      1.010398   950A      1.010503   951A      1.014398  
     952A      1.014488   953A      1.015596   954A      1.016002  
     955A      1.016429   956A      1.018435   957A      1.020551  
     958A      1.020854   959A      1.024581   960A      1.024815  
     961A      1.031130   962A      1.032451   963A      1.034671  
     964A      1.035912   965A      1.042337   966A      1.043193  
     967A      1.046221   968A      1.052868   969A      1.053121  
     970A      1.054369   971A      1.055333   972A      1.058678  
     973A      1.059589   974A      1.060339   975A      1.064480  
     976A      1.064540   977A      1.065331   978A      1.065856  
     979A      1.066181   980A      1.067135   981A      1.074253  
     982A      1.075364   983A      1.077265   984A      1.077800  
     985A      1.079964   986A      1.081328   987A      1.083215  
     988A      1.083467   989A      1.086209   990A      1.088703  
     991A      1.089296   992A      1.092011   993A      1.096918  
     994A      1.097493   995A      1.100453   996A      1.104742  
     997A      1.106791   998A      1.107648   999A      1.108049  
    1000A      1.109059  1001A      1.109837  1002A      1.110308  
    1003A      1.111015  1004A      1.112040  1005A      1.112605  
    1006A      1.115087  1007A      1.115270  1008A      1.118262  
    1009A      1.119357  1010A      1.119702  1011A      1.121470  
    1012A      1.122788  1013A      1.123362  1014A      1.124270  
    1015A      1.127383  1016A      1.128109  1017A      1.130238  
    1018A      1.130891  1019A      1.131667  1020A      1.131981  
    1021A      1.132957  1022A      1.133552  1023A      1.134674  
    1024A      1.136284  1025A      1.137039  1026A      1.137207  
    1027A      1.137366  1028A      1.139042  1029A      1.139628  
    1030A      1.140266  1031A      1.140940  1032A      1.141223  
    1033A      1.142700  1034A      1.142994  1035A      1.143129  
    1036A      1.143691  1037A      1.144355  1038A      1.145474  
    1039A      1.146443  1040A      1.146553  1041A      1.148215  
    1042A      1.148305  1043A      1.150162  1044A      1.150644  
    1045A      1.151475  1046A      1.153766  1047A      1.155377  
    1048A      1.156555  1049A      1.159312  1050A      1.160933  
    1051A      1.162223  1052A      1.163734  1053A      1.164816  
    1054A      1.165668  1055A      1.166263  1056A      1.167260  
    1057A      1.169254  1058A      1.170393  1059A      1.174883  
    1060A      1.176089  1061A      1.178075  1062A      1.179345  
    1063A      1.182917  1064A      1.184455  1065A      1.186267  
    1066A      1.188768  1067A      1.189537  1068A      1.192626  
    1069A      1.192969  1070A      1.193939  1071A      1.194684  
    1072A      1.196118  1073A      1.198722  1074A      1.201248  
    1075A      1.203300  1076A      1.204197  1077A      1.206896  
    1078A      1.207660  1079A      1.208450  1080A      1.209799  
    1081A      1.212544  1082A      1.214063  1083A      1.214178  
    1084A      1.214758  1085A      1.215413  1086A      1.218135  
    1087A      1.219217  1088A      1.220022  1089A      1.221442  
    1090A      1.224438  1091A      1.226216  1092A      1.231661  
    1093A      1.231957  1094A      1.234359  1095A      1.235185  
    1096A      1.235754  1097A      1.242724  1098A      1.244415  
    1099A      1.246391  1100A      1.249357  1101A      1.250012  
    1102A      1.251223  1103A      1.251576  1104A      1.254666  
    1105A      1.256269  1106A      1.256973  1107A      1.259222  
    1108A      1.265230  1109A      1.265978  1110A      1.267127  
    1111A      1.270053  1112A      1.272374  1113A      1.273244  
    1114A      1.273916  1115A      1.274836  1116A      1.275257  
    1117A      1.279437  1118A      1.280238  1119A      1.280854  
    1120A      1.284601  1121A      1.286937  1122A      1.287317  
    1123A      1.287917  1124A      1.296410  1125A      1.297553  
    1126A      1.307491  1127A      1.312819  1128A      1.313305  
    1129A      1.314175  1130A      1.314696  1131A      1.314791  
    1132A      1.320181  1133A      1.322822  1134A      1.322895  
    1135A      1.326476  1136A      1.327845  1137A      1.329188  
    1138A      1.331943  1139A      1.334010  1140A      1.339477  
    1141A      1.342133  1142A      1.342546  1143A      1.348229  
    1144A      1.351736  1145A      1.352664  1146A      1.354306  
    1147A      1.355235  1148A      1.355567  1149A      1.355682  
    1150A      1.358878  1151A      1.362507  1152A      1.363762  
    1153A      1.364932  1154A      1.365818  1155A      1.367031  
    1156A      1.373352  1157A      1.374290  1158A      1.375003  
    1159A      1.376360  1160A      1.377544  1161A      1.378104  
    1162A      1.379615  1163A      1.381703  1164A      1.384383  
    1165A      1.385859  1166A      1.386966  1167A      1.387585  
    1168A      1.390071  1169A      1.390274  1170A      1.394867  
    1171A      1.395418  1172A      1.396498  1173A      1.397594  
    1174A      1.402396  1175A      1.402652  1176A      1.416084  
    1177A      1.417163  1178A      1.417875  1179A      1.418690  
    1180A      1.421426  1181A      1.421866  1182A      1.423446  
    1183A      1.423567  1184A      1.424262  1185A      1.424346  
    1186A      1.432589  1187A      1.434465  1188A      1.435086  
    1189A      1.436620  1190A      1.437438  1191A      1.439643  
    1192A      1.448578  1193A      1.448876  1194A      1.449050  
    1195A      1.452805  1196A      1.453115  1197A      1.457099  
    1198A      1.458091  1199A      1.464562  1200A      1.467285  
    1201A      1.469348  1202A      1.469400  1203A      1.470885  
    1204A      1.471219  1205A      1.471514  1206A      1.472318  
    1207A      1.477560  1208A      1.478881  1209A      1.483801  
    1210A      1.484014  1211A      1.485249  1212A      1.489526  
    1213A      1.490261  1214A      1.490367  1215A      1.491262  
    1216A      1.493455  1217A      1.494011  1218A      1.497701  
    1219A      1.498677  1220A      1.500308  1221A      1.502572  
    1222A      1.503872  1223A      1.504675  1224A      1.505853  
    1225A      1.513597  1226A      1.514015  1227A      1.516258  
    1228A      1.516876  1229A      1.517348  1230A      1.518356  
    1231A      1.522451  1232A      1.529840  1233A      1.533831  
    1234A      1.534171  1235A      1.535045  1236A      1.536132  
    1237A      1.536751  1238A      1.537921  1239A      1.544420  
    1240A      1.546263  1241A      1.546520  1242A      1.546758  
    1243A      1.554840  1244A      1.560036  1245A      1.560453  
    1246A      1.563715  1247A      1.568139  1248A      1.569031  
    1249A      1.570001  1250A      1.579747  1251A      1.580773  
    1252A      1.591885  1253A      1.599355  1254A      1.599540  
    1255A      1.604139  1256A      1.608641  1257A      1.617122  
    1258A      1.617232  1259A      1.647509  1260A      1.648612  
    1261A      1.653473  1262A      1.655999  1263A      1.657669  
    1264A      1.665928  1265A      1.668198  1266A      1.670499  
    1267A      1.671011  1268A      1.671318  1269A      1.673105  
    1270A      1.674406  1271A      1.675457  1272A      1.675740  
    1273A      1.678636  1274A      1.679343  1275A      1.680286  
    1276A      1.680537  1277A      1.682160  1278A      1.683353  
    1279A      1.683833  1280A      1.687422  1281A      1.688708  
    1282A      1.689527  1283A      1.690537  1284A      1.690723  
    1285A      1.692656  1286A      1.695152  1287A      1.697874  
    1288A      1.699133  1289A      1.699892  1290A      1.701175  
    1291A      1.701517  1292A      1.702493  1293A      1.702860  
    1294A      1.703070  1295A      1.704021  1296A      1.704613  
    1297A      1.705616  1298A      1.706350  1299A      1.707460  
    1300A      1.710873  1301A      1.713349  1302A      1.713801  
    1303A      1.717618  1304A      1.717951  1305A      1.719523  
    1306A      1.719743  1307A      1.729129  1308A      1.729351  
    1309A      1.732082  1310A      1.732337  1311A      1.732607  
    1312A      1.733509  1313A      1.734953  1314A      1.736352  
    1315A      1.737303  1316A      1.738283  1317A      1.741742  
    1318A      1.742661  1319A      1.749423  1320A      1.751558  
    1321A      1.755756  1322A      1.756467  1323A      1.759906  
    1324A      1.760291  1325A      1.761343  1326A      1.762897  
    1327A      1.769631  1328A      1.769765  1329A      1.772804  
    1330A      1.776392  1331A      1.776562  1332A      1.777269  
    1333A      1.780642  1334A      1.782459  1335A      1.785610  
    1336A      1.786030  1337A      1.788187  1338A      1.788291  
    1339A      1.791693  1340A      1.799383  1341A      1.809184  
    1342A      1.809413  1343A      1.810615  1344A      1.810868  
    1345A      1.812601  1346A      1.826605  1347A      1.828170  
    1348A      1.828768  1349A      1.841789  1350A      1.843260  
    1351A      1.845531  1352A      1.846001  1353A      1.868034  
    1354A      1.868219  1355A      1.872392  1356A      1.880473  
    1357A      1.884553  1358A      1.886941  1359A      1.887345  
    1360A      1.888152  1361A      1.888386  1362A      1.888664  
    1363A      1.893589  1364A      1.894831  1365A      1.896039  
    1366A      1.900144  1367A      1.901667  1368A      1.901932  
    1369A      1.902410  1370A      1.909748  1371A      1.910852  
    1372A      1.914266  1373A      1.915234  1374A      1.921570  
    1375A      1.922206  1376A      1.926156  1377A      1.926223  
    1378A      1.927883  1379A      1.929719  1380A      1.931191  
    1381A      1.932964  1382A      1.933216  1383A      1.934401  
    1384A      1.934807  1385A      1.940186  1386A      1.940495  
    1387A      1.941092  1388A      1.943715  1389A      1.945517  
    1390A      1.946054  1391A      1.946884  1392A      1.949897  
    1393A      1.952109  1394A      1.954621  1395A      1.963533  
    1396A      1.963787  1397A      1.965326  1398A      1.966718  
    1399A      1.970344  1400A      1.971306  1401A      1.972800  
    1402A      1.980069  1403A      1.980302  1404A      1.984902  
    1405A      1.986082  1406A      1.986258  1407A      1.988340  
    1408A      1.989181  1409A      1.990067  1410A      1.995544  
    1411A      1.995853  1412A      1.998026  1413A      1.998865  
    1414A      2.000073  1415A      2.000931  1416A      2.003421  
    1417A      2.004983  1418A      2.005436  1419A      2.006383  
    1420A      2.008725  1421A      2.010618  1422A      2.016238  
    1423A      2.017465  1424A      2.018617  1425A      2.020611  
    1426A      2.021073  1427A      2.022535  1428A      2.025341  
    1429A      2.026658  1430A      2.028894  1431A      2.030472  
    1432A      2.031735  1433A      2.034014  1434A      2.035857  
    1435A      2.038109  1436A      2.043329  1437A      2.045762  
    1438A      2.047848  1439A      2.048783  1440A      2.049397  
    1441A      2.050838  1442A      2.052158  1443A      2.052291  
    1444A      2.056569  1445A      2.057204  1446A      2.061944  
    1447A      2.064614  1448A      2.068385  1449A      2.069956  
    1450A      2.072811  1451A      2.074253  1452A      2.075585  
    1453A      2.077009  1454A      2.077876  1455A      2.078758  
    1456A      2.081814  1457A      2.083231  1458A      2.084145  
    1459A      2.084458  1460A      2.085482  1461A      2.086293  
    1462A      2.090079  1463A      2.092584  1464A      2.092987  
    1465A      2.094252  1466A      2.095078  1467A      2.098550  
    1468A      2.099205  1469A      2.100247  1470A      2.102032  
    1471A      2.110598  1472A      2.112191  1473A      2.113500  
    1474A      2.117745  1475A      2.118162  1476A      2.119288  
    1477A      2.119687  1478A      2.121889  1479A      2.124821  
    1480A      2.125528  1481A      2.127259  1482A      2.128824  
    1483A      2.130508  1484A      2.132017  1485A      2.132674  
    1486A      2.134849  1487A      2.139385  1488A      2.140490  
    1489A      2.142354  1490A      2.143087  1491A      2.144163  
    1492A      2.144673  1493A      2.144791  1494A      2.147163  
    1495A      2.147688  1496A      2.147812  1497A      2.149245  
    1498A      2.149718  1499A      2.151455  1500A      2.151849  
    1501A      2.152387  1502A      2.154023  1503A      2.154444  
    1504A      2.155973  1505A      2.160191  1506A      2.160848  
    1507A      2.162112  1508A      2.164082  1509A      2.164995  
    1510A      2.165895  1511A      2.168049  1512A      2.168685  
    1513A      2.170430  1514A      2.170669  1515A      2.173556  
    1516A      2.175295  1517A      2.177108  1518A      2.177866  
    1519A      2.178673  1520A      2.179392  1521A      2.180161  
    1522A      2.183200  1523A      2.183369  1524A      2.187958  
    1525A      2.188862  1526A      2.189309  1527A      2.191624  
    1528A      2.192049  1529A      2.192783  1530A      2.194807  
    1531A      2.197020  1532A      2.201605  1533A      2.202165  
    1534A      2.203492  1535A      2.204240  1536A      2.204988  
    1537A      2.206017  1538A      2.206816  1539A      2.207582  
    1540A      2.216385  1541A      2.217605  1542A      2.219752  
    1543A      2.220793  1544A      2.221716  1545A      2.222159  
    1546A      2.222379  1547A      2.222796  1548A      2.223802  
    1549A      2.225032  1550A      2.226557  1551A      2.232834  
    1552A      2.233913  1553A      2.239530  1554A      2.241867  
    1555A      2.243463  1556A      2.243634  1557A      2.252587  
    1558A      2.254846  1559A      2.256759  1560A      2.256950  
    1561A      2.258486  1562A      2.260144  1563A      2.261371  
    1564A      2.261617  1565A      2.262436  1566A      2.263656  
    1567A      2.265587  1568A      2.266986  1569A      2.267678  
    1570A      2.269351  1571A      2.271609  1572A      2.272338  
    1573A      2.277146  1574A      2.279508  1575A      2.281348  
    1576A      2.282702  1577A      2.283104  1578A      2.284363  
    1579A      2.288505  1580A      2.288947  1581A      2.289721  
    1582A      2.290789  1583A      2.292331  1584A      2.293247  
    1585A      2.300368  1586A      2.301949  1587A      2.303614  
    1588A      2.304280  1589A      2.306955  1590A      2.307289  
    1591A      2.307611  1592A      2.318338  1593A      2.320482  
    1594A      2.322306  1595A      2.323278  1596A      2.326664  
    1597A      2.328214  1598A      2.329033  1599A      2.338037  
    1600A      2.340886  1601A      2.344108  1602A      2.346028  
    1603A      2.346915  1604A      2.351327  1605A      2.356228  
    1606A      2.358717  1607A      2.360252  1608A      2.364741  
    1609A      2.365073  1610A      2.370315  1611A      2.386039  
    1612A      2.386494  1613A      2.387159  1614A      2.388695  
    1615A      2.389934  1616A      2.391116  1617A      2.391409  
    1618A      2.395781  1619A      2.396580  1620A      2.397636  
    1621A      2.398989  1622A      2.402211  1623A      2.404186  
    1624A      2.404191  1625A      2.406087  1626A      2.407114  
    1627A      2.407278  1628A      2.408557  1629A      2.414671  
    1630A      2.415013  1631A      2.435156  1632A      2.438987  
    1633A      2.441575  1634A      2.445137  1635A      2.449325  
    1636A      2.455043  1637A      2.458501  1638A      2.459727  
    1639A      2.461595  1640A      2.479780  1641A      2.481489  
    1642A      2.486485  1643A      2.489232  1644A      2.496517  
    1645A      2.503886  1646A      2.505276  1647A      2.515847  
    1648A      2.516070  1649A      2.525446  1650A      2.525728  
    1651A      2.529015  1652A      2.529323  1653A      2.532609  
    1654A      2.532897  1655A      2.550982  1656A      2.551298  
    1657A      2.558215  1658A      2.562025  1659A      2.566641  
    1660A      2.567420  1661A      2.570692  1662A      2.577240  
    1663A      2.600938  1664A      2.601675  1665A      2.602390  
    1666A      2.603322  1667A      2.604071  1668A      2.606979  
    1669A      2.608108  1670A      2.608743  1671A      2.612000  
    1672A      2.612786  1673A      2.620881  1674A      2.621207  
    1675A      2.625942  1676A      2.630375  1677A      2.632217  
    1678A      2.638868  1679A      2.642067  1680A      2.642667  
    1681A      2.645896  1682A      2.646692  1683A      2.646933  
    1684A      2.647034  1685A      2.651034  1686A      2.654119  
    1687A      2.662095  1688A      2.662278  1689A      2.674068  
    1690A      2.674209  1691A      2.674727  1692A      2.674975  
    1693A      2.678620  1694A      2.679221  1695A      2.694458  
    1696A      2.702198  1697A      2.702685  1698A      2.705253  
    1699A      2.707254  1700A      2.708131  1701A      2.711499  
    1702A      2.712465  1703A      2.712514  1704A      2.715843  
    1705A      2.716352  1706A      2.726941  1707A      2.728858  
    1708A      2.729842  1709A      2.729899  1710A      2.730799  
    1711A      2.737181  1712A      2.737468  1713A      2.737854  
    1714A      2.746243  1715A      2.748244  1716A      2.749551  
    1717A      2.752804  1718A      2.753261  1719A      2.753615  
    1720A      2.754948  1721A      2.757855  1722A      2.758989  
    1723A      2.767084  1724A      2.781021  1725A      2.790289  
    1726A      2.790834  1727A      2.791239  1728A      2.792543  
    1729A      2.792666  1730A      2.814563  1731A      2.825812  
    1732A      2.826166  1733A      2.838871  1734A      2.841295  
    1735A      2.843073  1736A      2.843997  1737A      2.863161  
    1738A      2.863326  1739A      2.865394  1740A      2.865619  
    1741A      2.867794  1742A      2.875487  1743A      2.877644  
    1744A      2.878305  1745A      2.878868  1746A      2.879701  
    1747A      2.882794  1748A      2.892971  1749A      2.893503  
    1750A      2.902723  1751A      2.904386  1752A      2.904899  
    1753A      2.905290  1754A      2.907885  1755A      2.928180  
    1756A      2.928612  1757A      2.929385  1758A      2.931924  
    1759A      2.932438  1760A      2.936835  1761A      2.962086  
    1762A      2.962920  1763A      2.976514  1764A      2.976882  
    1765A      2.978797  1766A      2.986224  1767A      2.988821  
    1768A      2.995411  1769A      2.995689  1770A      3.007789  
    1771A      3.024436  1772A      3.025388  1773A      3.027335  
    1774A      3.036765  1775A      3.052699  1776A      3.053140  
    1777A      3.082717  1778A      3.085581  1779A      3.091284  
    1780A      3.093638  1781A      3.097791  1782A      3.098686  
    1783A      3.107650  1784A      3.109600  1785A      3.110955  
    1786A      3.120130  1787A      3.120201  1788A      3.121141  
    1789A      3.134568  1790A      3.167681  1791A      3.172584  
    1792A      3.173171  1793A      3.184314  1794A      3.189484  
    1795A      3.190121  1796A      3.195164  1797A      3.196256  
    1798A      3.202205  1799A      3.202700  1800A      3.209384  
    1801A      3.210007  1802A      3.211372  1803A      3.212371  
    1804A      3.212651  1805A      3.220785  1806A      3.232078  
    1807A      3.232190  1808A      3.234556  1809A      3.235023  
    1810A      3.252385  1811A      3.253218  1812A      3.278785  
    1813A      3.310807  1814A      3.314897  1815A      3.318582  
    1816A      3.322917  1817A      3.324498  1818A      3.325206  
    1819A      3.328721  1820A      3.330212  1821A      3.332216  
    1822A      3.335926  1823A      3.336037  1824A      3.357928  
    1825A      3.359178  1826A      3.363016  1827A      3.366268  
    1828A      3.425624  1829A      3.426161  1830A      3.436179  
    1831A      3.480084  1832A      3.493707  1833A      3.499265  
    1834A      3.507699  1835A      3.517295  1836A      3.517969  
    1837A      3.528324  1838A      3.529232  1839A      3.532628  
    1840A      3.536270  1841A      3.538747  1842A      3.550975  
    1843A      3.552357  1844A      3.564726  1845A      3.573035  
    1846A      3.606995  1847A      3.637779  1848A      3.640460  
    1849A      3.648328  1850A      3.651716  1851A      3.704436  
    1852A      3.708724  1853A      3.728350  1854A      3.730609  
    1855A      3.769130  1856A      3.811660  1857A      3.812727  
    1858A      3.815014  1859A      3.828383  1860A      3.839352  
    1861A      3.848453  1862A      3.903719  1863A      3.905985  
    1864A      3.933186  1865A      3.936752  1866A      3.969890  
    1867A      3.976247  1868A      4.006148  1869A      4.008827  
    1870A      4.010547  1871A      4.011666  1872A      4.022939  
    1873A      4.033372  1874A      4.039272  1875A      4.089351  
    1876A      4.092415  1877A      4.141571  1878A      4.167449  
    1879A      4.167712  1880A      4.168520  1881A      4.196523  
    1882A      4.196735  1883A      4.197442  1884A      4.199954  
    1885A      4.200655  1886A      4.232242  1887A      4.238994  
    1888A      4.252474  1889A      4.304122  1890A      4.375717  
    1891A      4.442442  1892A      4.443356  1893A      4.444261  
    1894A      4.470433  1895A      4.645040  1896A      4.653894  
    1897A      4.654821  1898A      4.745289  1899A      4.780863  
    1900A      4.782277  

    Final Occupation by Irrep:
              A 
    DOCC [   321 ]
    NA   [   321 ]
    NB   [   321 ]

  @DF-RHF Final Energy: -4073.10926882985859

   => Energetics <=

    Nuclear Repulsion Energy =          17514.5084523303848982
    One-Electron Energy =              -40515.3378762353750062
    Two-Electron Energy =               18927.7201550751306058
    Total Energy =                      -4073.1092688298595021

Computation Completed


Properties will be evaluated at   0.000000,   0.000000,   0.000000 [a0]

Properties computed using the SCF density matrix


 Multipole Moments:

 ------------------------------------------------------------------------------------
     Multipole            Electronic (a.u.)      Nuclear  (a.u.)        Total (a.u.)
 ------------------------------------------------------------------------------------

 L = 1.  Multiply by 2.5417464519 to convert [e a0] to [Debye]
 Dipole X            :          0.0005456           -0.0001188            0.0004268
 Dipole Y            :          0.0013159           -0.0002727            0.0010432
 Dipole Z            :         21.4284695          -28.5658676           -7.1373980
 Magnitude           :                                                    7.1373981

 ------------------------------------------------------------------------------------

*** tstop() called on n2cn0952 at Wed Jan 24 23:16:16 2024
Module time:
	user time   =   25774.82 seconds =     429.58 minutes
	system time =    1368.99 seconds =      22.82 minutes
	total time  =      12934 seconds =     215.57 minutes
Total time:
	user time   =   25774.82 seconds =     429.58 minutes
	system time =    1368.99 seconds =      22.82 minutes
	total time  =      12934 seconds =     215.57 minutes

  //>>>>>>>>>>>>>>>>>>>>>>>>>>>>>>>>>>>//
  //            Monomer A HF           //
  //<<<<<<<<<<<<<<<<<<<<<<<<<<<<<<<<<<<//

   => Libint2 <=

    Primary   basis highest AM E, G, H:  5, 4, 3
    Auxiliary basis highest AM E, G, H:  6, 5, 4
    Onebody   basis highest AM E, G, H:  6, 5, 4
    Solid Harmonics ordering:            gaussian

*** tstart() called on n2cn0952
*** at Wed Jan 24 23:16:16 2024

   => Loading Basis Set <=

    Name: JUN-CC-PVDZ
    Role: ORBITAL
    Keyword: BASIS
    atoms 1                                                   entry B          line   130 file /opt/software/pc2/EB-SW/software/PSI4/1.9-foss-2022a/share/psi4/basis/jun-cc-pvdz.gbs 
    atoms 2-5                                                 entry F          line   266 file /opt/software/pc2/EB-SW/software/PSI4/1.9-foss-2022a/share/psi4/basis/jun-cc-pvdz.gbs 
    atoms 6-23, 30-42, 45-59, 62-78, 81-93, 98-108, 111-119   entry C          line   164 file /opt/software/pc2/EB-SW/software/PSI4/1.9-foss-2022a/share/psi4/basis/jun-cc-pvdz.gbs 
    atoms 24-29, 43-44, 60-61, 79-80, 94-97, 109-110, 120-125 entry H          line    36 file /opt/software/pc2/EB-SW/software/PSI4/1.9-foss-2022a/share/psi4/basis/jun-cc-pvdz.gbs 


         ---------------------------------------------------------
                                   SCF
               by Justin Turney, Rob Parrish, Andy Simmonett
                          and Daniel G. A. Smith
                              RHF Reference
                       16 Threads,  44822 MiB Core
         ---------------------------------------------------------

  ==> Geometry <==

    Molecular point group: c1
    Full point group: C1

    Geometry (in Angstrom), charge = -1, multiplicity = 1:

       Center              X                  Y                   Z               Mass       
    ------------   -----------------  -----------------  -----------------  -----------------
         B           -0.000050191042     0.000351518223     4.469388400864    11.009305360000
         F           -1.153601191042     0.000062518223     5.285035400864    18.998403162730
         F            1.153656808958    -0.000566481777     5.285035400864    18.998403162730
         F           -0.000023191042    -1.153622481777     3.653754400864    18.998403162730
         F           -0.000023191042     1.153992518223     3.653754400864    18.998403162730
      Gh(C)          -3.668445455062     7.803766688305    -0.328705557801    12.000000000000
      Gh(C)          -4.847602910388     7.131256349563    -0.331072132733    12.000000000000
      Gh(C)          -4.894963490217     5.696344921754    -0.331645043832    12.000000000000
      Gh(C)          -3.653744869815     4.980744859182    -0.323984602102    12.000000000000
      Gh(C)          -2.409429312536     7.113995554897    -0.328511215541    12.000000000000
      Gh(C)          -2.425481535146     5.681136469126    -0.335516104411    12.000000000000
      Gh(C)          -1.194748207477     7.786158712532    -0.327039034999    12.000000000000
      Gh(C)           0.037954837895     7.099436163980    -0.329209739304    12.000000000000
      Gh(C)           0.030328396378     5.669504077927    -0.334693124219    12.000000000000
      Gh(C)          -1.200988698947     4.969284866138    -0.325723390286    12.000000000000
      Gh(C)           1.277953634773     7.772873961417    -0.327833890743    12.000000000000
      Gh(C)           2.485353893683     7.087711403460    -0.330108378648    12.000000000000
      Gh(C)           2.486124493876     5.654785328463    -0.337046127636    12.000000000000
      Gh(C)           1.254078728602     4.956092631887    -0.325418186047    12.000000000000
      Gh(C)           3.751710400364     7.763926669203    -0.329981527267    12.000000000000
      Gh(C)           4.923561865144     7.078795295213    -0.332038007975    12.000000000000
      Gh(C)           4.955603080284     5.643461981592    -0.332198420782    12.000000000000
      Gh(C)           3.706797343163     4.941224726556    -0.327106860613    12.000000000000
      Gh(H)          -3.658525328800     8.890841937358    -0.327020569551     1.007825032230
      Gh(H)          -1.189217520798     8.874135605583    -0.323067158558     1.007825032230
      Gh(H)           1.284290047845     8.860847953711    -0.323675066602     1.007825032230
      Gh(H)           3.753537895758     8.851049797195    -0.328459002952     1.007825032230
      Gh(H)           5.869954512165     7.613809352878    -0.332963375018     1.007825032230
      Gh(H)          -5.788235898544     7.676316731157    -0.332631980089     1.007825032230
      Gh(C)          -6.091978149738     4.993274531866    -0.333517284323    12.000000000000
[...]
    1501A      2.115529  1502A      2.116581  1503A      2.117563  
    1504A      2.119468  1505A      2.120273  1506A      2.127287  
    1507A      2.127541  1508A      2.127973  1509A      2.128495  
    1510A      2.128870  1511A      2.129411  1512A      2.132504  
    1513A      2.133328  1514A      2.137395  1515A      2.138635  
    1516A      2.139078  1517A      2.143083  1518A      2.143369  
    1519A      2.143793  1520A      2.144606  1521A      2.145566  
    1522A      2.150233  1523A      2.155361  1524A      2.156807  
    1525A      2.157871  1526A      2.159632  1527A      2.160067  
    1528A      2.160447  1529A      2.160840  1530A      2.162136  
    1531A      2.163441  1532A      2.163901  1533A      2.171749  
    1534A      2.172255  1535A      2.180933  1536A      2.181118  
    1537A      2.182579  1538A      2.182722  1539A      2.189799  
    1540A      2.191711  1541A      2.191876  1542A      2.193087  
    1543A      2.195587  1544A      2.195737  1545A      2.197980  
    1546A      2.199746  1547A      2.200768  1548A      2.201334  
    1549A      2.202096  1550A      2.202835  1551A      2.205685  
    1552A      2.207597  1553A      2.209210  1554A      2.211526  
    1555A      2.214629  1556A      2.216339  1557A      2.220232  
    1558A      2.222453  1559A      2.222830  1560A      2.225112  
    1561A      2.225516  1562A      2.225898  1563A      2.229120  
    1564A      2.232055  1565A      2.232541  1566A      2.233975  
    1567A      2.238954  1568A      2.239114  1569A      2.239779  
    1570A      2.242105  1571A      2.247840  1572A      2.248375  
    1573A      2.252383  1574A      2.254366  1575A      2.262420  
    1576A      2.263418  1577A      2.265863  1578A      2.267487  
    1579A      2.268076  1580A      2.270377  1581A      2.277493  
    1582A      2.283119  1583A      2.284490  1584A      2.291299  
    1585A      2.291910  1586A      2.296668  1587A      2.296927  
    1588A      2.304293  1589A      2.304494  1590A      2.309244  
    1591A      2.320924  1592A      2.325096  1593A      2.325189  
    1594A      2.325787  1595A      2.327466  1596A      2.330028  
    1597A      2.330647  1598A      2.331774  1599A      2.333291  
    1600A      2.335005  1601A      2.335317  1602A      2.340361  
    1603A      2.341848  1604A      2.342372  1605A      2.342439  
    1606A      2.345043  1607A      2.345907  1608A      2.346387  
    1609A      2.349174  1610A      2.349540  1611A      2.369000  
    1612A      2.373046  1613A      2.374111  1614A      2.384261  
    1615A      2.388073  1616A      2.391922  1617A      2.394453  
    1618A      2.395521  1619A      2.397641  1620A      2.418537  
    1621A      2.419876  1622A      2.424023  1623A      2.427877  
    1624A      2.432381  1625A      2.442367  1626A      2.443784  
    1627A      2.452782  1628A      2.453181  1629A      2.464558  
    1630A      2.464720  1631A      2.468108  1632A      2.468294  
    1633A      2.471987  1634A      2.472239  1635A      2.491208  
    1636A      2.491509  1637A      2.495518  1638A      2.502048  
    1639A      2.506804  1640A      2.507932  1641A      2.511658  
    1642A      2.516389  1643A      2.539667  1644A      2.539776  
    1645A      2.540206  1646A      2.542183  1647A      2.543201  
    1648A      2.545268  1649A      2.547732  1650A      2.549078  
    1651A      2.549443  1652A      2.551589  1653A      2.556649  
    1654A      2.556828  1655A      2.564306  1656A      2.571458  
    1657A      2.571574  1658A      2.580189  1659A      2.584123  
    1660A      2.584710  1661A      2.585229  1662A      2.586341  
    1663A      2.588756  1664A      2.588946  1665A      2.593254  
    1666A      2.593631  1667A      2.601632  1668A      2.601769  
    1669A      2.613313  1670A      2.613643  1671A      2.613969  
    1672A      2.614434  1673A      2.617490  1674A      2.618197  
    1675A      2.632718  1676A      2.640813  1677A      2.641655  
    1678A      2.643969  1679A      2.645647  1680A      2.648019  
    1681A      2.649219  1682A      2.649622  1683A      2.653596  
    1684A      2.656034  1685A      2.656238  1686A      2.666151  
    1687A      2.666288  1688A      2.667754  1689A      2.670631  
    1690A      2.670767  1691A      2.673869  1692A      2.677743  
    1693A      2.678373  1694A      2.684730  1695A      2.685955  
    1696A      2.687626  1697A      2.691322  1698A      2.691511  
    1699A      2.691953  1700A      2.693457  1701A      2.696162  
    1702A      2.697432  1703A      2.704317  1704A      2.720886  
    1705A      2.730802  1706A      2.731063  1707A      2.731387  
    1708A      2.731616  1709A      2.732066  1710A      2.753336  
    1711A      2.760720  1712A      2.761077  1713A      2.773403  
    1714A      2.776355  1715A      2.780466  1716A      2.780631  
    1717A      2.799499  1718A      2.799997  1719A      2.802192  
    1720A      2.802313  1721A      2.802554  1722A      2.809476  
    1723A      2.812748  1724A      2.815035  1725A      2.816088  
    1726A      2.816407  1727A      2.816987  1728A      2.827268  
    1729A      2.828638  1730A      2.834055  1731A      2.840214  
    1732A      2.840505  1733A      2.842282  1734A      2.843496  
    1735A      2.845324  1736A      2.850827  1737A      2.865197  
    1738A      2.865617  1739A      2.868854  1740A      2.870236  
    1741A      2.871240  1742A      2.875397  1743A      2.882243  
    1744A      2.896047  1745A      2.896943  1746A      2.917781  
    1747A      2.917889  1748A      2.918121  1749A      2.927555  
    1750A      2.929861  1751A      2.935472  1752A      2.935682  
    1753A      2.963952  1754A      2.965501  1755A      2.965819  
    1756A      2.976361  1757A      2.992161  1758A      2.992993  
    1759A      3.029804  1760A      3.030636  1761A      3.036097  
    1762A      3.038769  1763A      3.047076  1764A      3.048067  
    1765A      3.048253  1766A      3.057697  1767A      3.057715  
    1768A      3.063754  1769A      3.073029  1770A      3.108589  
    1771A      3.113270  1772A      3.113378  1773A      3.122926  
    1774A      3.127829  1775A      3.128092  1776A      3.133300  
    1777A      3.134603  1778A      3.142528  1779A      3.143180  
    1780A      3.148702  1781A      3.149334  1782A      3.150215  
    1783A      3.150416  1784A      3.153712  1785A      3.162151  
    1786A      3.167989  1787A      3.173248  1788A      3.175317  
    1789A      3.175638  1790A      3.193243  1791A      3.193989  
    1792A      3.220192  1793A      3.253396  1794A      3.259968  
    1795A      3.261884  1796A      3.262041  1797A      3.263048  
    1798A      3.264956  1799A      3.269041  1800A      3.271538  
    1801A      3.275279  1802A      3.275595  1803A      3.295765  
    1804A      3.296821  1805A      3.299228  1806A      3.304642  
    1807A      3.361890  1808A      3.362695  1809A      3.371428  
    1810A      3.416110  1811A      3.430362  1812A      3.433981  
    1813A      3.437554  1814A      3.450591  1815A      3.451662  
    1816A      3.463152  1817A      3.465292  1818A      3.466935  
    1819A      3.472118  1820A      3.474509  1821A      3.485280  
    1822A      3.486722  1823A      3.498582  1824A      3.509311  
    1825A      3.541355  1826A      3.574400  1827A      3.576633  
    1828A      3.584361  1829A      3.590308  1830A      3.639861  
    1831A      3.643005  1832A      3.665830  1833A      3.667900  
    1834A      3.705616  1835A      3.748373  1836A      3.750923  
    1837A      3.751088  1838A      3.763191  1839A      3.778645  
    1840A      3.781688  1841A      3.842525  1842A      3.843888  
    1843A      3.871586  1844A      3.874974  1845A      3.907502  
    1846A      3.913867  1847A      3.939814  1848A      3.942007  
    1849A      3.948605  1850A      3.949517  1851A      3.959242  
    1852A      3.967258  1853A      3.972885  1854A      4.024756  
    1855A      4.027559  1856A      4.074697  1857A      4.229602  
    1858A      4.235932  1859A      4.304335  1860A      4.309215  
    1861A      4.324282  1862A      4.388425  1863A      4.400286  
    1864A      5.751944  1865A      5.752900  1866A      5.758879  
    1867A      5.759041  1868A      5.762246  1869A      5.762778  
    1870A      5.765457  1871A      5.766141  1872A      5.789579  
    1873A      5.794259  1874A      5.804530  1875A      6.023241  
    1876A      6.024630  1877A      6.025342  1878A      6.200485  
    1879A      6.330224  1880A      6.330465  1881A      6.381810  
    1882A      6.384108  1883A      6.384387  1884A      7.186362  
    1885A      7.254230  1886A      7.272269  1887A      7.280644  
    1888A      7.308890  1889A      7.318243  1890A      7.328133  
    1891A      7.335028  1892A      7.491026  1893A      7.541125  
    1894A      7.602493  1895A      7.702435  1896A     12.645194  
    1897A     42.919160  1898A     42.933633  1899A     42.940095  
    1900A     42.951816  

    Final Occupation by Irrep:
              A 
    DOCC [   300 ]
    NA   [   300 ]
    NB   [   300 ]

  @DF-RHF Final Energy: -3650.33911673039029

   => Energetics <=

    Nuclear Repulsion Energy =          15611.4211649754324753
    One-Electron Energy =              -36072.1220692683491507
    Two-Electron Energy =               16810.3617875625277520
    Total Energy =                      -3650.3391167303889233

Computation Completed


Properties will be evaluated at   0.000000,   0.000000,   0.000000 [a0]

Properties computed using the SCF density matrix


 Multipole Moments:

 ------------------------------------------------------------------------------------
     Multipole            Electronic (a.u.)      Nuclear  (a.u.)        Total (a.u.)
 ------------------------------------------------------------------------------------

 L = 1.  Multiply by 2.5417464519 to convert [e a0] to [Debye]
 Dipole X            :         -0.0006305            0.0001983           -0.0004321
 Dipole Y            :          0.0011297           -0.0013163           -0.0001866
 Dipole Z            :        374.8440418         -374.8490308           -0.0049890
 Magnitude           :                                                    0.0050112

 ------------------------------------------------------------------------------------

*** tstop() called on n2cn0952 at Thu Jan 25 01:41:26 2024
Module time:
	user time   =   17298.32 seconds =     288.31 minutes
	system time =     965.84 seconds =      16.10 minutes
	total time  =       6101 seconds =     101.68 minutes
Total time:
	user time   =   47273.96 seconds =     787.90 minutes
	system time =    2604.40 seconds =      43.41 minutes
	total time  =      21644 seconds =     360.73 minutes
  Constructing Basis Sets for SAPT...

   => Loading Basis Set <=

    Name: (JUN-CC-PVDZ AUX)
    Role: RIFIT
    Keyword: DF_BASIS_SAPT
    atoms 1                                                   entry B          line    56 file /opt/software/pc2/EB-SW/software/PSI4/1.9-foss-2022a/share/psi4/basis/jun-cc-pvdz-ri.gbs 
    atoms 2-5                                                 entry F          line   232 file /opt/software/pc2/EB-SW/software/PSI4/1.9-foss-2022a/share/psi4/basis/jun-cc-pvdz-ri.gbs 
    atoms 6-23, 30-42, 45-59, 62-78, 81-93, 98-108, 111-119   entry C          line   100 file /opt/software/pc2/EB-SW/software/PSI4/1.9-foss-2022a/share/psi4/basis/jun-cc-pvdz-ri.gbs 
    atoms 24-29, 43-44, 60-61, 79-80, 94-97, 109-110, 120-125 entry H          line    30 file /opt/software/pc2/EB-SW/software/PSI4/1.9-foss-2022a/share/psi4/basis/jun-cc-pvdz-ri.gbs 

   => Loading Basis Set <=

    Name: (JUN-CC-PVDZ AUX)
    Role: JKFIT
    Keyword: DF_BASIS_ELST
    atoms 1                                                   entry B          line    90 file /opt/software/pc2/EB-SW/software/PSI4/1.9-foss-2022a/share/psi4/basis/jun-cc-pvdz-jkfit.gbs 
    atoms 2-5                                                 entry F          line   314 file /opt/software/pc2/EB-SW/software/PSI4/1.9-foss-2022a/share/psi4/basis/jun-cc-pvdz-jkfit.gbs 
    atoms 6-23, 30-42, 45-59, 62-78, 81-93, 98-108, 111-119   entry C          line   146 file /opt/software/pc2/EB-SW/software/PSI4/1.9-foss-2022a/share/psi4/basis/jun-cc-pvdz-jkfit.gbs 
    atoms 24-29, 43-44, 60-61, 79-80, 94-97, 109-110, 120-125 entry H          line    70 file /opt/software/pc2/EB-SW/software/PSI4/1.9-foss-2022a/share/psi4/basis/jun-cc-pvdz-jkfit.gbs 


  //>>>>>>>>>>>>>>>>>>>>>>>>>>>>>>>>>>>//
  //               SSAPT0              //
  //<<<<<<<<<<<<<<<<<<<<<<<<<<<<<<<<<<<//


*** tstart() called on n2cn0952
*** at Thu Jan 25 01:41:27 2024

        SAPT0  
    Ed Hohenstein
     6 June 2009

      Orbital Information
  --------------------------
    NSO        =      1938
    NMO        =      1900
    NRI        =      6901
    NRI (Elst) =      8531
    NOCC A     =        21
    NOCC B     =       300
    FOCC A     =         5
    FOCC B     =        96
    NVIR A     =      1879
    NVIR B     =      1600

    Elst10,r            =     0.011294158194 [Eh]
    Exch10              =     0.000269058159 [Eh]
    Exch10 (S^2)        =     0.000269063392 [Eh]

    Iter     Energy [mEh]          dE [mEh]         Residual      Time [s]
       1      -0.02574887       0.025748873       0.684550364          1326
       2      -0.02991952       0.004170645       0.291262780          1941
       3      -0.03046697       0.000547451       0.050836687          2499
       4      -0.03039224      -0.000074733       0.013214940          3100
       5      -0.03038605      -0.000006185       0.002456431          3679
       6      -0.03038855       0.000002502       0.000874606          4136
       7      -0.03038908       0.000000524       0.000186821          4593
       8      -0.03038882      -0.000000261       0.000036533          5120
       9      -0.03038883       0.000000012       0.000007511          5714
      10      -0.03038883       0.000000006       0.000001088          6208
      11      -0.03038883      -0.000000000       0.000000235          6641

    CHF Iterations converged


    Iter     Energy [mEh]          dE [mEh]         Residual      Time [s]
       1     -14.75873575      14.758735752      66.758107531           463
       2      -9.40536279      -5.353372961       8.081986759          1085
       3      -9.34951325      -0.055849544       2.666866344          1461
       4      -9.51672950       0.167216255       0.891384799          1859
       5      -9.54232731       0.025597805       0.303451834          2301
       6      -9.53894997      -0.003377339       0.203257003          2740
       7      -9.53415770      -0.004792268       0.080430136          3128
       8      -9.53446752       0.000309819       0.036109283          3481
       9      -9.53535313       0.000885613       0.018475546          4259
      10      -9.53528417      -0.000068959       0.018891522          4675
      11      -9.53505497      -0.000229204       0.009068667          4979
      12      -9.53505846       0.000003491       0.004419631          5286
      13      -9.53510216       0.000043703       0.001733216          5580
      14      -9.53511509       0.000012925       0.000787172          5907
      15      -9.53511127      -0.000003816       0.000521833          6213
      16      -9.53510341      -0.000007866       0.000278215          6544
      17      -9.53510683       0.000003426       0.000120863          6880
      18      -9.53510794       0.000001108       0.000037261          7191
      19      -9.53510769      -0.000000250       0.000019005          7496
      20      -9.53510745      -0.000000236       0.000007597          7842
      21      -9.53510749       0.000000032       0.000003631          8268
      22      -9.53510752       0.000000035       0.000001718          8657
      23      -9.53510752      -0.000000003       0.000000710          9084

    CHF Iterations converged

    Ind20,r (A<-B)      =    -0.000030388834 [Eh]
    Ind20,r (B<-A)      =    -0.009535107518 [Eh]
    Ind20,r             =    -0.009565496352 [Eh]
    Exch-Ind20,r (A<-B) =     0.000022248705 [Eh]
    Exch-Ind20,r (B<-A) =     0.000031101739 [Eh]
    Exch-Ind20,r        =     0.000053350444 [Eh]
    Disp20              =    -0.003091325365 [Eh]
    Disp20 (SS)         =    -0.001545662683 [Eh]
    Disp20 (OS)         =    -0.001545662683 [Eh]
    Exch-Disp20         =     0.000067328213 [Eh]
    Exch-Disp20 (SS)    =     0.000045176256 [Eh]
    Exch-Disp20 (OS)    =     0.000022151958 [Eh]

    SAPT Results 
  --------------------------------------------------------------------------------------------------------
    Electrostatics                 11.29415819 [mEh]       7.08719126 [kcal/mol]      29.65280825 [kJ/mol]
      Elst10,r                     11.29415819 [mEh]       7.08719126 [kcal/mol]      29.65280825 [kJ/mol]

    Exchange                        0.26905816 [mEh]       0.16883654 [kcal/mol]       0.70641210 [kJ/mol]
      Exch10                        0.26905816 [mEh]       0.16883654 [kcal/mol]       0.70641210 [kJ/mol]
      Exch10(S^2)                   0.26906339 [mEh]       0.16883983 [kcal/mol]       0.70642584 [kJ/mol]

    Induction                      -9.46914142 [mEh]      -5.94197595 [kcal/mol]     -24.86122736 [kJ/mol]
      Ind20,r                      -9.56549635 [mEh]      -6.00243958 [kcal/mol]     -25.11420721 [kJ/mol]
      Exch-Ind20,r                  0.05335044 [mEh]       0.03347791 [kcal/mol]       0.14007157 [kJ/mol]
      delta HF,r (2)                0.04300449 [mEh]       0.02698573 [kcal/mol]       0.11290827 [kJ/mol]

    Dispersion                     -3.02399715 [mEh]      -1.89758686 [kcal/mol]      -7.93950343 [kJ/mol]
      Disp20                       -3.09132537 [mEh]      -1.93983595 [kcal/mol]      -8.11627363 [kJ/mol]
      Exch-Disp20                   0.06732821 [mEh]       0.04224909 [kcal/mol]       0.17677020 [kJ/mol]
      Disp20 (SS)                  -1.54566268 [mEh]      -0.96991798 [kcal/mol]      -4.05813681 [kJ/mol]
      Disp20 (OS)                  -1.54566268 [mEh]      -0.96991798 [kcal/mol]      -4.05813681 [kJ/mol]
      Exch-Disp20 (SS)              0.04517626 [mEh]       0.02834853 [kcal/mol]       0.11861024 [kJ/mol]
      Exch-Disp20 (OS)              0.02215196 [mEh]       0.01390056 [kcal/mol]       0.05815996 [kJ/mol]

  Total HF                          2.09407494 [mEh]       1.31405186 [kcal/mol]       5.49799299 [kJ/mol]
  Total SAPT0                      -0.92992222 [mEh]      -0.58353500 [kcal/mol]      -2.44151044 [kJ/mol]

  Special recipe for scaled SAPT0 (see Manual):
    Electrostatics sSAPT0          11.29415819 [mEh]       7.08719126 [kcal/mol]      29.65280825 [kJ/mol]
    Exchange sSAPT0                 0.26905816 [mEh]       0.16883654 [kcal/mol]       0.70641210 [kJ/mol]
    Induction sSAPT0               -9.46914453 [mEh]      -5.94197790 [kcal/mol]     -24.86123554 [kJ/mol]
    Dispersion sSAPT0              -3.02400108 [mEh]      -1.89758933 [kcal/mol]      -7.93951374 [kJ/mol]
  Total sSAPT0                     -0.92992926 [mEh]      -0.58353942 [kcal/mol]      -2.44152893 [kJ/mol]
  --------------------------------------------------------------------------------------------------------

*** tstop() called on n2cn0952 at Thu Jan 25 16:01:15 2024
Module time:
	user time   =   74638.95 seconds =    1243.98 minutes
	system time =    3290.29 seconds =      54.84 minutes
	total time  =      51588 seconds =     859.80 minutes
Total time:
	user time   =  121914.28 seconds =    2031.90 minutes
	system time =    5894.70 seconds =      98.24 minutes
	total time  =      73233 seconds =    1220.55 minutes

    Psi4 stopped on: Thursday, 25 January 2024 04:01PM
    Psi4 wall time for execution: 20:20:35.06

*** Psi4 exiting successfully. Buy a developer a beer!
