
    -----------------------------------------------------------------------
          Psi4: An Open-Source Ab Initio Electronic Structure Package
                               Psi4 1.9 release

                         Git: Rev {} zzzzzzz 


    D. G. A. Smith, L. A. Burns, A. C. Simmonett, R. M. Parrish,
    M. C. Schieber, R. Galvelis, P. Kraus, H. Kruse, R. Di Remigio,
    A. Alenaizan, A. M. James, S. Lehtola, J. P. Misiewicz, M. Scheurer,
    R. A. Shaw, J. B. Schriber, Y. Xie, Z. L. Glick, D. A. Sirianni,
    J. S. O'Brien, J. M. Waldrop, A. Kumar, E. G. Hohenstein,
    B. P. Pritchard, B. R. Brooks, H. F. Schaefer III, A. Yu. Sokolov,
    K. Patkowski, A. E. DePrince III, U. Bozkaya, R. A. King,
    F. A. Evangelista, J. M. Turney, T. D. Crawford, C. D. Sherrill,
    J. Chem. Phys. 152(18) 184108 (2020). https://doi.org/10.1063/5.0006002

                            Additional Code Authors
    E. T. Seidl, C. L. Janssen, E. F. Valeev, M. L. Leininger,
    J. F. Gonthier, R. M. Richard, H. R. McAlexander, M. Saitow, X. Wang,
    P. Verma, M. H. Lechner, A. Jiang, S. Behnle, A. G. Heide,
    M. F. Herbst, and D. L. Poole

             Previous Authors, Complete List of Code Contributors,
                       and Citations for Specific Modules
    https://github.com/psi4/psi4/blob/master/codemeta.json
    https://github.com/psi4/psi4/graphs/contributors
    http://psicode.org/psi4manual/master/introduction.html#citing-psifour

    -----------------------------------------------------------------------


    Psi4 started on: Saturday, 27 January 2024 12:16AM

    Process ID: 3710983
    Host:       n2cn0593
    PSIDATADIR: /opt/software/pc2/EB-SW/software/PSI4/1.9-foss-2022a/share/psi4
    Memory:     500.0 MiB
    Threads:    16
    
  ==> Input File <==

--------------------------------------------------------------------------
memory 64 GB # how much memory is available ! Depends on the nodes/cores !

molecule dimer {
# monomer A
+1 1    # Charge and multiplicity
C  0.680067 1.417258 -10.215929
C -0.680504 1.419286 -10.215545
N -1.085635 1.420284  -8.897221
C  0.000108 1.423560  -8.115820
C -2.477365 1.469690  -8.429242
N  1.085222 1.420284  -8.897221
H  1.385146 1.409430 -11.033368
H -1.385302 1.419096 -11.033214
H -0.000009 1.425307  -7.034731
C  2.478117 1.403392  -8.432123
H  2.490592 1.430737  -7.341870
H  2.967028 0.489946  -8.779299
H  3.001428 2.278875  -8.823595
H -2.857359 2.491761  -8.509201
H -3.082679 0.799606  -9.042306
H -2.518128 1.142706  -7.389294
--
# monomer B
0 1     # Charge and multiplicity
C   -3.66844126402057      7.80375217008252      0.00190004133558
C   -4.84759871934653      7.13124183134024     -0.00046653359696
C   -4.89495929917518      5.69633040353158     -0.00103944469517
C   -3.65374067877320      4.98073034095895      0.00662099703436
C   -2.40942512149445      7.11398103667468      0.00209438359570
C   -2.42547734410473      5.68112195090346     -0.00491050527438
C   -1.19474401643570      7.78614419430947      0.00356656413763
C   0.03795902893699      7.09942164575698      0.00139585983271
C   0.03033258741920      5.66948955970466     -0.00408752508301
C   -1.20098450790502      4.96927034791531      0.00488220885047
C   1.27795782581485      7.77285944319479      0.00277170839332
C   2.48535808472416      7.08769688523756      0.00049722048857
C   2.48612868491717      5.65477081024076     -0.00644052849921
C   1.25408291964399      4.95607811366431      0.00518741308898
C   3.75171459140595      7.76391215098033      0.00062407186893
C   4.92356605618520      7.07878077698995     -0.00143240883900
C   4.95560727132542      5.64344746336949     -0.00159282164606
C   3.70680153420475      4.94121020833308      0.00349873852374
H   -3.65852113775815      8.89082741913536      0.00358502958574
H   -1.18921332975660      8.87412108735996      0.00753844057883
H   1.28429423888630      8.86083343548850      0.00693053253426
H   3.75354208679975      8.85103527897216      0.00214659618464
H   5.86995870320703      7.61379483465560     -0.00235777588134
H   -5.78823170750226      7.67630221293400     -0.00202638095293
C   -6.09197395869619      4.99326001364347     -0.00291168518608
C   -6.12866148031747      3.58258016879823     -0.00171050815740
C   -3.66457974004527      3.56418217974434     -0.00463560277484
C   -4.89429820469869      2.86108077590057      0.00453338221034
C   -2.43733499489796      2.84761165708481      0.00719617576166
C   -1.20922785759670      3.54788693497833     -0.00648285103018
C   1.24714157216223      3.53468075142962     -0.00729145743546
C   0.01517603956900      2.83311183930540      0.00439272578912
C   2.46764517244071      2.82128997725533      0.00449278391269
C   3.70254947457969      3.52466015442405     -0.00899517692985
C   6.14498038638375      4.92757236613191     -0.00282626685777
C   6.16658835886151      3.51658447594213     -0.00065971342101
C   4.92460995845939      2.80840792535402      0.00587903281610
H   7.08990550964105      5.46688776622306     -0.00658814770723
H   -7.03104175110130      5.54268795285765     -0.00714490013730
C   -7.33969804112295      2.85841153457957     -0.00333767559888
C   -7.36488195805880      1.47032337158330     -0.00157213747140
C   -4.90350460894690      1.44442681216000     -0.00628840166334
C   -6.13225715261081      0.73993935705394      0.00600164231964
C   -3.67687480051673      0.72669714267312      0.00433931473643
C   -2.44565658606518      1.42964113326212     -0.00597039546461
C   -1.22360068130162      0.71532450163492      0.00545886906656
C   0.00763786931376      1.41738314923765      0.00392452278437
C   1.23121980774686      0.70211669058719     -0.01490206287210
C   2.46082110053113      1.40329203612573      0.00460244601878
C   3.68443025419614      0.68719842821222      0.00377365974158
C   4.91870890153864      1.39173456118907     -0.00862816189375
C   7.36980207796101      2.77948220318441     -0.00242013321349
C   7.38016266612146      1.39121750785509     -0.00087345036788
C   6.13979953912259      0.67411862320065      0.00545489144369
H   -8.27919079934664      3.40711804112415     -0.00763522772059
H   8.31511347147953      3.31811809662368     -0.00663070901292
C   -8.59175593758115      0.72483255304480     -0.00123170985383
C   -8.59902460370342     -0.63263980622873      0.00089141472904
C   -6.13981313911873     -0.67413663715361     -0.00609792660607
C   -7.38018411213749     -1.39126618958160      0.00131813493501
C   -4.91868448025621     -1.39175501803000      0.00624257154343
C   -3.68443829568458     -0.68723731573599     -0.00478966852105
C   -2.46081704024768     -1.40334517882457      0.00575341766833
C   -1.23116201232071     -0.70217386488055     -0.00636696112346
C   -0.00756962538737     -1.41741884941102      0.00108956317991
C   1.22364771588843     -0.71527537726392      0.01109518512883
C   2.44567064933149     -1.42964328900682     -0.00065482763106
C   3.67686670284649     -0.72670743155550     -0.00479541202602
C   6.13224884641929     -0.73997883984993     -0.00632338623858
C   4.90351914550401     -1.44445752054090      0.00751768830159
C   8.59901484869081      0.63260386666793     -0.00101133422380
C   8.59174548810050     -0.72485086719319      0.00072504603735
C   7.36486276438985     -1.47033266560598      0.00049486934466
H   -9.52830597181814      1.27684744919284     -0.00270163681798
H   9.54141097460619      1.17457248844457     -0.00206336648518
C   -7.36983790976868     -2.77954514593389      0.00312634335708
C   -4.92459910905015     -2.80843725734101     -0.00460528907921
C   -6.16662249566744     -3.51665219282533      0.00169655107992
C   -3.70251035970491     -3.52468154912026      0.00571878010666
C   -2.46764698511392     -2.82132596280400     -0.00632585824990
C   -0.01513347410770     -2.83314164539971     -0.00604426974092
C   -1.24712184122656     -3.53473217556300      0.00551968366725
C   1.20924506964357     -3.54791467864352      0.00805871345849
C   2.43733602215464     -2.84764173817541     -0.00608104485234
C   4.89430234377080     -2.86112296828604     -0.00526030478103
C   3.66461525504104     -3.56421984553201      0.00761911515957
C   6.12863901474565     -3.58258405771778      0.00096495711699
C   7.33967266469532     -2.85841330737039      0.00248018319869
H   -9.54144911125902     -1.17456346666430      0.00226083090216
H   9.52826186807155     -1.27691907390448      0.00197485379837
H   -8.31516504384864     -3.31814985321231      0.00729857188773
H   8.27915514249207     -3.40714078989363      0.00681973918158
C   -6.14499418870218     -4.92764727278338      0.00302254913999
C   -3.70678334799751     -4.94126171411716     -0.00679841894792
C   -4.95559005800169     -5.64349397349412      0.00116871569699
C   -2.48612132622665     -5.65478557440947      0.00614125209662
C   -1.25405833548005     -4.95612205000132     -0.00503435388927
C   1.20101257386816     -4.96928038819302     -0.00385322963129
C   -0.03033667441341     -5.66952030313900      0.00398997003238
C   3.65375010132847     -4.98074377541453     -0.00309522988330
C   2.42549269587528     -5.68117463552727      0.00628170066869
C   6.09196561781097     -4.99325796338655      0.00325918379042
C   4.89497644461045     -5.69634842095790      0.00202298796027
H   -7.08989238804069     -5.46699984223871      0.00742531082125
H   7.03105520920009     -5.54265853633254      0.00683896355417
C   -4.92354532219813     -7.07882109967734      0.00061394679214
C   -2.48534208823777     -7.08772807792913     -0.00189594564379
C   -3.75168589177895     -7.76394715763627     -0.00170126671874
C   -0.03794895698805     -7.09946487446944     -0.00168022049625
C   -1.27795610040136     -7.77290438466689     -0.00366491325785
C   2.40944432072629     -7.11402201200282     -0.00081701968533
C   1.19474993715296     -7.78618536556242     -0.00296931056689
C   4.84762105249800     -7.13126211057943      0.00168979497423
C   3.66847160587561     -7.80378799294376     -0.00065863938960
H   -5.86994035041618     -7.61383059804164      0.00215798365757
H   5.78824962538815     -7.67633218931421      0.00281691445618
H   -3.75352693944918     -8.85107156923607     -0.00353718114765
H   -1.28430440589466     -8.86087539249706     -0.00809229711623
H   1.18922157469537     -8.87416062058945     -0.00706194725726
H   3.65854661482387     -8.89086063405326     -0.00231318081200

    units angstrom      # Angstroms are the default
    no_reorient         # Geometry fixed, default
    symmetry c1         # C1 symmetry, default
}

set {
    scf_type DF         # Density fitting, faster than exact integrals
    freeze_core True    # Freeze core electrons
    basis jun-cc-pVDZ   # Jun-cc-pVDZ basis set, recommended for sSAPT0 in https://doi.org/10.1063/1.4867135
}

energy('ssapt0')        # Compute sSAPT0 energy, includes also SAPT0
--------------------------------------------------------------------------

  Memory set to  59.605 GiB by Python driver.

Scratch directory: /tmp/
   => Loading Basis Set <=

    Name: JUN-CC-PVDZ
    Role: ORBITAL
    Keyword: BASIS
    atoms 1-2, 4-5, 10, 17-34, 41-53, 56-70, 73-89, 92-104, 109-119, 122-130 entry C          line   164 file /opt/software/pc2/EB-SW/software/PSI4/1.9-foss-2022a/share/psi4/basis/jun-cc-pvdz.gbs 
    atoms 3, 6                                                               entry N          line   198 file /opt/software/pc2/EB-SW/software/PSI4/1.9-foss-2022a/share/psi4/basis/jun-cc-pvdz.gbs 
    atoms 7-9, 11-16, 35-40, 54-55, 71-72, 90-91, 105-108, 120-121, 131-136  entry H          line    36 file /opt/software/pc2/EB-SW/software/PSI4/1.9-foss-2022a/share/psi4/basis/jun-cc-pvdz.gbs 

   => Loading Basis Set <=

    Name: JUN-CC-PVDZ
    Role: ORBITAL
    Keyword: BASIS
    atoms 1-2, 4-5, 10, 17-34, 41-53, 56-70, 73-89, 92-104, 109-119, 122-130 entry C          line   164 file /opt/software/pc2/EB-SW/software/PSI4/1.9-foss-2022a/share/psi4/basis/jun-cc-pvdz.gbs 
    atoms 3, 6                                                               entry N          line   198 file /opt/software/pc2/EB-SW/software/PSI4/1.9-foss-2022a/share/psi4/basis/jun-cc-pvdz.gbs 
    atoms 7-9, 11-16, 35-40, 54-55, 71-72, 90-91, 105-108, 120-121, 131-136  entry H          line    36 file /opt/software/pc2/EB-SW/software/PSI4/1.9-foss-2022a/share/psi4/basis/jun-cc-pvdz.gbs 


  //>>>>>>>>>>>>>>>>>>>>>>>>>>>>>>>>>>>//
  //              Dimer HF             //
  //<<<<<<<<<<<<<<<<<<<<<<<<<<<<<<<<<<<//

   => Libint2 <=

    Primary   basis highest AM E, G, H:  5, 4, 3
    Auxiliary basis highest AM E, G, H:  6, 5, 4
    Onebody   basis highest AM E, G, H:  6, 5, 4
    Solid Harmonics ordering:            gaussian

*** tstart() called on n2cn0593
*** at Sat Jan 27 00:16:48 2024

   => Loading Basis Set <=

    Name: JUN-CC-PVDZ
    Role: ORBITAL
    Keyword: BASIS
    atoms 1-2, 4-5, 10, 17-34, 41-53, 56-70, 73-89, 92-104, 109-119, 122-130 entry C          line   164 file /opt/software/pc2/EB-SW/software/PSI4/1.9-foss-2022a/share/psi4/basis/jun-cc-pvdz.gbs 
    atoms 3, 6                                                               entry N          line   198 file /opt/software/pc2/EB-SW/software/PSI4/1.9-foss-2022a/share/psi4/basis/jun-cc-pvdz.gbs 
    atoms 7-9, 11-16, 35-40, 54-55, 71-72, 90-91, 105-108, 120-121, 131-136  entry H          line    36 file /opt/software/pc2/EB-SW/software/PSI4/1.9-foss-2022a/share/psi4/basis/jun-cc-pvdz.gbs 


         ---------------------------------------------------------
                                   SCF
               by Justin Turney, Rob Parrish, Andy Simmonett
                          and Daniel G. A. Smith
                              RHF Reference
                       16 Threads,  61035 MiB Core
         ---------------------------------------------------------

  ==> Geometry <==

    Molecular point group: c1
    Full point group: C1

    Geometry (in Angstrom), charge = 1, multiplicity = 1:

       Center              X                  Y                   Z               Mass       
    ------------   -----------------  -----------------  -----------------  -----------------
         C            0.680062820275     1.308604348936    -9.529754297529    12.000000000000
         C           -0.680508179725     1.310632348936    -9.529370297529    12.000000000000
         N           -1.085639179725     1.311630348936    -8.211046297529    14.003074004430
         C            0.000103820275     1.314906348936    -7.429645297529    12.000000000000
         C           -2.477369179725     1.361036348936    -7.743067297529    12.000000000000
         N            1.085217820275     1.311630348936    -8.211046297529    14.003074004430
         H            1.385141820275     1.300776348936   -10.347193297529     1.007825032230
         H           -1.385306179725     1.310442348936   -10.347039297529     1.007825032230
         H           -0.000013179725     1.316653348936    -6.348556297529     1.007825032230
         C            2.478112820275     1.294738348936    -7.745948297529    12.000000000000
         H            2.490587820275     1.322083348936    -6.655695297529     1.007825032230
         H            2.967023820275     0.381292348936    -8.093124297529     1.007825032230
         H            3.001423820275     2.170221348936    -8.137420297529     1.007825032230
         H           -2.857363179725     2.383107348936    -7.823026297529     1.007825032230
         H           -3.082683179725     0.690952348936    -8.356131297529     1.007825032230
         H           -2.518132179725     1.034052348936    -6.703119297529     1.007825032230
         C           -3.668445443746     7.695098519018     0.688074743806    12.000000000000
         C           -4.847602899072     7.022588180276     0.685708168874    12.000000000000
         C           -4.894963478901     5.587676752467     0.685135257776    12.000000000000
         C           -3.653744858499     4.872076689895     0.692795699505    12.000000000000
         C           -2.409429301220     7.005327385610     0.688269086066    12.000000000000
         C           -2.425481523830     5.572468299839     0.681264197196    12.000000000000
         C           -1.194748196161     7.677490543245     0.689741266608    12.000000000000
         C            0.037954849212     6.990767994693     0.687570562303    12.000000000000
         C            0.030328407694     5.560835908640     0.682087177388    12.000000000000
         C           -1.200988687630     4.860616696851     0.691056911321    12.000000000000
         C            1.277953646089     7.664205792130     0.688946410864    12.000000000000
         C            2.485353904999     6.979043234173     0.686671922959    12.000000000000
         C            2.486124505192     5.546117159176     0.679734173972    12.000000000000
         C            1.254078739919     4.847424462600     0.691362115560    12.000000000000
         C            3.751710411681     7.655258499916     0.686798774340    12.000000000000
         C            4.923561876460     6.970127125926     0.684742293632    12.000000000000
         C            4.955603091600     5.534793812305     0.684581880825    12.000000000000
         C            3.706797354479     4.832556557269     0.689673440994    12.000000000000
         H           -3.658525317484     8.782173768071     0.689759732056     1.007825032230
         H           -1.189217509482     8.765467436296     0.693713143050     1.007825032230
         H            1.284290059161     8.752179784424     0.693105235005     1.007825032230
         H            3.753537907074     8.742381627908     0.688321298655     1.007825032230
         H            5.869954523482     7.505141183591     0.683816926589     1.007825032230
         H           -5.788235887228     7.567648561870     0.684148321518     1.007825032230
         C           -6.091978138422     4.884606362579     0.683263017285    12.000000000000
         C           -6.128665660043     3.473926517734     0.684464194313    12.000000000000
         C           -3.664583919771     3.455528528680     0.681539099696    12.000000000000
         C           -4.894302384424     2.752427124836     0.690708084681    12.000000000000
         C           -2.437339174623     2.738958006020     0.693370878232    12.000000000000
         C           -1.209232037322     3.439233283914     0.679691851441    12.000000000000
         C            1.247137392437     3.426027100365     0.678883245035    12.000000000000
         C            0.015171859844     2.724458188241     0.690567428260    12.000000000000
         C            2.467640992715     2.712636326191     0.690667486383    12.000000000000
         C            3.702545294854     3.416006503360     0.677179525541    12.000000000000
         C            6.144976206658     4.818918715067     0.683348435613    12.000000000000
         C            6.166584179136     3.407930824878     0.685514989050    12.000000000000
         C            4.924605778734     2.699754274290     0.692053735287    12.000000000000
         H            7.089901329916     5.358234115159     0.679586554763     1.007825032230
         H           -7.031045930827     5.434034301793     0.679029802333     1.007825032230
         C           -7.339702220848     2.749757883515     0.682837026872    12.000000000000
         C           -7.364886137784     1.361669720519     0.684602564999    12.000000000000
         C           -4.903508788672     1.335773161096     0.679886300807    12.000000000000
         C           -6.132261332336     0.631285705989     0.692176344790    12.000000000000
         C           -3.676878980242     0.618043491609     0.690514017207    12.000000000000
         C           -2.445660765791     1.320987482198     0.680204307006    12.000000000000
         C           -1.223604861027     0.606670850570     0.691633571537    12.000000000000
         C            0.007633689588     1.308729498173     0.690099225255    12.000000000000
         C            1.231215628021     0.593463039523     0.671272639599    12.000000000000
         C            2.460816920806     1.294638385061     0.690777148489    12.000000000000
         C            3.684426074471     0.578544777148     0.689948362212    12.000000000000
         C            4.918704721813     1.283080910125     0.677546540577    12.000000000000
         C            7.369797898236     2.670828552120     0.683754569257    12.000000000000
         C            7.380158486396     1.282563856791     0.685301252103    12.000000000000
         C            6.139795359397     0.565464972136     0.691629593914    12.000000000000
         H           -8.279194979072     3.298464390060     0.678539474750     1.007825032230
         H            8.315109291754     3.209464445559     0.679543993458     1.007825032230
         C           -8.591760117307     0.616178901980     0.684942992617    12.000000000000
         C           -8.599028783429    -0.741293457293     0.687066117200    12.000000000000
         C           -6.139817318844    -0.782790288218     0.680076775865    12.000000000000
         C           -7.380188291863    -1.499919840646     0.687492837406    12.000000000000
         C           -4.918688659982    -1.500408669094     0.692417274014    12.000000000000
         C           -3.684442475410    -0.795890966800     0.681385033950    12.000000000000
         C           -2.460821219973    -1.511998829889     0.691928120139    12.000000000000
         C           -1.231166192046    -0.810827515945     0.679807741347    12.000000000000
         C           -0.007573805113    -1.526072500475     0.687264265651    12.000000000000
         C            1.223643536163    -0.823929028328     0.697269887600    12.000000000000
         C            2.445666469606    -1.538296940071     0.685519874840    12.000000000000
         C            3.676862523121    -0.835361082620     0.681379290445    12.000000000000
         C            6.132244666694    -0.848632490914     0.679851316232    12.000000000000
         C            4.903514965779    -1.553111171605     0.693692390772    12.000000000000
         C            8.599010668965     0.523950215603     0.685163368247    12.000000000000
         C            8.591741308375    -0.833504518258     0.686899748508    12.000000000000
         C            7.364858584664    -1.578986316670     0.686669571815    12.000000000000
         H           -9.528310151544     1.168193798128     0.683473065653     1.007825032230
         H            9.541406794881     1.065918837380     0.684111335986     1.007825032230
         C           -7.369842089494    -2.888198796998     0.689301045828    12.000000000000
         C           -4.924603288776    -2.917090908405     0.681569413392    12.000000000000
         C           -6.166626675393    -3.625305843890     0.687871253551    12.000000000000
         C           -3.702514539430    -3.633335200185     0.691893482577    12.000000000000
         C           -2.467651164839    -2.929979613868     0.679848844221    12.000000000000
         C           -0.015137653833    -2.941795296464     0.680130432730    12.000000000000
         C           -1.247126020952    -3.643385826627     0.691694386138    12.000000000000
         C            1.209240889918    -3.656568329708     0.694233415929    12.000000000000
         C            2.437331842429    -2.956295389240     0.680093657618    12.000000000000
         C            4.894298164045    -2.969776619350     0.680914397690    12.000000000000
         C            3.664611075316    -3.672873496596     0.693793817630    12.000000000000
         C            6.128634835020    -3.691237708782     0.687139659588    12.000000000000
         C            7.339668484970    -2.967066958435     0.688654885669    12.000000000000
         H           -9.541453290984    -1.283217117729     0.688435533373     1.007825032230
         H            9.528257688346    -1.385572724969     0.688149556269     1.007825032230
         H           -8.315169223574    -3.426803504277     0.693473274358     1.007825032230
         H            8.279150962767    -3.515794440958     0.692994441652     1.007825032230
         C           -6.144998368428    -5.036300923848     0.689197251611    12.000000000000
         C           -3.706787527723    -5.049915365182     0.679376283523    12.000000000000
         C           -4.955594237727    -5.752147624559     0.687343418168    12.000000000000
         C           -2.486125505952    -5.763439225474     0.692315954567    12.000000000000
         C           -1.254062515205    -5.064775701066     0.681140348581    12.000000000000
         C            1.201008394143    -5.077934039257     0.682321472839    12.000000000000
         C           -0.030340854139    -5.778173954203     0.690164672503    12.000000000000
         C            3.653745921603    -5.089397426479     0.683079472587    12.000000000000
         C            2.425488516150    -5.789828286592     0.692456403139    12.000000000000
         C            6.091961438086    -5.101911614451     0.689433886261    12.000000000000
         C            4.894972264885    -5.805002072022     0.688197690431    12.000000000000
         H           -7.089896567766    -5.575653493303     0.693600013292     1.007825032230
         H            7.031051029475    -5.651312187397     0.693013666025     1.007825032230
         C           -4.923549501924    -7.187474750742     0.686788649263    12.000000000000
         C           -2.485346267963    -7.196381728994     0.684278756827    12.000000000000
         C           -3.751690071504    -7.872600808701     0.684473435752    12.000000000000
         C           -0.037953136713    -7.208118525534     0.684494481974    12.000000000000
         C           -1.277960280127    -7.881558035731     0.682509789213    12.000000000000
         C            2.409440141001    -7.222675663067     0.685357682785    12.000000000000
         C            1.194745757428    -7.894839016627     0.683205391904    12.000000000000
         C            4.847616872773    -7.239915761644     0.687864497445    12.000000000000
         C            3.668467426150    -7.912441644008     0.685516063081    12.000000000000
         H           -5.869944530142    -7.722484249106     0.688332686128     1.007825032230
         H            5.788245445663    -7.784985840379     0.688991616927     1.007825032230
         H           -3.753531119175    -8.959725220301     0.682637521323     1.007825032230
         H           -1.284308585620    -8.969529043562     0.678082405354     1.007825032230
         H            1.189217394970    -8.982814271654     0.679112755213     1.007825032230
         H            3.658542435098    -8.999514285118     0.683861521659     1.007825032230

  Running in c1 symmetry.

  Rotational constants: A =      0.00054  B =      0.00054  C =      0.00035 [cm^-1]
  Rotational constants: A =     16.09716  B =     16.08420  C =     10.46235 [MHz]
  Nuclear repulsion = 17450.072989256121218

  Charge       = 1
  Multiplicity = 1
  Electrons    = 652
  Nalpha       = 326
  Nbeta        = 326

  ==> Algorithm <==

  SCF Algorithm Type is DF.
  DIIS enabled.
  MOM disabled.
  Fractional occupation disabled.
  Guess Type is SAD.
  Energy threshold   = 1.00e-08
  Density threshold  = 1.00e-08
  Integral threshold = 1.00e-12

  ==> Primary Basis <==

  Basis Set: JUN-CC-PVDZ
    Blend: JUN-CC-PVDZ
    Number of shells: 923
    Number of basis functions: 2019
    Number of Cartesian functions: 2122
    Spherical Harmonics?: true
    Max angular momentum: 2

   => Loading Basis Set <=

    Name: (JUN-CC-PVDZ AUX)
    Role: JKFIT
    Keyword: DF_BASIS_SCF
    atoms 1-2, 4-5, 10, 17-34, 41-53, 56-70, 73-89, 92-104, 109-119, 122-130 entry C          line   146 file /opt/software/pc2/EB-SW/software/PSI4/1.9-foss-2022a/share/psi4/basis/jun-cc-pvdz-jkfit.gbs 
    atoms 3, 6                                                               entry N          line   202 file /opt/software/pc2/EB-SW/software/PSI4/1.9-foss-2022a/share/psi4/basis/jun-cc-pvdz-jkfit.gbs 
    atoms 7-9, 11-16, 35-40, 54-55, 71-72, 90-91, 105-108, 120-121, 131-136  entry H          line    70 file /opt/software/pc2/EB-SW/software/PSI4/1.9-foss-2022a/share/psi4/basis/jun-cc-pvdz-jkfit.gbs 

  ==> Integral Setup <==

  ==> DiskDFJK: Density-Fitted J/K Matrices <==

    J tasked:                  Yes
    K tasked:                  Yes
    wK tasked:                  No
    OpenMP threads:             16
    Integrals threads:          16
    Memory [MiB]:            45776
    Algorithm:                Disk
    Integral Cache:           SAVE
    Schwarz Cutoff:          1E-12
    Fitting Condition:       1E-10

   => Auxiliary Basis Set <=

  Basis Set: (JUN-CC-PVDZ AUX)
    Blend: JUN-CC-PVDZ-JKFIT
    Number of shells: 3078
    Number of basis functions: 8896
    Number of Cartesian functions: 10198
    Spherical Harmonics?: true
    Max angular momentum: 3

  Minimum eigenvalue in the overlap matrix is 9.0496330565E-11.
  Reciprocal condition number of the overlap matrix is 3.9688735039E-12.
    Using canonical orthogonalization.
  Overall, 37 of 2019 possible MOs eliminated.


  ==> Pre-Iterations <==

  SCF Guess: Superposition of Atomic Densities via on-the-fly atomic UHF (no occupation information).

   -------------------------
    Irrep   Nso     Nmo    
   -------------------------
     A       2019    1982 
   -------------------------
    Total    2019    1982
   -------------------------

  ==> Iterations <==

                           Total Energy        Delta E     RMS |[F,P]|

   @DF-RHF iter SAD: -3967.13313557125366   -3.96713e+03   0.00000e+00 
   @DF-RHF iter   1: -3952.09395849964085    1.50392e+01   7.16267e-04 ADIIS/DIIS
   @DF-RHF iter   2: -3953.49141171057863   -1.39745e+00   2.33000e-04 ADIIS/DIIS
   @DF-RHF iter   3: -3953.61590476433412   -1.24493e-01   9.89404e-05 DIIS
   @DF-RHF iter   4: -3953.63798949969214   -2.20847e-02   4.09112e-05 DIIS
   @DF-RHF iter   5: -3953.64219746455274   -4.20796e-03   9.99390e-06 DIIS
   @DF-RHF iter   6: -3953.64261689644354   -4.19432e-04   4.57876e-06 DIIS
   @DF-RHF iter   7: -3953.64279723648497   -1.80340e-04   2.20153e-06 DIIS
   @DF-RHF iter   8: -3953.64285786040728   -6.06239e-05   1.11022e-06 DIIS
   @DF-RHF iter   9: -3953.64287515134674   -1.72909e-05   3.54476e-07 DIIS
   @DF-RHF iter  10: -3953.64287632258629   -1.17124e-06   1.45668e-07 DIIS
   @DF-RHF iter  11: -3953.64287647321316   -1.50627e-07   5.93516e-08 DIIS
   @DF-RHF iter  12: -3953.64287650527376   -3.20606e-08   2.93984e-08 DIIS
   @DF-RHF iter  13: -3953.64287651199948   -6.72571e-09   9.38859e-09 DIIS
  Energy and wave function converged.


  ==> Post-Iterations <==

    Orbital Energies [Eh]
    ---------------------

    Doubly Occupied:                                                      

       1A    -15.825526     2A    -15.825001     3A    -11.520297  
       4A    -11.451522     5A    -11.449968     6A    -11.440301  
       7A    -11.440197     8A    -11.312909     9A    -11.312358  
      10A    -11.312236    11A    -11.311928    12A    -11.311868  
      13A    -11.311774    14A    -11.311387    15A    -11.311204  
      16A    -11.311134    17A    -11.311017    18A    -11.310926  
      19A    -11.310689    20A    -11.310583    21A    -11.310457  
      22A    -11.310421    23A    -11.310249    24A    -11.310210  
      25A    -11.309924    26A    -11.309791    27A    -11.309638  
      28A    -11.309619    29A    -11.309519    30A    -11.309494  
      31A    -11.309329    32A    -11.309269    33A    -11.309268  
      34A    -11.308785    35A    -11.308773    36A    -11.308763  
      37A    -11.308745    38A    -11.308588    39A    -11.308242  
      40A    -11.308221    41A    -11.308185    42A    -11.308180  
      43A    -11.308095    44A    -11.308076    45A    -11.307781  
      46A    -11.307763    47A    -11.307567    48A    -11.307558  
      49A    -11.307290    50A    -11.307278    51A    -11.307257  
      52A    -11.307131    53A    -11.307109    54A    -11.307099  
      55A    -11.306925    56A    -11.306906    57A    -11.306900  
      58A    -11.306658    59A    -11.306639    60A    -11.306471  
      61A    -11.306456    62A    -11.306292    63A    -11.306281  
      64A    -11.306225    65A    -11.306114    66A    -11.306093  
      67A    -11.305942    68A    -11.305933    69A    -11.305538  
      70A    -11.305519    71A    -11.305327    72A    -11.305313  
      73A    -11.305126    74A    -11.305117    75A    -11.304914  
      76A    -11.304911    77A    -11.304486    78A    -11.304205  
      79A    -11.304177    80A    -11.300072    81A    -11.299993  
      82A    -11.299925    83A    -11.299902    84A    -11.299735  
      85A    -11.299712    86A    -11.299276    87A    -11.299246  
      88A    -11.298785    89A    -11.298771    90A    -11.298587  
      91A    -11.298559    92A    -11.298269    93A    -11.298247  
      94A    -11.297983    95A    -11.297975    96A    -11.297808  
      97A    -11.297726    98A    -11.297109    99A    -11.297105  
     100A    -11.297102   101A    -11.297074   102A    -11.295634  
     103A    -11.295632   104A     -1.569259   105A     -1.424772  
     106A     -1.302002   107A     -1.286243   108A     -1.286158  
     109A     -1.267130   110A     -1.267126   111A     -1.262705  
     112A     -1.247210   113A     -1.242055   114A     -1.235244  
     115A     -1.235180   116A     -1.229859   117A     -1.219790  
     118A     -1.219785   119A     -1.202527   120A     -1.202516  
     121A     -1.199666   122A     -1.190581   123A     -1.190574  
     124A     -1.180149   125A     -1.174997   126A     -1.161566  
     127A     -1.159364   128A     -1.159295   129A     -1.158946  
     130A     -1.157315   131A     -1.134769   132A     -1.134750  
     133A     -1.122684   134A     -1.122680   135A     -1.114234  
     136A     -1.114224   137A     -1.111774   138A     -1.109667  
     139A     -1.092976   140A     -1.092959   141A     -1.086624  
     142A     -1.084448   143A     -1.084446   144A     -1.072125  
     145A     -1.068683   146A     -1.068677   147A     -1.053376  
     148A     -1.053075   149A     -1.049927   150A     -1.047001  
     151A     -1.046984   152A     -1.036567   153A     -1.017354  
     154A     -1.017345   155A     -1.013741   156A     -1.001736  
     157A     -1.001713   158A     -0.987895   159A     -0.952745  
     160A     -0.952678   161A     -0.951699   162A     -0.950949  
     163A     -0.950922   164A     -0.939507   165A     -0.939444  
     166A     -0.937256   167A     -0.937074   168A     -0.935910  
     169A     -0.917894   170A     -0.914073   171A     -0.907946  
     172A     -0.897437   173A     -0.894569   174A     -0.894476  
     175A     -0.892320   176A     -0.889471   177A     -0.880596  
     178A     -0.880594   179A     -0.873523   180A     -0.873523  
     181A     -0.841477   182A     -0.831025   183A     -0.830967  
     184A     -0.829424   185A     -0.829391   186A     -0.828923  
     187A     -0.828357   188A     -0.828091   189A     -0.813263  
     190A     -0.807702   191A     -0.807520   192A     -0.803869  
     193A     -0.796985   194A     -0.781260   195A     -0.779005  
     196A     -0.777074   197A     -0.773263   198A     -0.773219  
     199A     -0.773209   200A     -0.771272   201A     -0.770738  
     202A     -0.770707   203A     -0.765125   204A     -0.760249  
     205A     -0.760239   206A     -0.745291   207A     -0.745285  
     208A     -0.732645   209A     -0.731746   210A     -0.731741  
     211A     -0.728165   212A     -0.728156   213A     -0.724823  
     214A     -0.720301   215A     -0.716428   216A     -0.707989  
     217A     -0.699215   218A     -0.696829   219A     -0.696765  
     220A     -0.696191   221A     -0.696165   222A     -0.695221  
     223A     -0.687296   224A     -0.687268   225A     -0.685959  
     226A     -0.684974   227A     -0.682199   228A     -0.682190  
     229A     -0.675171   230A     -0.666089   231A     -0.660762  
     232A     -0.660755   233A     -0.654712   234A     -0.654691  
     235A     -0.646461   236A     -0.646383   237A     -0.645197  
     238A     -0.645059   239A     -0.644705   240A     -0.644576  
     241A     -0.640925   242A     -0.640850   243A     -0.640744  
     244A     -0.640490   245A     -0.637775   246A     -0.637744  
     247A     -0.634148   248A     -0.622859   249A     -0.622854  
     250A     -0.622377   251A     -0.622374   252A     -0.619223  
     253A     -0.616912   254A     -0.614631   255A     -0.614580  
     256A     -0.612524   257A     -0.612466   258A     -0.605919  
     259A     -0.604879   260A     -0.604876   261A     -0.603668  
     262A     -0.600441   263A     -0.596692   264A     -0.592302  
     265A     -0.590721   266A     -0.587369   267A     -0.582163  
     268A     -0.582109   269A     -0.579322   270A     -0.579260  
     271A     -0.574410   272A     -0.573766   273A     -0.573759  
     274A     -0.563169   275A     -0.563083   276A     -0.561301  
     277A     -0.561291   278A     -0.555127   279A     -0.555109  
     280A     -0.544004   281A     -0.542543   282A     -0.542528  
     283A     -0.540721   284A     -0.540707   285A     -0.536469  
     286A     -0.526934   287A     -0.523148   288A     -0.523142  
     289A     -0.519759   290A     -0.515988   291A     -0.515332  
     292A     -0.512676   293A     -0.512633   294A     -0.505215  
     295A     -0.493655   296A     -0.493561   297A     -0.487937  
     298A     -0.487713   299A     -0.487613   300A     -0.480226  
     301A     -0.479530   302A     -0.453710   303A     -0.453690  
     304A     -0.433221   305A     -0.433216   306A     -0.431257  
     307A     -0.431222   308A     -0.430661   309A     -0.400560  
     310A     -0.400531   311A     -0.396890   312A     -0.385768  
     313A     -0.383448   314A     -0.383424   315A     -0.378234  
     316A     -0.378195   317A     -0.354101   318A     -0.348789  
     319A     -0.348774   320A     -0.346807   321A     -0.332194  
     322A     -0.301459   323A     -0.300256   324A     -0.300235  
     325A     -0.250304   326A     -0.250284  

    Virtual:                                                              

     327A     -0.059568   328A     -0.057539   329A     -0.057423  
     330A     -0.054531   331A     -0.046118   332A     -0.041258  
     333A     -0.023618   334A     -0.020855   335A     -0.019853  
     336A     -0.017752   337A     -0.011583   338A     -0.011497  
     339A     -0.005269   340A      0.002610   341A      0.003081  
     342A      0.005081   343A      0.005201   344A      0.006987  
     345A      0.007921   346A      0.008619   347A      0.010574  
     348A      0.011100   349A      0.012704   350A      0.013698  
     351A      0.017697   352A      0.019022   353A      0.020294  
     354A      0.021294   355A      0.023371   356A      0.023538  
     357A      0.023583   358A      0.023701   359A      0.027968  
     360A      0.029639   361A      0.033074   362A      0.033231  
     363A      0.034041   364A      0.034736   365A      0.034780  
     366A      0.037651   367A      0.038109   368A      0.040573  
     369A      0.042260   370A      0.042976   371A      0.043802  
     372A      0.044635   373A      0.045957   374A      0.046223  
     375A      0.046662   376A      0.050174   377A      0.052765  
     378A      0.057317   379A      0.058947   380A      0.058990  
     381A      0.059282   382A      0.061253   383A      0.061737  
     384A      0.061983   385A      0.063532   386A      0.065138  
     387A      0.065986   388A      0.067742   389A      0.067812  
     390A      0.068703   391A      0.069051   392A      0.069141  
     393A      0.073923   394A      0.074062   395A      0.074621  
     396A      0.076695   397A      0.076784   398A      0.077926  
     399A      0.078818   400A      0.080066   401A      0.083875  
     402A      0.085899   403A      0.088187   404A      0.088817  
     405A      0.089140   406A      0.090619   407A      0.091294  
     408A      0.092710   409A      0.093953   410A      0.095175  
     411A      0.098571   412A      0.098697   413A      0.100943  
     414A      0.101122   415A      0.102062   416A      0.103670  
     417A      0.106634   418A      0.106906   419A      0.109439  
     420A      0.110636   421A      0.110754   422A      0.111497  
     423A      0.111602   424A      0.112027   425A      0.115546  
     426A      0.115716   427A      0.115917   428A      0.118672  
     429A      0.118921   430A      0.119687   431A      0.124511  
     432A      0.124935   433A      0.125459   434A      0.125653  
     435A      0.126262   436A      0.129121   437A      0.130591  
     438A      0.132973   439A      0.132989   440A      0.135927  
     441A      0.136023   442A      0.136264   443A      0.136611  
     444A      0.136639   445A      0.137325   446A      0.142758  
     447A      0.143359   448A      0.144392   449A      0.145779  
     450A      0.146282   451A      0.146682   452A      0.146851  
     453A      0.147020   454A      0.148950   455A      0.151020  
     456A      0.155813   457A      0.157100   458A      0.157802  
     459A      0.158434   460A      0.159077   461A      0.159621  
     462A      0.160158   463A      0.160532   464A      0.161009  
     465A      0.163155   466A      0.163411   467A      0.164024  
     468A      0.164221   469A      0.164351   470A      0.165423  
     471A      0.166217   472A      0.166310   473A      0.166393  
     474A      0.169155   475A      0.170152   476A      0.170560  
     477A      0.171904   478A      0.172567   479A      0.172784  
     480A      0.175014   481A      0.177471   482A      0.177747  
     483A      0.178195   484A      0.180215   485A      0.180621  
     486A      0.180687   487A      0.180870   488A      0.183103  
     489A      0.184710   490A      0.184884   491A      0.186993  
     492A      0.187100   493A      0.187243   494A      0.190115  
     495A      0.190244   496A      0.191505   497A      0.192609  
     498A      0.192894   499A      0.194015   500A      0.195296  
     501A      0.195900   502A      0.196093   503A      0.198218  
     504A      0.198363   505A      0.198664   506A      0.199598  
     507A      0.200973   508A      0.202536   509A      0.202631  
     510A      0.202926   511A      0.206648   512A      0.207468  
     513A      0.209106   514A      0.211408   515A      0.212578  
     516A      0.213869   517A      0.215217   518A      0.215407  
     519A      0.215694   520A      0.215915   521A      0.218114  
     522A      0.218866   523A      0.219453   524A      0.221978  
     525A      0.222062   526A      0.223152   527A      0.223310  
     528A      0.223740   529A      0.225560   530A      0.225905  
     531A      0.228150   532A      0.231918   533A      0.232712  
     534A      0.233348   535A      0.233375   536A      0.233773  
     537A      0.234538   538A      0.234976   539A      0.235142  
     540A      0.235894   541A      0.237596   542A      0.238766  
     543A      0.240223   544A      0.241415   545A      0.241876  
     546A      0.242800   547A      0.242936   548A      0.246059  
     549A      0.246919   550A      0.247844   551A      0.249705  
     552A      0.251139   553A      0.251371   554A      0.254082  
     555A      0.256291   556A      0.257323   557A      0.257627  
     558A      0.257912   559A      0.258182   560A      0.260796  
     561A      0.262359   562A      0.262980   563A      0.263954  
     564A      0.264324   565A      0.264998   566A      0.265861  
     567A      0.269213   568A      0.269455   569A      0.270030  
     570A      0.271443   571A      0.271630   572A      0.273369  
     573A      0.273452   574A      0.274545   575A      0.275585  
     576A      0.275889   577A      0.276744   578A      0.276881  
     579A      0.278116   580A      0.278145   581A      0.278318  
     582A      0.280073   583A      0.281381   584A      0.281649  
     585A      0.282039   586A      0.283221   587A      0.283595  
     588A      0.284382   589A      0.285800   590A      0.287244  
     591A      0.288443   592A      0.288905   593A      0.290345  
     594A      0.290748   595A      0.292480   596A      0.294592  
     597A      0.294688   598A      0.296742   599A      0.296817  
     600A      0.298118   601A      0.298793   602A      0.299735  
     603A      0.300734   604A      0.302518   605A      0.302587  
     606A      0.305037   607A      0.305122   608A      0.305278  
     609A      0.305547   610A      0.305989   611A      0.307811  
     612A      0.309824   613A      0.310285   614A      0.311254  
     615A      0.313924   616A      0.315230   617A      0.318286  
     618A      0.318314   619A      0.319868   620A      0.320056  
     621A      0.322185   622A      0.323369   623A      0.324229  
     624A      0.325640   625A      0.326592   626A      0.327646  
     627A      0.328800   628A      0.330446   629A      0.332061  
     630A      0.333208   631A      0.334025   632A      0.335372  
     633A      0.335581   634A      0.335805   635A      0.336529  
     636A      0.337968   637A      0.338036   638A      0.338545  
     639A      0.339783   640A      0.340198   641A      0.342553  
     642A      0.342724   643A      0.346974   644A      0.347506  
     645A      0.348515   646A      0.350316   647A      0.350649  
     648A      0.351214   649A      0.351419   650A      0.351697  
     651A      0.352022   652A      0.352424   653A      0.353719  
     654A      0.353801   655A      0.354471   656A      0.355415  
     657A      0.356014   658A      0.356766   659A      0.357974  
     660A      0.359407   661A      0.359676   662A      0.359757  
     663A      0.359876   664A      0.361894   665A      0.362724  
     666A      0.362898   667A      0.364781   668A      0.364841  
     669A      0.365646   670A      0.367534   671A      0.367965  
     672A      0.368624   673A      0.370079   674A      0.370443  
     675A      0.371127   676A      0.371449   677A      0.371948  
     678A      0.373088   679A      0.373139   680A      0.376796  
     681A      0.378084   682A      0.378386   683A      0.382465  
     684A      0.382718   685A      0.384056   686A      0.384120  
     687A      0.385279   688A      0.385425   689A      0.387410  
     690A      0.387642   691A      0.387879   692A      0.388040  
     693A      0.388076   694A      0.389378   695A      0.389880  
     696A      0.391519   697A      0.391644   698A      0.394611  
     699A      0.394644   700A      0.395616   701A      0.397649  
     702A      0.398075   703A      0.404950   704A      0.405035  
     705A      0.405486   706A      0.406902   707A      0.407139  
     708A      0.407768   709A      0.408344   710A      0.409328  
     711A      0.409868   712A      0.410489   713A      0.410582  
     714A      0.410689   715A      0.412521   716A      0.413859  
     717A      0.415697   718A      0.415982   719A      0.417651  
     720A      0.418462   721A      0.420449   722A      0.420943  
     723A      0.422289   724A      0.422976   725A      0.423180  
     726A      0.424098   727A      0.424981   728A      0.425674  
     729A      0.429918   730A      0.430003   731A      0.430384  
     732A      0.430575   733A      0.431714   734A      0.432993  
     735A      0.434487   736A      0.434870   737A      0.435114  
     738A      0.435292   739A      0.438184   740A      0.439093  
     741A      0.439695   742A      0.440453   743A      0.440584  
     744A      0.442983   745A      0.445859   746A      0.446225  
     747A      0.446324   748A      0.447493   749A      0.448159  
     750A      0.448491   751A      0.448760   752A      0.451374  
     753A      0.451661   754A      0.455506   755A      0.458093  
     756A      0.458674   757A      0.458895   758A      0.459007  
     759A      0.460016   760A      0.460715   761A      0.461999  
     762A      0.462125   763A      0.464712   764A      0.469609  
     765A      0.469624   766A      0.471258   767A      0.472732  
     768A      0.472830   769A      0.472867   770A      0.473133  
     771A      0.474360   772A      0.476314   773A      0.477947  
     774A      0.478937   775A      0.479121   776A      0.484786  
     777A      0.487853   778A      0.488546   779A      0.488715  
     780A      0.492020   781A      0.492496   782A      0.492831  
     783A      0.494503   784A      0.494616   785A      0.499098  
     786A      0.500190   787A      0.500310   788A      0.505462  
     789A      0.507647   790A      0.513558   791A      0.513619  
     792A      0.514010   793A      0.516396   794A      0.516740  
     795A      0.517005   796A      0.522119   797A      0.522223  
     798A      0.522527   799A      0.526739   800A      0.528072  
     801A      0.528351   802A      0.528449   803A      0.529389  
     804A      0.530412   805A      0.531851   806A      0.532691  
     807A      0.532979   808A      0.533780   809A      0.534963  
     810A      0.537395   811A      0.542298   812A      0.543305  
     813A      0.544095   814A      0.544375   815A      0.544530  
     816A      0.548862   817A      0.549258   818A      0.551897  
     819A      0.553055   820A      0.553469   821A      0.556277  
     822A      0.557658   823A      0.558558   824A      0.559322  
     825A      0.559885   826A      0.568194   827A      0.569907  
     828A      0.572227   829A      0.573664   830A      0.573905  
     831A      0.574873   832A      0.575053   833A      0.577102  
     834A      0.581042   835A      0.585453   836A      0.586129  
     837A      0.586460   838A      0.587309   839A      0.594226  
     840A      0.594796   841A      0.600557   842A      0.609702  
     843A      0.609836   844A      0.611435   845A      0.612999  
     846A      0.613798   847A      0.614230   848A      0.614306  
     849A      0.614934   850A      0.620748   851A      0.622435  
     852A      0.622461   853A      0.627511   854A      0.634218  
     855A      0.634294   856A      0.639109   857A      0.639395  
     858A      0.642448   859A      0.642749   860A      0.644424  
     861A      0.645134   862A      0.645922   863A      0.646211  
     864A      0.646856   865A      0.654674   866A      0.655279  
     867A      0.655683   868A      0.656059   869A      0.656427  
     870A      0.658546   871A      0.661737   872A      0.661960  
     873A      0.665035   874A      0.669716   875A      0.674177  
     876A      0.674923   877A      0.681511   878A      0.683312  
     879A      0.685183   880A      0.687355   881A      0.692381  
     882A      0.693906   883A      0.695524   884A      0.696007  
     885A      0.699202   886A      0.699607   887A      0.700576  
     888A      0.701320   889A      0.704702   890A      0.705013  
     891A      0.706911   892A      0.708280   893A      0.718364  
     894A      0.726273   895A      0.726743   896A      0.736687  
     897A      0.738314   898A      0.742894   899A      0.742975  
     900A      0.744074   901A      0.747138   902A      0.748923  
     903A      0.749432   904A      0.750858   905A      0.755565  
     906A      0.756249   907A      0.756700   908A      0.758321  
     909A      0.759000   910A      0.761179   911A      0.761919  
     912A      0.765254   913A      0.768830   914A      0.769151  
     915A      0.769808   916A      0.770994   917A      0.772128  
     918A      0.773198   919A      0.780867   920A      0.782198  
     921A      0.782386   922A      0.784505   923A      0.786524  
     924A      0.787940   925A      0.789350   926A      0.790074  
     927A      0.790957   928A      0.791519   929A      0.792974  
     930A      0.794897   931A      0.795668   932A      0.798821  
     933A      0.799556   934A      0.801547   935A      0.804902  
     936A      0.808106   937A      0.809236   938A      0.811289  
     939A      0.813864   940A      0.814543   941A      0.815481  
     942A      0.816963   943A      0.818453   944A      0.820539  
     945A      0.822398   946A      0.823117   947A      0.823578  
     948A      0.823887   949A      0.824814   950A      0.825229  
     951A      0.827331   952A      0.829057   953A      0.830129  
     954A      0.832336   955A      0.833417   956A      0.835114  
     957A      0.835600   958A      0.840749   959A      0.841247  
     960A      0.841806   961A      0.844131   962A      0.844558  
     963A      0.845364   964A      0.846605   965A      0.848854  
     966A      0.853028   967A      0.854061   968A      0.854744  
     969A      0.856631   970A      0.860476   971A      0.861621  
     972A      0.861748   973A      0.866607   974A      0.870148  
     975A      0.870690   976A      0.871234   977A      0.872312  
     978A      0.874852   979A      0.876028   980A      0.876334  
     981A      0.876570   982A      0.877081   983A      0.880076  
     984A      0.881929   985A      0.883226   986A      0.885340  
     987A      0.887503   988A      0.888138   989A      0.888602  
     990A      0.890807   991A      0.892439   992A      0.892726  
     993A      0.893012   994A      0.897854   995A      0.898986  
     996A      0.902806   997A      0.903653   998A      0.904653  
     999A      0.905127  1000A      0.905230  1001A      0.907110  
    1002A      0.907750  1003A      0.908052  1004A      0.909538  
    1005A      0.910881  1006A      0.911479  1007A      0.911569  
    1008A      0.912256  1009A      0.914260  1010A      0.920037  
    1011A      0.920920  1012A      0.922649  1013A      0.923025  
    1014A      0.925388  1015A      0.928260  1016A      0.936127  
    1017A      0.937141  1018A      0.937672  1019A      0.944606  
    1020A      0.948016  1021A      0.948395  1022A      0.948629  
    1023A      0.949277  1024A      0.951255  1025A      0.954967  
    1026A      0.955176  1027A      0.956720  1028A      0.957154  
    1029A      0.959335  1030A      0.959860  1031A      0.960238  
    1032A      0.960866  1033A      0.963945  1034A      0.967697  
    1035A      0.969323  1036A      0.970080  1037A      0.973663  
    1038A      0.973927  1039A      0.974174  1040A      0.975276  
    1041A      0.975369  1042A      0.977332  1043A      0.982656  
    1044A      0.983984  1045A      0.984610  1046A      0.985451  
    1047A      0.987613  1048A      0.990247  1049A      0.990654  
    1050A      0.990792  1051A      0.999018  1052A      0.999112  
    1053A      1.000674  1054A      1.000906  1055A      1.001195  
    1056A      1.001805  1057A      1.001981  1058A      1.002516  
    1059A      1.006030  1060A      1.006747  1061A      1.007065  
    1062A      1.008211  1063A      1.008225  1064A      1.014142  
    1065A      1.014523  1066A      1.014717  1067A      1.016859  
    1068A      1.018202  1069A      1.018540  1070A      1.019596  
    1071A      1.021091  1072A      1.021239  1073A      1.021477  
    1074A      1.022085  1075A      1.022850  1076A      1.023336  
    1077A      1.024120  1078A      1.024665  1079A      1.025649  
    1080A      1.025743  1081A      1.026071  1082A      1.026479  
    1083A      1.027308  1084A      1.028284  1085A      1.029256  
    1086A      1.029908  1087A      1.030239  1088A      1.031384  
    1089A      1.031625  1090A      1.031642  1091A      1.032969  
    1092A      1.033136  1093A      1.033725  1094A      1.034324  
    1095A      1.034759  1096A      1.035020  1097A      1.035336  
    1098A      1.035612  1099A      1.036235  1100A      1.037158  
    1101A      1.038126  1102A      1.039596  1103A      1.040225  
    1104A      1.042496  1105A      1.043608  1106A      1.043767  
    1107A      1.050771  1108A      1.051549  1109A      1.051970  
    1110A      1.053171  1111A      1.053530  1112A      1.055174  
    1113A      1.055440  1114A      1.056504  1115A      1.057730  
    1116A      1.061222  1117A      1.064388  1118A      1.065404  
    1119A      1.066871  1120A      1.073061  1121A      1.073709  
    1122A      1.074669  1123A      1.075064  1124A      1.076231  
    1125A      1.082468  1126A      1.082569  1127A      1.084169  
    1128A      1.085480  1129A      1.087825  1130A      1.088033  
    1131A      1.088727  1132A      1.091813  1133A      1.091894  
    1134A      1.092873  1135A      1.096369  1136A      1.097059  
    1137A      1.099905  1138A      1.100757  1139A      1.101268  
    1140A      1.104052  1141A      1.104977  1142A      1.105333  
    1143A      1.105787  1144A      1.107611  1145A      1.111412  
    1146A      1.111482  1147A      1.111985  1148A      1.114117  
    1149A      1.116972  1150A      1.117698  1151A      1.122197  
    1152A      1.123828  1153A      1.124731  1154A      1.130030  
    1155A      1.130126  1156A      1.134305  1157A      1.135079  
    1158A      1.138675  1159A      1.139090  1160A      1.140730  
    1161A      1.141855  1162A      1.146254  1163A      1.146814  
    1164A      1.147593  1165A      1.147845  1166A      1.156118  
    1167A      1.156660  1168A      1.156881  1169A      1.158167  
    1170A      1.159246  1171A      1.159325  1172A      1.160246  
    1173A      1.165369  1174A      1.167330  1175A      1.169440  
    1176A      1.170461  1177A      1.171010  1178A      1.172446  
    1179A      1.173194  1180A      1.176614  1181A      1.177720  
    1182A      1.177728  1183A      1.182032  1184A      1.187726  
    1185A      1.188316  1186A      1.201963  1187A      1.202342  
    1188A      1.202644  1189A      1.206517  1190A      1.207351  
    1191A      1.209290  1192A      1.213796  1193A      1.216317  
    1194A      1.216547  1195A      1.218766  1196A      1.222574  
    1197A      1.223088  1198A      1.224137  1199A      1.225389  
    1200A      1.228581  1201A      1.239217  1202A      1.239374  
    1203A      1.241960  1204A      1.244916  1205A      1.245235  
    1206A      1.247874  1207A      1.249175  1208A      1.249288  
    1209A      1.250856  1210A      1.255759  1211A      1.257314  
    1212A      1.260003  1213A      1.260153  1214A      1.262669  
    1215A      1.263204  1216A      1.265178  1217A      1.267929  
    1218A      1.268577  1219A      1.270770  1220A      1.274074  
    1221A      1.274213  1222A      1.274516  1223A      1.274989  
    1224A      1.276653  1225A      1.280709  1226A      1.280763  
    1227A      1.281833  1228A      1.283625  1229A      1.285234  
    1230A      1.285937  1231A      1.289883  1232A      1.289964  
    1233A      1.294467  1234A      1.294638  1235A      1.296312  
    1236A      1.299552  1237A      1.300560  1238A      1.301337  
    1239A      1.310375  1240A      1.310483  1241A      1.311487  
    1242A      1.312346  1243A      1.314928  1244A      1.317625  
    1245A      1.317635  1246A      1.321261  1247A      1.322665  
    1248A      1.324623  1249A      1.326413  1250A      1.326814  
    1251A      1.327073  1252A      1.328955  1253A      1.340951  
    1254A      1.341425  1255A      1.344500  1256A      1.348127  
    1257A      1.348688  1258A      1.349213  1259A      1.349353  
    1260A      1.354082  1261A      1.354293  1262A      1.358997  
    1263A      1.359344  1264A      1.361992  1265A      1.362085  
    1266A      1.362275  1267A      1.366227  1268A      1.367033  
    1269A      1.367240  1270A      1.368400  1271A      1.374755  
    1272A      1.375278  1273A      1.377270  1274A      1.377833  
    1275A      1.380251  1276A      1.380713  1277A      1.380859  
    1278A      1.381124  1279A      1.384002  1280A      1.384184  
    1281A      1.388678  1282A      1.389423  1283A      1.390449  
    1284A      1.392814  1285A      1.393163  1286A      1.396141  
    1287A      1.401720  1288A      1.402857  1289A      1.403197  
    1290A      1.404441  1291A      1.405707  1292A      1.407419  
    1293A      1.407990  1294A      1.417298  1295A      1.417742  
    1296A      1.422696  1297A      1.423560  1298A      1.424271  
    1299A      1.425304  1300A      1.425472  1301A      1.431086  
    1302A      1.432771  1303A      1.437843  1304A      1.438279  
    1305A      1.439531  1306A      1.445214  1307A      1.450404  
    1308A      1.450515  1309A      1.452512  1310A      1.457565  
    1311A      1.459565  1312A      1.459874  1313A      1.470306  
    1314A      1.470822  1315A      1.473190  1316A      1.486563  
    1317A      1.493122  1318A      1.494248  1319A      1.494500  
    1320A      1.501459  1321A      1.507169  1322A      1.507226  
    1323A      1.511995  1324A      1.525897  1325A      1.537345  
    1326A      1.547094  1327A      1.547133  1328A      1.552229  
    1329A      1.555910  1330A      1.557795  1331A      1.558693  
    1332A      1.559181  1333A      1.560753  1334A      1.561515  
    1335A      1.564379  1336A      1.564790  1337A      1.565120  
    1338A      1.568206  1339A      1.568842  1340A      1.569077  
    1341A      1.569772  1342A      1.570780  1343A      1.571446  
    1344A      1.573402  1345A      1.573879  1346A      1.574358  
    1347A      1.575711  1348A      1.578448  1349A      1.580578  
    1350A      1.580599  1351A      1.584536  1352A      1.585187  
    1353A      1.588852  1354A      1.589052  1355A      1.589243  
    1356A      1.589947  1357A      1.591745  1358A      1.592316  
    1359A      1.592605  1360A      1.593588  1361A      1.594459  
    1362A      1.594773  1363A      1.596971  1364A      1.599127  
    1365A      1.605683  1366A      1.605851  1367A      1.606129  
    1368A      1.610143  1369A      1.610398  1370A      1.610690  
    1371A      1.613300  1372A      1.618311  1373A      1.618515  
    1374A      1.621740  1375A      1.622007  1376A      1.622225  
    1377A      1.622875  1378A      1.622979  1379A      1.624910  
    1380A      1.627877  1381A      1.630432  1382A      1.631024  
    1383A      1.631589  1384A      1.632318  1385A      1.641581  
    1386A      1.642912  1387A      1.646594  1388A      1.649591  
    1389A      1.649886  1390A      1.650247  1391A      1.651313  
    1392A      1.653330  1393A      1.663200  1394A      1.663366  
    1395A      1.663915  1396A      1.668470  1397A      1.669453  
    1398A      1.669955  1399A      1.670032  1400A      1.673052  
    1401A      1.674706  1402A      1.676085  1403A      1.676393  
    1404A      1.678108  1405A      1.678330  1406A      1.679220  
    1407A      1.688872  1408A      1.690558  1409A      1.691918  
    1410A      1.697352  1411A      1.700003  1412A      1.701804  
    1413A      1.701919  1414A      1.703813  1415A      1.704565  
    1416A      1.717533  1417A      1.719211  1418A      1.722257  
    1419A      1.733913  1420A      1.739859  1421A      1.740650  
    1422A      1.741790  1423A      1.741984  1424A      1.754296  
    1425A      1.756209  1426A      1.756455  1427A      1.757180  
    1428A      1.763074  1429A      1.764765  1430A      1.772552  
    1431A      1.776161  1432A      1.777478  1433A      1.780585  
    1434A      1.781382  1435A      1.781853  1436A      1.784242  
    1437A      1.784953  1438A      1.786591  1439A      1.787119  
    1440A      1.788141  1441A      1.790323  1442A      1.790738  
    1443A      1.790972  1444A      1.791720  1445A      1.797900  
    1446A      1.799414  1447A      1.810400  1448A      1.810434  
    1449A      1.814022  1450A      1.814544  1451A      1.814572  
    1452A      1.816929  1453A      1.817027  1454A      1.817552  
    1455A      1.819175  1456A      1.819983  1457A      1.824086  
    1458A      1.824719  1459A      1.825238  1460A      1.826952  
    1461A      1.827130  1462A      1.829477  1463A      1.835315  
    1464A      1.836226  1465A      1.837090  1466A      1.837826  
    1467A      1.837994  1468A      1.838529  1469A      1.839423  
    1470A      1.840269  1471A      1.843247  1472A      1.843845  
    1473A      1.852314  1474A      1.857178  1475A      1.857313  
    1476A      1.859249  1477A      1.859600  1478A      1.864797  
    1479A      1.865009  1480A      1.869027  1481A      1.869580  
    1482A      1.870458  1483A      1.874931  1484A      1.875753  
    1485A      1.876160  1486A      1.876241  1487A      1.878328  
    1488A      1.878953  1489A      1.879694  1490A      1.885352  
    1491A      1.890956  1492A      1.891550  1493A      1.891973  
    1494A      1.892463  1495A      1.893187  1496A      1.893813  
    1497A      1.896054  1498A      1.897406  1499A      1.897933  
    1500A      1.899717  1501A      1.902465  1502A      1.904850  
    1503A      1.905493  1504A      1.907086  1505A      1.908514  
    1506A      1.912599  1507A      1.913076  1508A      1.914228  
    1509A      1.914694  1510A      1.914963  1511A      1.920696  
    1512A      1.922317  1513A      1.923710  1514A      1.924815  
    1515A      1.925942  1516A      1.927173  1517A      1.934251  
    1518A      1.935619  1519A      1.938800  1520A      1.942642  
    1521A      1.945254  1522A      1.945579  1523A      1.947135  
    1524A      1.947593  1525A      1.948880  1526A      1.952337  
    1527A      1.960332  1528A      1.960641  1529A      1.964147  
    1530A      1.965519  1531A      1.966433  1532A      1.969722  
    1533A      1.970035  1534A      1.970593  1535A      1.971371  
    1536A      1.973031  1537A      1.973491  1538A      1.973926  
    1539A      1.974523  1540A      1.974911  1541A      1.977823  
    1542A      1.981567  1543A      1.984400  1544A      1.986407  
    1545A      1.987074  1546A      1.989056  1547A      1.992901  
    1548A      1.995250  1549A      1.995844  1550A      2.000962  
    1551A      2.003431  1552A      2.005700  1553A      2.006879  
    1554A      2.009634  1555A      2.010185  1556A      2.011899  
    1557A      2.012327  1558A      2.012693  1559A      2.013808  
    1560A      2.014242  1561A      2.020121  1562A      2.022373  
    1563A      2.022585  1564A      2.024157  1565A      2.028634  
    1566A      2.031337  1567A      2.032806  1568A      2.033808  
    1569A      2.034301  1570A      2.035441  1571A      2.036219  
    1572A      2.036561  1573A      2.037056  1574A      2.040072  
    1575A      2.041749  1576A      2.042123  1577A      2.043257  
    1578A      2.044558  1579A      2.045421  1580A      2.045654  
    1581A      2.047040  1582A      2.047780  1583A      2.048142  
    1584A      2.049746  1585A      2.050560  1586A      2.051242  
    1587A      2.051352  1588A      2.054720  1589A      2.055050  
    1590A      2.055912  1591A      2.060088  1592A      2.063384  
    1593A      2.064642  1594A      2.065597  1595A      2.065983  
    1596A      2.066861  1597A      2.067780  1598A      2.070444  
    1599A      2.071821  1600A      2.073226  1601A      2.074445  
    1602A      2.079019  1603A      2.080259  1604A      2.080504  
    1605A      2.080828  1606A      2.081254  1607A      2.081899  
    1608A      2.082007  1609A      2.084279  1610A      2.088296  
    1611A      2.088686  1612A      2.089590  1613A      2.090063  
    1614A      2.093601  1615A      2.096190  1616A      2.096309  
    1617A      2.097793  1618A      2.098680  1619A      2.098989  
    1620A      2.108017  1621A      2.108479  1622A      2.110335  
    1623A      2.111133  1624A      2.111866  1625A      2.113110  
    1626A      2.113517  1627A      2.114092  1628A      2.117328  
    1629A      2.117604  1630A      2.125165  1631A      2.125424  
    1632A      2.133568  1633A      2.134463  1634A      2.135659  
    1635A      2.136429  1636A      2.142157  1637A      2.142209  
    1638A      2.143630  1639A      2.144015  1640A      2.144352  
    1641A      2.145742  1642A      2.147827  1643A      2.149415  
    1644A      2.150092  1645A      2.151430  1646A      2.152876  
    1647A      2.153433  1648A      2.154788  1649A      2.155300  
    1650A      2.156919  1651A      2.158139  1652A      2.159930  
    1653A      2.162994  1654A      2.165345  1655A      2.167671  
    1656A      2.167950  1657A      2.173709  1658A      2.177127  
    1659A      2.177340  1660A      2.177957  1661A      2.178010  
    1662A      2.179067  1663A      2.182832  1664A      2.186569  
    1665A      2.187272  1666A      2.188502  1667A      2.191291  
    1668A      2.192155  1669A      2.192426  1670A      2.195708  
    1671A      2.200427  1672A      2.201331  1673A      2.202588  
    1674A      2.203292  1675A      2.207172  1676A      2.215777  
    1677A      2.216987  1678A      2.218216  1679A      2.219818  
    1680A      2.221222  1681A      2.225067  1682A      2.228616  
    1683A      2.231196  1684A      2.237172  1685A      2.238484  
    1686A      2.244728  1687A      2.246004  1688A      2.250060  
    1689A      2.251039  1690A      2.254964  1691A      2.258043  
    1692A      2.258579  1693A      2.263238  1694A      2.266826  
    1695A      2.277689  1696A      2.278926  1697A      2.279187  
    1698A      2.281233  1699A      2.283216  1700A      2.284871  
    1701A      2.285237  1702A      2.286358  1703A      2.287470  
    1704A      2.288918  1705A      2.292826  1706A      2.295324  
    1707A      2.296079  1708A      2.296337  1709A      2.298681  
    1710A      2.299442  1711A      2.300143  1712A      2.301639  
    1713A      2.302197  1714A      2.302629  1715A      2.320374  
    1716A      2.324782  1717A      2.325479  1718A      2.329152  
    1719A      2.338072  1720A      2.340378  1721A      2.341773  
    1722A      2.343435  1723A      2.345071  1724A      2.346109  
    1725A      2.350161  1726A      2.372396  1727A      2.373539  
    1728A      2.377131  1729A      2.381705  1730A      2.385374  
    1731A      2.395281  1732A      2.397126  1733A      2.405486  
    1734A      2.406787  1735A      2.418461  1736A      2.418546  
    1737A      2.421897  1738A      2.422160  1739A      2.426262  
    1740A      2.426541  1741A      2.445694  1742A      2.446063  
    1743A      2.447861  1744A      2.448596  1745A      2.456977  
    1746A      2.461028  1747A      2.461772  1748A      2.465884  
    1749A      2.466110  1750A      2.470981  1751A      2.492830  
    1752A      2.493014  1753A      2.494242  1754A      2.496408  
    1755A      2.496981  1756A      2.498437  1757A      2.501817  
    1758A      2.502616  1759A      2.503880  1760A      2.503901  
    1761A      2.505510  1762A      2.509681  1763A      2.509853  
    1764A      2.518067  1765A      2.525226  1766A      2.526607  
    1767A      2.535288  1768A      2.538941  1769A      2.539353  
    1770A      2.539603  1771A      2.540616  1772A      2.543952  
    1773A      2.544398  1774A      2.547411  1775A      2.549262  
    1776A      2.555765  1777A      2.555920  1778A      2.566960  
    1779A      2.567177  1780A      2.567521  1781A      2.568048  
    1782A      2.571426  1783A      2.571619  1784A      2.577591  
    1785A      2.586571  1786A      2.594444  1787A      2.595433  
    1788A      2.597742  1789A      2.599221  1790A      2.601715  
    1791A      2.602347  1792A      2.603356  1793A      2.607460  
    1794A      2.609417  1795A      2.610573  1796A      2.610731  
    1797A      2.619138  1798A      2.619640  1799A      2.622301  
    1800A      2.625036  1801A      2.626017  1802A      2.626882  
    1803A      2.631735  1804A      2.632505  1805A      2.638370  
    1806A      2.639392  1807A      2.640174  1808A      2.640859  
    1809A      2.644983  1810A      2.645185  1811A      2.645419  
    1812A      2.646492  1813A      2.649888  1814A      2.651235  
    1815A      2.657711  1816A      2.665428  1817A      2.675200  
    1818A      2.677855  1819A      2.682410  1820A      2.684553  
    1821A      2.684595  1822A      2.685238  1823A      2.686732  
    1824A      2.686981  1825A      2.692128  1826A      2.706699  
    1827A      2.710088  1828A      2.713377  1829A      2.713766  
    1830A      2.724706  1831A      2.728634  1832A      2.732940  
    1833A      2.733468  1834A      2.741599  1835A      2.752046  
    1836A      2.752174  1837A      2.753141  1838A      2.754355  
    1839A      2.755510  1840A      2.755581  1841A      2.761285  
    1842A      2.763546  1843A      2.767806  1844A      2.768252  
    1845A      2.769390  1846A      2.769683  1847A      2.780894  
    1848A      2.781172  1849A      2.792636  1850A      2.793769  
    1851A      2.793951  1852A      2.795477  1853A      2.795697  
    1854A      2.799450  1855A      2.812917  1856A      2.818661  
    1857A      2.818823  1858A      2.824414  1859A      2.825261  
    1860A      2.827889  1861A      2.848419  1862A      2.849326  
    1863A      2.864995  1864A      2.872620  1865A      2.872742  
    1866A      2.882552  1867A      2.884573  1868A      2.889421  
    1869A      2.889489  1870A      2.917392  1871A      2.919536  
    1872A      2.920023  1873A      2.921964  1874A      2.930635  
    1875A      2.946143  1876A      2.946746  1877A      2.980414  
    1878A      2.983204  1879A      2.983717  1880A      2.989889  
    1881A      2.993255  1882A      3.000747  1883A      3.001436  
    1884A      3.003080  1885A      3.011140  1886A      3.011215  
    1887A      3.019055  1888A      3.026851  1889A      3.050495  
    1890A      3.063354  1891A      3.067802  1892A      3.067917  
    1893A      3.069150  1894A      3.076388  1895A      3.080648  
    1896A      3.081392  1897A      3.086486  1898A      3.088010  
    1899A      3.096546  1900A      3.097705  1901A      3.102008  
    1902A      3.102358  1903A      3.104078  1904A      3.104896  
    1905A      3.108431  1906A      3.117278  1907A      3.120940  
    1908A      3.128008  1909A      3.129888  1910A      3.130035  
    1911A      3.147925  1912A      3.149048  1913A      3.175381  
    1914A      3.207649  1915A      3.214230  1916A      3.214522  
    1917A      3.215046  1918A      3.215962  1919A      3.218232  
    1920A      3.222354  1921A      3.225773  1922A      3.229265  
    1923A      3.229604  1924A      3.247000  1925A      3.247570  
    1926A      3.248461  1927A      3.256342  1928A      3.314250  
    1929A      3.315396  1930A      3.322965  1931A      3.368487  
    1932A      3.382727  1933A      3.384916  1934A      3.390060  
    1935A      3.397519  1936A      3.401140  1937A      3.413021  
    1938A      3.417389  1939A      3.418178  1940A      3.423836  
    1941A      3.426670  1942A      3.433802  1943A      3.439140  
    1944A      3.443846  1945A      3.446229  1946A      3.462124  
    1947A      3.493018  1948A      3.527566  1949A      3.529220  
    1950A      3.532031  1951A      3.536778  1952A      3.543818  
    1953A      3.590054  1954A      3.591186  1955A      3.617817  
    1956A      3.620479  1957A      3.658371  1958A      3.700233  
    1959A      3.703161  1960A      3.704069  1961A      3.715831  
    1962A      3.731770  1963A      3.732898  1964A      3.795984  
    1965A      3.797187  1966A      3.825522  1967A      3.828545  
    1968A      3.858245  1969A      3.866246  1970A      3.890564  
    1971A      3.893075  1972A      3.901992  1973A      3.903044  
    1974A      3.911637  1975A      3.916706  1976A      3.923566  
    1977A      3.977648  1978A      3.980284  1979A      4.023123  
    1980A      4.180528  1981A      4.253524  1982A      4.344243  

    Final Occupation by Irrep:
              A 
    DOCC [   326 ]
    NA   [   326 ]
    NB   [   326 ]

  @DF-RHF Final Energy: -3953.64287651199948

   => Energetics <=

    Nuclear Repulsion Energy =          17450.0729892561212182
    One-Electron Energy =              -40115.4645428674994037
    Two-Electron Energy =               18711.7486770993782557
    Total Energy =                      -3953.6428765119999298

Computation Completed


Properties will be evaluated at   0.000000,   0.000000,   0.000000 [a0]

Properties computed using the SCF density matrix


 Multipole Moments:

 ------------------------------------------------------------------------------------
     Multipole            Electronic (a.u.)      Nuclear  (a.u.)        Total (a.u.)
 ------------------------------------------------------------------------------------

 L = 1.  Multiply by 2.5417464519 to convert [e a0] to [Debye]
 Dipole X            :         -0.0021866            0.0004804           -0.0017062
 Dipole Y            :         -6.6749888            8.7122315            2.0372427
 Dipole Z            :         38.3396009          -52.7725870          -14.4329861
 Magnitude           :                                                   14.5760573

 ------------------------------------------------------------------------------------

*** tstop() called on n2cn0593 at Sat Jan 27 01:57:59 2024
Module time:
	user time   =   27369.06 seconds =     456.15 minutes
	system time =    2099.75 seconds =      35.00 minutes
	total time  =       6071 seconds =     101.18 minutes
Total time:
	user time   =   27369.06 seconds =     456.15 minutes
	system time =    2099.75 seconds =      35.00 minutes
	total time  =       6071 seconds =     101.18 minutes

  //>>>>>>>>>>>>>>>>>>>>>>>>>>>>>>>>>>>//
  //            Monomer A HF           //
  //<<<<<<<<<<<<<<<<<<<<<<<<<<<<<<<<<<<//

   => Libint2 <=

    Primary   basis highest AM E, G, H:  5, 4, 3
    Auxiliary basis highest AM E, G, H:  6, 5, 4
    Onebody   basis highest AM E, G, H:  6, 5, 4
    Solid Harmonics ordering:            gaussian

*** tstart() called on n2cn0593
*** at Sat Jan 27 01:57:59 2024

   => Loading Basis Set <=

    Name: JUN-CC-PVDZ
    Role: ORBITAL
    Keyword: BASIS
    atoms 1-2, 4-5, 10, 17-34, 41-53, 56-70, 73-89, 92-104, 109-119, 122-130 entry C          line   164 file /opt/software/pc2/EB-SW/software/PSI4/1.9-foss-2022a/share/psi4/basis/jun-cc-pvdz.gbs 
    atoms 3, 6                                                               entry N          line   198 file /opt/software/pc2/EB-SW/software/PSI4/1.9-foss-2022a/share/psi4/basis/jun-cc-pvdz.gbs 
    atoms 7-9, 11-16, 35-40, 54-55, 71-72, 90-91, 105-108, 120-121, 131-136  entry H          line    36 file /opt/software/pc2/EB-SW/software/PSI4/1.9-foss-2022a/share/psi4/basis/jun-cc-pvdz.gbs 


         ---------------------------------------------------------
                                   SCF
               by Justin Turney, Rob Parrish, Andy Simmonett
                          and Daniel G. A. Smith
                              RHF Reference
                       16 Threads,  61035 MiB Core
         ---------------------------------------------------------

  ==> Geometry <==

    Molecular point group: c1
    Full point group: C1

    Geometry (in Angstrom), charge = 1, multiplicity = 1:

       Center              X                  Y                   Z               Mass       
    ------------   -----------------  -----------------  -----------------  -----------------
         C            0.680062820275     1.308604348936    -9.529754297529    12.000000000000
         C           -0.680508179725     1.310632348936    -9.529370297529    12.000000000000
         N           -1.085639179725     1.311630348936    -8.211046297529    14.003074004430
[...]
    1579A      2.159769  1580A      2.160557  1581A      2.162464  
    1582A      2.162803  1583A      2.171111  1584A      2.171404  
    1585A      2.179608  1586A      2.180791  1587A      2.181077  
    1588A      2.182240  1589A      2.185444  1590A      2.188337  
    1591A      2.188628  1592A      2.190514  1593A      2.191436  
    1594A      2.192173  1595A      2.192596  1596A      2.194948  
    1597A      2.196794  1598A      2.197834  1599A      2.200151  
    1600A      2.200350  1601A      2.200733  1602A      2.201237  
    1603A      2.202923  1604A      2.204101  1605A      2.205463  
    1606A      2.209040  1607A      2.212380  1608A      2.213621  
    1609A      2.213902  1610A      2.220146  1611A      2.222134  
    1612A      2.222691  1613A      2.224099  1614A      2.224669  
    1615A      2.224764  1616A      2.228756  1617A      2.232000  
    1618A      2.232274  1619A      2.233054  1620A      2.233449  
    1621A      2.238676  1622A      2.238826  1623A      2.239446  
    1624A      2.241341  1625A      2.247401  1626A      2.247728  
    1627A      2.248180  1628A      2.248614  1629A      2.260287  
    1630A      2.261443  1631A      2.263295  1632A      2.264839  
    1633A      2.266435  1634A      2.267258  1635A      2.269502  
    1636A      2.275072  1637A      2.275259  1638A      2.282783  
    1639A      2.284255  1640A      2.290148  1641A      2.290970  
    1642A      2.296182  1643A      2.296292  1644A      2.296769  
    1645A      2.303708  1646A      2.304120  1647A      2.309033  
    1648A      2.313123  1649A      2.314331  1650A      2.324413  
    1651A      2.324849  1652A      2.325174  1653A      2.327075  
    1654A      2.329354  1655A      2.330544  1656A      2.331071  
    1657A      2.332931  1658A      2.334186  1659A      2.335022  
    1660A      2.337768  1661A      2.338893  1662A      2.339742  
    1663A      2.341359  1664A      2.342146  1665A      2.342344  
    1666A      2.344785  1667A      2.345787  1668A      2.346311  
    1669A      2.349059  1670A      2.349403  1671A      2.367886  
    1672A      2.372236  1673A      2.372824  1674A      2.383567  
    1675A      2.384397  1676A      2.387934  1677A      2.390139  
    1678A      2.391621  1679A      2.392793  1680A      2.396900  
    1681A      2.418296  1682A      2.419462  1683A      2.423412  
    1684A      2.427503  1685A      2.431873  1686A      2.441201  
    1687A      2.441823  1688A      2.443112  1689A      2.446636  
    1690A      2.451961  1691A      2.453064  1692A      2.454727  
    1693A      2.464283  1694A      2.464322  1695A      2.467669  
    1696A      2.468005  1697A      2.468333  1698A      2.471904  
    1699A      2.472164  1700A      2.475292  1701A      2.490949  
    1702A      2.491288  1703A      2.494404  1704A      2.502384  
    1705A      2.504807  1706A      2.506710  1707A      2.506935  
    1708A      2.511440  1709A      2.516165  1710A      2.539053  
    1711A      2.539144  1712A      2.539989  1713A      2.542061  
    1714A      2.542652  1715A      2.544880  1716A      2.547509  
    1717A      2.548398  1718A      2.549118  1719A      2.551034  
    1720A      2.556520  1721A      2.556673  1722A      2.564196  
    1723A      2.571081  1724A      2.571491  1725A      2.575536  
    1726A      2.579969  1727A      2.583637  1728A      2.584162  
    1729A      2.585021  1730A      2.586220  1731A      2.588451  
    1732A      2.588880  1733A      2.593201  1734A      2.593497  
    1735A      2.601319  1736A      2.601416  1737A      2.612635  
    1738A      2.612842  1739A      2.613181  1740A      2.613673  
    1741A      2.617043  1742A      2.617253  1743A      2.632058  
    1744A      2.632730  1745A      2.640488  1746A      2.641376  
    1747A      2.643547  1748A      2.643918  1749A      2.645390  
    1750A      2.647279  1751A      2.648570  1752A      2.649179  
    1753A      2.649676  1754A      2.652726  1755A      2.655654  
    1756A      2.656057  1757A      2.657853  1758A      2.665970  
    1759A      2.666050  1760A      2.667532  1761A      2.670369  
    1762A      2.670518  1763A      2.672903  1764A      2.673549  
    1765A      2.677070  1766A      2.677514  1767A      2.684281  
    1768A      2.685474  1769A      2.687014  1770A      2.691071  
    1771A      2.691200  1772A      2.691539  1773A      2.692314  
    1774A      2.696025  1775A      2.697258  1776A      2.703988  
    1777A      2.720637  1778A      2.730631  1779A      2.730690  
    1780A      2.730867  1781A      2.731222  1782A      2.731821  
    1783A      2.736007  1784A      2.746973  1785A      2.752486  
    1786A      2.760502  1787A      2.760902  1788A      2.766458  
    1789A      2.772151  1790A      2.775754  1791A      2.779438  
    1792A      2.779966  1793A      2.799016  1794A      2.799854  
    1795A      2.801360  1796A      2.802166  1797A      2.802211  
    1798A      2.803238  1799A      2.808484  1800A      2.810902  
    1801A      2.814766  1802A      2.815187  1803A      2.815645  
    1804A      2.815936  1805A      2.827946  1806A      2.828167  
    1807A      2.834739  1808A      2.840090  1809A      2.840140  
    1810A      2.841539  1811A      2.841886  1812A      2.845204  
    1813A      2.859618  1814A      2.865177  1815A      2.865330  
    1816A      2.870277  1817A      2.871147  1818A      2.873097  
    1819A      2.874130  1820A      2.888861  1821A      2.895896  
    1822A      2.896783  1823A      2.907897  1824A      2.912445  
    1825A      2.917591  1826A      2.917733  1827A      2.922585  
    1828A      2.927403  1829A      2.929526  1830A      2.934697  
    1831A      2.934732  1832A      2.945396  1833A      2.962979  
    1834A      2.964727  1835A      2.965229  1836A      2.969839  
    1837A      2.976092  1838A      2.991651  1839A      2.992038  
    1840A      2.993640  1841A      3.005545  1842A      3.029308  
    1843A      3.029866  1844A      3.035305  1845A      3.036915  
    1846A      3.038529  1847A      3.046773  1848A      3.047411  
    1849A      3.047967  1850A      3.057484  1851A      3.057560  
    1852A      3.063144  1853A      3.072835  1854A      3.108520  
    1855A      3.112767  1856A      3.113095  1857A      3.122269  
    1858A      3.126807  1859A      3.127455  1860A      3.132335  
    1861A      3.133940  1862A      3.140123  1863A      3.141887  
    1864A      3.142947  1865A      3.148133  1866A      3.148581  
    1867A      3.149360  1868A      3.150012  1869A      3.153454  
    1870A      3.162100  1871A      3.167884  1872A      3.173125  
    1873A      3.174930  1874A      3.175055  1875A      3.193053  
    1876A      3.194136  1877A      3.220219  1878A      3.253315  
    1879A      3.259366  1880A      3.260780  1881A      3.261308  
    1882A      3.261900  1883A      3.264197  1884A      3.268055  
    1885A      3.271283  1886A      3.274955  1887A      3.275259  
    1888A      3.284793  1889A      3.292853  1890A      3.293880  
    1891A      3.294641  1892A      3.302072  1893A      3.304317  
    1894A      3.316745  1895A      3.360951  1896A      3.362064  
    1897A      3.369673  1898A      3.394686  1899A      3.415328  
    1900A      3.429592  1901A      3.432009  1902A      3.438613  
    1903A      3.445332  1904A      3.448789  1905A      3.460604  
    1906A      3.464392  1907A      3.465081  1908A      3.470749  
    1909A      3.473669  1910A      3.480692  1911A      3.486578  
    1912A      3.493357  1913A      3.509087  1914A      3.522247  
    1915A      3.540308  1916A      3.565918  1917A      3.574260  
    1918A      3.575952  1919A      3.583440  1920A      3.589823  
    1921A      3.636784  1922A      3.638030  1923A      3.643409  
    1924A      3.664578  1925A      3.666642  1926A      3.704931  
    1927A      3.747383  1928A      3.749133  1929A      3.750365  
    1930A      3.756185  1931A      3.763162  1932A      3.778584  
    1933A      3.779135  1934A      3.814354  1935A      3.841845  
    1936A      3.843273  1937A      3.866545  1938A      3.871427  
    1939A      3.874572  1940A      3.904530  1941A      3.912833  
    1942A      3.937907  1943A      3.940587  1944A      3.948172  
    1945A      3.949111  1946A      3.957361  1947A      3.958401  
    1948A      3.964336  1949A      3.970696  1950A      4.024605  
    1951A      4.027422  1952A      4.070715  1953A      4.203391  
    1954A      4.206754  1955A      4.228811  1956A      4.302094  
    1957A      4.339134  1958A      4.358385  1959A      4.392676  
    1960A      4.482403  1961A      4.733114  1962A      4.771304  
    1963A      4.827676  1964A      4.844489  1965A      4.933963  
    1966A      5.048209  1967A      5.054853  1968A      5.064187  
    1969A      5.108826  1970A      5.126309  1971A      5.389659  
    1972A      5.419647  1973A      5.730380  1974A      5.751551  
    1975A      6.065727  1976A     18.197215  1977A     18.451683  
    1978A     18.468982  1979A     18.556828  1980A     18.829407  
    1981A     25.337409  1982A     25.373350  

    Final Occupation by Irrep:
              A 
    DOCC [   300 ]
    NA   [   300 ]
    NB   [   300 ]

  @DF-RHF Final Energy: -3650.33784722613836

   => Energetics <=

    Nuclear Repulsion Energy =          15611.4211649754306563
    One-Electron Energy =              -36072.0822516557091149
    Two-Electron Energy =               16810.3232394541410031
    Total Energy =                      -3650.3378472261392744

Computation Completed


Properties will be evaluated at   0.000000,   0.000000,   0.000000 [a0]

Properties computed using the SCF density matrix


 Multipole Moments:

 ------------------------------------------------------------------------------------
     Multipole            Electronic (a.u.)      Nuclear  (a.u.)        Total (a.u.)
 ------------------------------------------------------------------------------------

 L = 1.  Multiply by 2.5417464519 to convert [e a0] to [Debye]
 Dipole X            :         -0.0010820            0.0002112           -0.0008708
 Dipole Y            :        123.2129014         -123.2131634           -0.0002620
 Dipole Z            :       -778.0129058          778.0127490           -0.0001567
 Magnitude           :                                                    0.0009228

 ------------------------------------------------------------------------------------

*** tstop() called on n2cn0593 at Sat Jan 27 03:37:35 2024
Module time:
	user time   =   18806.55 seconds =     313.44 minutes
	system time =    1387.88 seconds =      23.13 minutes
	total time  =       3697 seconds =      61.62 minutes
Total time:
	user time   =   51327.09 seconds =     855.45 minutes
	system time =    3934.49 seconds =      65.57 minutes
	total time  =      12047 seconds =     200.78 minutes
  Constructing Basis Sets for SAPT...

   => Loading Basis Set <=

    Name: (JUN-CC-PVDZ AUX)
    Role: RIFIT
    Keyword: DF_BASIS_SAPT
    atoms 1-2, 4-5, 10, 17-34, 41-53, 56-70, 73-89, 92-104, 109-119, 122-130 entry C          line   100 file /opt/software/pc2/EB-SW/software/PSI4/1.9-foss-2022a/share/psi4/basis/jun-cc-pvdz-ri.gbs 
    atoms 3, 6                                                               entry N          line   144 file /opt/software/pc2/EB-SW/software/PSI4/1.9-foss-2022a/share/psi4/basis/jun-cc-pvdz-ri.gbs 
    atoms 7-9, 11-16, 35-40, 54-55, 71-72, 90-91, 105-108, 120-121, 131-136  entry H          line    30 file /opt/software/pc2/EB-SW/software/PSI4/1.9-foss-2022a/share/psi4/basis/jun-cc-pvdz-ri.gbs 

   => Loading Basis Set <=

    Name: (JUN-CC-PVDZ AUX)
    Role: JKFIT
    Keyword: DF_BASIS_ELST
    atoms 1-2, 4-5, 10, 17-34, 41-53, 56-70, 73-89, 92-104, 109-119, 122-130 entry C          line   146 file /opt/software/pc2/EB-SW/software/PSI4/1.9-foss-2022a/share/psi4/basis/jun-cc-pvdz-jkfit.gbs 
    atoms 3, 6                                                               entry N          line   202 file /opt/software/pc2/EB-SW/software/PSI4/1.9-foss-2022a/share/psi4/basis/jun-cc-pvdz-jkfit.gbs 
    atoms 7-9, 11-16, 35-40, 54-55, 71-72, 90-91, 105-108, 120-121, 131-136  entry H          line    70 file /opt/software/pc2/EB-SW/software/PSI4/1.9-foss-2022a/share/psi4/basis/jun-cc-pvdz-jkfit.gbs 


  //>>>>>>>>>>>>>>>>>>>>>>>>>>>>>>>>>>>//
  //               SSAPT0              //
  //<<<<<<<<<<<<<<<<<<<<<<<<<<<<<<<<<<<//


*** tstart() called on n2cn0593
*** at Sat Jan 27 03:37:36 2024

        SAPT0  
    Ed Hohenstein
     6 June 2009

      Orbital Information
  --------------------------
    NSO        =      2019
    NMO        =      1982
    NRI        =      7157
    NRI (Elst) =      8896
    NOCC A     =        26
    NOCC B     =       300
    FOCC A     =         7
    FOCC B     =        96
    NVIR A     =      1956
    NVIR B     =      1682

    Elst10,r            =    -0.006194163083 [Eh]
    Exch10              =    -0.000000058574 [Eh]
    Exch10 (S^2)        =    -0.000000058574 [Eh]

    Iter     Energy [mEh]          dE [mEh]         Residual      Time [s]
       1      -0.00871998       0.008719981       0.884986933           436
       2      -0.00824916      -0.000470821       0.229203966           724
       3      -0.00906996       0.000820800       0.063092697          1136
       4      -0.00912034       0.000050384       0.028704880          1431
       5      -0.00908300      -0.000037347       0.009092736          1708
       6      -0.00908246      -0.000000534       0.002853522          1973
       7      -0.00908511       0.000002652       0.000925043          2299
       8      -0.00908559       0.000000479       0.000252748          2573
       9      -0.00908548      -0.000000108       0.000089579          2859
      10      -0.00908543      -0.000000059       0.000024064          3120
      11      -0.00908543       0.000000004       0.000006651          3389
      12      -0.00908543       0.000000004       0.000002104          3698
      13      -0.00908543       0.000000000       0.000000692          4024

    CHF Iterations converged


    Iter     Energy [mEh]          dE [mEh]         Residual      Time [s]
       1      -2.45466432       2.454664320      26.958730561           275
       2      -1.60246714      -0.852197184       3.092707509           573
       3      -1.59894934      -0.003517800       1.113695677           934
       4      -1.63017558       0.031226243       0.352404690          1262
       5      -1.63399045       0.003814871       0.140003362          1577
       6      -1.63325305      -0.000737402       0.094294709          1927
       7      -1.63231182      -0.000941223       0.037966829          2206
       8      -1.63241919       0.000107363       0.017062983          2526
       9      -1.63258719       0.000168007       0.007032723          2858
      10      -1.63256483      -0.000022365       0.005786042          3171
      11      -1.63253606      -0.000028771       0.003434665          3535
      12      -1.63253749       0.000001433       0.002370842          3917
      13      -1.63254824       0.000010749       0.001151330          4217
      14      -1.63254971       0.000001466       0.000594064          4501
      15      -1.63254761      -0.000002097       0.000344522          4790
      16      -1.63254618      -0.000001428       0.000127692          5067
      17      -1.63254691       0.000000724       0.000059764          5594
      18      -1.63254712       0.000000215       0.000030683          5927
      19      -1.63254701      -0.000000115       0.000021809          6347
      20      -1.63254693      -0.000000071       0.000009294          6754
      21      -1.63254696       0.000000022       0.000004614          7230
      22      -1.63254697       0.000000015       0.000001815          7638
      23      -1.63254697      -0.000000000       0.000000611          8132

    CHF Iterations converged

    Ind20,r (A<-B)      =    -0.000009085434 [Eh]
    Ind20,r (B<-A)      =    -0.001632546970 [Eh]
    Ind20,r             =    -0.001641632404 [Eh]
    Exch-Ind20,r (A<-B) =     0.000000004903 [Eh]
    Exch-Ind20,r (B<-A) =     0.000000025057 [Eh]
    Exch-Ind20,r        =     0.000000029960 [Eh]
    Disp20              =    -0.000541371108 [Eh]
    Disp20 (SS)         =    -0.000270685554 [Eh]
    Disp20 (OS)         =    -0.000270685554 [Eh]
    Exch-Disp20         =     0.000000010742 [Eh]
    Exch-Disp20 (SS)    =     0.000000007986 [Eh]
    Exch-Disp20 (OS)    =     0.000000002756 [Eh]

    SAPT Results 
  --------------------------------------------------------------------------------------------------------
    Electrostatics                 -6.19416308 [mEh]      -3.88689602 [kcal/mol]     -16.26277293 [kJ/mol]
      Elst10,r                     -6.19416308 [mEh]      -3.88689602 [kcal/mol]     -16.26277293 [kJ/mol]

    Exchange                       -0.00005857 [mEh]      -0.00003676 [kcal/mol]      -0.00015379 [kJ/mol]
      Exch10                       -0.00005857 [mEh]      -0.00003676 [kcal/mol]      -0.00015379 [kJ/mol]
      Exch10(S^2)                  -0.00005857 [mEh]      -0.00003676 [kcal/mol]      -0.00015379 [kJ/mol]

    Induction                      -1.65764505 [mEh]      -1.04018797 [kcal/mol]      -4.35214647 [kJ/mol]
      Ind20,r                      -1.64163240 [mEh]      -1.03013989 [kcal/mol]      -4.31010528 [kJ/mol]
      Exch-Ind20,r                  0.00002996 [mEh]       0.00001880 [kcal/mol]       0.00007866 [kJ/mol]
      delta HF,r (2)               -0.01604260 [mEh]      -0.01006688 [kcal/mol]      -0.04211985 [kJ/mol]

    Dispersion                     -0.54136037 [mEh]      -0.33970876 [kcal/mol]      -1.42134145 [kJ/mol]
      Disp20                       -0.54137111 [mEh]      -0.33971550 [kcal/mol]      -1.42136965 [kJ/mol]
      Exch-Disp20                   0.00001074 [mEh]       0.00000674 [kcal/mol]       0.00002820 [kJ/mol]
      Disp20 (SS)                  -0.27068555 [mEh]      -0.16985775 [kcal/mol]      -0.71068482 [kJ/mol]
      Disp20 (OS)                  -0.27068555 [mEh]      -0.16985775 [kcal/mol]      -0.71068482 [kJ/mol]
      Exch-Disp20 (SS)              0.00000799 [mEh]       0.00000501 [kcal/mol]       0.00002097 [kJ/mol]
      Exch-Disp20 (OS)              0.00000276 [mEh]       0.00000173 [kcal/mol]       0.00000723 [kJ/mol]

  Total HF                         -7.85186670 [mEh]      -4.92712074 [kcal/mol]     -20.61507319 [kJ/mol]
  Total SAPT0                      -8.39322707 [mEh]      -5.26682950 [kcal/mol]     -22.03641463 [kJ/mol]

  Special recipe for scaled SAPT0 (see Manual):
    Electrostatics sSAPT0          -6.19416308 [mEh]      -3.88689602 [kcal/mol]     -16.26277293 [kJ/mol]
    Exchange sSAPT0                -0.00005857 [mEh]      -0.00003676 [kcal/mol]      -0.00015379 [kJ/mol]
    Induction sSAPT0               -1.65764505 [mEh]      -1.04018797 [kcal/mol]      -4.35214647 [kJ/mol]
    Dispersion sSAPT0              -0.54136037 [mEh]      -0.33970876 [kcal/mol]      -1.42134145 [kJ/mol]
  Total sSAPT0                     -8.39322707 [mEh]      -5.26682950 [kcal/mol]     -22.03641463 [kJ/mol]
  --------------------------------------------------------------------------------------------------------

*** tstop() called on n2cn0593 at Sat Jan 27 12:56:11 2024
Module time:
	user time   =   70866.15 seconds =    1181.10 minutes
	system time =    3833.79 seconds =      63.90 minutes
	total time  =      33515 seconds =     558.58 minutes
Total time:
	user time   =  122194.82 seconds =    2036.58 minutes
	system time =    7768.28 seconds =     129.47 minutes
	total time  =      45563 seconds =     759.38 minutes

    Psi4 stopped on: Saturday, 27 January 2024 12:56PM
    Psi4 wall time for execution: 12:39:23.94

*** Psi4 exiting successfully. Buy a developer a beer!
