
    -----------------------------------------------------------------------
          Psi4: An Open-Source Ab Initio Electronic Structure Package
                               Psi4 1.9 release

                         Git: Rev {} zzzzzzz 


    D. G. A. Smith, L. A. Burns, A. C. Simmonett, R. M. Parrish,
    M. C. Schieber, R. Galvelis, P. Kraus, H. Kruse, R. Di Remigio,
    A. Alenaizan, A. M. James, S. Lehtola, J. P. Misiewicz, M. Scheurer,
    R. A. Shaw, J. B. Schriber, Y. Xie, Z. L. Glick, D. A. Sirianni,
    J. S. O'Brien, J. M. Waldrop, A. Kumar, E. G. Hohenstein,
    B. P. Pritchard, B. R. Brooks, H. F. Schaefer III, A. Yu. Sokolov,
    K. Patkowski, A. E. DePrince III, U. Bozkaya, R. A. King,
    F. A. Evangelista, J. M. Turney, T. D. Crawford, C. D. Sherrill,
    J. Chem. Phys. 152(18) 184108 (2020). https://doi.org/10.1063/5.0006002

                            Additional Code Authors
    E. T. Seidl, C. L. Janssen, E. F. Valeev, M. L. Leininger,
    J. F. Gonthier, R. M. Richard, H. R. McAlexander, M. Saitow, X. Wang,
    P. Verma, M. H. Lechner, A. Jiang, S. Behnle, A. G. Heide,
    M. F. Herbst, and D. L. Poole

             Previous Authors, Complete List of Code Contributors,
                       and Citations for Specific Modules
    https://github.com/psi4/psi4/blob/master/codemeta.json
    https://github.com/psi4/psi4/graphs/contributors
    http://psicode.org/psi4manual/master/introduction.html#citing-psifour

    -----------------------------------------------------------------------


    Psi4 started on: Saturday, 27 January 2024 12:12AM

    Process ID: 306598
    Host:       n2cn0973
    PSIDATADIR: /opt/software/pc2/EB-SW/software/PSI4/1.9-foss-2022a/share/psi4
    Memory:     500.0 MiB
    Threads:    16
    
  ==> Input File <==

--------------------------------------------------------------------------
memory 64 GB # how much memory is available ! Depends on the nodes/cores !

molecule dimer {
# monomer A
+1 1    # Charge and multiplicity
C  0.680067 -0.008042 -8.215929
C -0.680504 -0.006014 -8.215545
N -1.085635 -0.005016 -6.897221
C  0.000108 -0.001740 -6.115820
C -2.477365  0.044390 -6.429242
N  1.085222 -0.005016 -6.897221
H  1.385146 -0.015870 -9.033368
H -1.385302 -0.006204 -9.033214
H -0.000009  0.000007 -5.034731
C  2.478117 -0.021908 -6.432123
H  2.490592  0.005437 -5.341870
H  2.967028 -0.935354 -6.779299
H  3.001428  0.853575 -6.823595
H -2.857359  1.066461 -6.509201
H -3.082679 -0.625694 -7.042306
H -2.518128 -0.282594 -5.389294
--
# monomer B
0 1     # Charge and multiplicity
C   -3.66844126402057      7.80375217008252      0.00190004133558
C   -4.84759871934653      7.13124183134024     -0.00046653359696
C   -4.89495929917518      5.69633040353158     -0.00103944469517
C   -3.65374067877320      4.98073034095895      0.00662099703436
C   -2.40942512149445      7.11398103667468      0.00209438359570
C   -2.42547734410473      5.68112195090346     -0.00491050527438
C   -1.19474401643570      7.78614419430947      0.00356656413763
C   0.03795902893699      7.09942164575698      0.00139585983271
C   0.03033258741920      5.66948955970466     -0.00408752508301
C   -1.20098450790502      4.96927034791531      0.00488220885047
C   1.27795782581485      7.77285944319479      0.00277170839332
C   2.48535808472416      7.08769688523756      0.00049722048857
C   2.48612868491717      5.65477081024076     -0.00644052849921
C   1.25408291964399      4.95607811366431      0.00518741308898
C   3.75171459140595      7.76391215098033      0.00062407186893
C   4.92356605618520      7.07878077698995     -0.00143240883900
C   4.95560727132542      5.64344746336949     -0.00159282164606
C   3.70680153420475      4.94121020833308      0.00349873852374
H   -3.65852113775815      8.89082741913536      0.00358502958574
H   -1.18921332975660      8.87412108735996      0.00753844057883
H   1.28429423888630      8.86083343548850      0.00693053253426
H   3.75354208679975      8.85103527897216      0.00214659618464
H   5.86995870320703      7.61379483465560     -0.00235777588134
H   -5.78823170750226      7.67630221293400     -0.00202638095293
C   -6.09197395869619      4.99326001364347     -0.00291168518608
C   -6.12866148031747      3.58258016879823     -0.00171050815740
C   -3.66457974004527      3.56418217974434     -0.00463560277484
C   -4.89429820469869      2.86108077590057      0.00453338221034
C   -2.43733499489796      2.84761165708481      0.00719617576166
C   -1.20922785759670      3.54788693497833     -0.00648285103018
C   1.24714157216223      3.53468075142962     -0.00729145743546
C   0.01517603956900      2.83311183930540      0.00439272578912
C   2.46764517244071      2.82128997725533      0.00449278391269
C   3.70254947457969      3.52466015442405     -0.00899517692985
C   6.14498038638375      4.92757236613191     -0.00282626685777
C   6.16658835886151      3.51658447594213     -0.00065971342101
C   4.92460995845939      2.80840792535402      0.00587903281610
H   7.08990550964105      5.46688776622306     -0.00658814770723
H   -7.03104175110130      5.54268795285765     -0.00714490013730
C   -7.33969804112295      2.85841153457957     -0.00333767559888
C   -7.36488195805880      1.47032337158330     -0.00157213747140
C   -4.90350460894690      1.44442681216000     -0.00628840166334
C   -6.13225715261081      0.73993935705394      0.00600164231964
C   -3.67687480051673      0.72669714267312      0.00433931473643
C   -2.44565658606518      1.42964113326212     -0.00597039546461
C   -1.22360068130162      0.71532450163492      0.00545886906656
C   0.00763786931376      1.41738314923765      0.00392452278437
C   1.23121980774686      0.70211669058719     -0.01490206287210
C   2.46082110053113      1.40329203612573      0.00460244601878
C   3.68443025419614      0.68719842821222      0.00377365974158
C   4.91870890153864      1.39173456118907     -0.00862816189375
C   7.36980207796101      2.77948220318441     -0.00242013321349
C   7.38016266612146      1.39121750785509     -0.00087345036788
C   6.13979953912259      0.67411862320065      0.00545489144369
H   -8.27919079934664      3.40711804112415     -0.00763522772059
H   8.31511347147953      3.31811809662368     -0.00663070901292
C   -8.59175593758115      0.72483255304480     -0.00123170985383
C   -8.59902460370342     -0.63263980622873      0.00089141472904
C   -6.13981313911873     -0.67413663715361     -0.00609792660607
C   -7.38018411213749     -1.39126618958160      0.00131813493501
C   -4.91868448025621     -1.39175501803000      0.00624257154343
C   -3.68443829568458     -0.68723731573599     -0.00478966852105
C   -2.46081704024768     -1.40334517882457      0.00575341766833
C   -1.23116201232071     -0.70217386488055     -0.00636696112346
C   -0.00756962538737     -1.41741884941102      0.00108956317991
C   1.22364771588843     -0.71527537726392      0.01109518512883
C   2.44567064933149     -1.42964328900682     -0.00065482763106
C   3.67686670284649     -0.72670743155550     -0.00479541202602
C   6.13224884641929     -0.73997883984993     -0.00632338623858
C   4.90351914550401     -1.44445752054090      0.00751768830159
C   8.59901484869081      0.63260386666793     -0.00101133422380
C   8.59174548810050     -0.72485086719319      0.00072504603735
C   7.36486276438985     -1.47033266560598      0.00049486934466
H   -9.52830597181814      1.27684744919284     -0.00270163681798
H   9.54141097460619      1.17457248844457     -0.00206336648518
C   -7.36983790976868     -2.77954514593389      0.00312634335708
C   -4.92459910905015     -2.80843725734101     -0.00460528907921
C   -6.16662249566744     -3.51665219282533      0.00169655107992
C   -3.70251035970491     -3.52468154912026      0.00571878010666
C   -2.46764698511392     -2.82132596280400     -0.00632585824990
C   -0.01513347410770     -2.83314164539971     -0.00604426974092
C   -1.24712184122656     -3.53473217556300      0.00551968366725
C   1.20924506964357     -3.54791467864352      0.00805871345849
C   2.43733602215464     -2.84764173817541     -0.00608104485234
C   4.89430234377080     -2.86112296828604     -0.00526030478103
C   3.66461525504104     -3.56421984553201      0.00761911515957
C   6.12863901474565     -3.58258405771778      0.00096495711699
C   7.33967266469532     -2.85841330737039      0.00248018319869
H   -9.54144911125902     -1.17456346666430      0.00226083090216
H   9.52826186807155     -1.27691907390448      0.00197485379837
H   -8.31516504384864     -3.31814985321231      0.00729857188773
H   8.27915514249207     -3.40714078989363      0.00681973918158
C   -6.14499418870218     -4.92764727278338      0.00302254913999
C   -3.70678334799751     -4.94126171411716     -0.00679841894792
C   -4.95559005800169     -5.64349397349412      0.00116871569699
C   -2.48612132622665     -5.65478557440947      0.00614125209662
C   -1.25405833548005     -4.95612205000132     -0.00503435388927
C   1.20101257386816     -4.96928038819302     -0.00385322963129
C   -0.03033667441341     -5.66952030313900      0.00398997003238
C   3.65375010132847     -4.98074377541453     -0.00309522988330
C   2.42549269587528     -5.68117463552727      0.00628170066869
C   6.09196561781097     -4.99325796338655      0.00325918379042
C   4.89497644461045     -5.69634842095790      0.00202298796027
H   -7.08989238804069     -5.46699984223871      0.00742531082125
H   7.03105520920009     -5.54265853633254      0.00683896355417
C   -4.92354532219813     -7.07882109967734      0.00061394679214
C   -2.48534208823777     -7.08772807792913     -0.00189594564379
C   -3.75168589177895     -7.76394715763627     -0.00170126671874
C   -0.03794895698805     -7.09946487446944     -0.00168022049625
C   -1.27795610040136     -7.77290438466689     -0.00366491325785
C   2.40944432072629     -7.11402201200282     -0.00081701968533
C   1.19474993715296     -7.78618536556242     -0.00296931056689
C   4.84762105249800     -7.13126211057943      0.00168979497423
C   3.66847160587561     -7.80378799294376     -0.00065863938960
H   -5.86994035041618     -7.61383059804164      0.00215798365757
H   5.78824962538815     -7.67633218931421      0.00281691445618
H   -3.75352693944918     -8.85107156923607     -0.00353718114765
H   -1.28430440589466     -8.86087539249706     -0.00809229711623
H   1.18922157469537     -8.87416062058945     -0.00706194725726
H   3.65854661482387     -8.89086063405326     -0.00231318081200

    units angstrom      # Angstroms are the default
    no_reorient         # Geometry fixed, default
    symmetry c1         # C1 symmetry, default
}

set {
    scf_type DF         # Density fitting, faster than exact integrals
    freeze_core True    # Freeze core electrons
    basis jun-cc-pVDZ   # Jun-cc-pVDZ basis set, recommended for sSAPT0 in https://doi.org/10.1063/1.4867135
}

energy('ssapt0')        # Compute sSAPT0 energy, includes also SAPT0
--------------------------------------------------------------------------

  Memory set to  59.605 GiB by Python driver.

Scratch directory: /tmp/
   => Loading Basis Set <=

    Name: JUN-CC-PVDZ
    Role: ORBITAL
    Keyword: BASIS
    atoms 1-2, 4-5, 10, 17-34, 41-53, 56-70, 73-89, 92-104, 109-119, 122-130 entry C          line   164 file /opt/software/pc2/EB-SW/software/PSI4/1.9-foss-2022a/share/psi4/basis/jun-cc-pvdz.gbs 
    atoms 3, 6                                                               entry N          line   198 file /opt/software/pc2/EB-SW/software/PSI4/1.9-foss-2022a/share/psi4/basis/jun-cc-pvdz.gbs 
    atoms 7-9, 11-16, 35-40, 54-55, 71-72, 90-91, 105-108, 120-121, 131-136  entry H          line    36 file /opt/software/pc2/EB-SW/software/PSI4/1.9-foss-2022a/share/psi4/basis/jun-cc-pvdz.gbs 

   => Loading Basis Set <=

    Name: JUN-CC-PVDZ
    Role: ORBITAL
    Keyword: BASIS
    atoms 1-2, 4-5, 10, 17-34, 41-53, 56-70, 73-89, 92-104, 109-119, 122-130 entry C          line   164 file /opt/software/pc2/EB-SW/software/PSI4/1.9-foss-2022a/share/psi4/basis/jun-cc-pvdz.gbs 
    atoms 3, 6                                                               entry N          line   198 file /opt/software/pc2/EB-SW/software/PSI4/1.9-foss-2022a/share/psi4/basis/jun-cc-pvdz.gbs 
    atoms 7-9, 11-16, 35-40, 54-55, 71-72, 90-91, 105-108, 120-121, 131-136  entry H          line    36 file /opt/software/pc2/EB-SW/software/PSI4/1.9-foss-2022a/share/psi4/basis/jun-cc-pvdz.gbs 


  //>>>>>>>>>>>>>>>>>>>>>>>>>>>>>>>>>>>//
  //              Dimer HF             //
  //<<<<<<<<<<<<<<<<<<<<<<<<<<<<<<<<<<<//

   => Libint2 <=

    Primary   basis highest AM E, G, H:  5, 4, 3
    Auxiliary basis highest AM E, G, H:  6, 5, 4
    Onebody   basis highest AM E, G, H:  6, 5, 4
    Solid Harmonics ordering:            gaussian

*** tstart() called on n2cn0973
*** at Sat Jan 27 00:12:48 2024

   => Loading Basis Set <=

    Name: JUN-CC-PVDZ
    Role: ORBITAL
    Keyword: BASIS
    atoms 1-2, 4-5, 10, 17-34, 41-53, 56-70, 73-89, 92-104, 109-119, 122-130 entry C          line   164 file /opt/software/pc2/EB-SW/software/PSI4/1.9-foss-2022a/share/psi4/basis/jun-cc-pvdz.gbs 
    atoms 3, 6                                                               entry N          line   198 file /opt/software/pc2/EB-SW/software/PSI4/1.9-foss-2022a/share/psi4/basis/jun-cc-pvdz.gbs 
    atoms 7-9, 11-16, 35-40, 54-55, 71-72, 90-91, 105-108, 120-121, 131-136  entry H          line    36 file /opt/software/pc2/EB-SW/software/PSI4/1.9-foss-2022a/share/psi4/basis/jun-cc-pvdz.gbs 


         ---------------------------------------------------------
                                   SCF
               by Justin Turney, Rob Parrish, Andy Simmonett
                          and Daniel G. A. Smith
                              RHF Reference
                       16 Threads,  61035 MiB Core
         ---------------------------------------------------------

  ==> Geometry <==

    Molecular point group: c1
    Full point group: C1

    Geometry (in Angstrom), charge = 1, multiplicity = 1:

       Center              X                  Y                   Z               Mass       
    ------------   -----------------  -----------------  -----------------  -----------------
         C            0.680062820275    -0.008027535675    -7.682238848697    12.000000000000
         C           -0.680508179725    -0.005999535675    -7.681854848697    12.000000000000
         N           -1.085639179725    -0.005001535675    -6.363530848697    14.003074004430
         C            0.000103820275    -0.001725535675    -5.582129848697    12.000000000000
         C           -2.477369179725     0.044404464325    -5.895551848697    12.000000000000
         N            1.085217820275    -0.005001535675    -6.363530848697    14.003074004430
         H            1.385141820275    -0.015855535675    -8.499677848697     1.007825032230
         H           -1.385306179725    -0.006189535675    -8.499523848697     1.007825032230
         H           -0.000013179725     0.000021464325    -4.501040848697     1.007825032230
         C            2.478112820275    -0.021893535675    -5.898432848697    12.000000000000
         H            2.490587820275     0.005451464325    -4.808179848697     1.007825032230
         H            2.967023820275    -0.935339535675    -6.245608848697     1.007825032230
         H            3.001423820275     0.853589464325    -6.289904848697     1.007825032230
         H           -2.857363179725     1.066475464325    -5.975510848697     1.007825032230
         H           -3.082683179725    -0.625679535675    -6.508615848697     1.007825032230
         H           -2.518132179725    -0.282579535675    -4.855603848697     1.007825032230
         C           -3.668445443746     7.803766634408     0.535590192639    12.000000000000
         C           -4.847602899072     7.131256295665     0.533223617706    12.000000000000
         C           -4.894963478901     5.696344867857     0.532650706608    12.000000000000
         C           -3.653744858499     4.980744805284     0.540311148338    12.000000000000
         C           -2.409429301220     7.113995501000     0.535784534899    12.000000000000
         C           -2.425481523830     5.681136415228     0.528779646029    12.000000000000
         C           -1.194748196161     7.786158658634     0.537256715441    12.000000000000
         C            0.037954849212     7.099436110082     0.535086011136    12.000000000000
         C            0.030328407694     5.669504024030     0.529602626220    12.000000000000
         C           -1.200988687630     4.969284812240     0.538572360154    12.000000000000
         C            1.277953646089     7.772873907520     0.536461859697    12.000000000000
         C            2.485353904999     7.087711349563     0.534187371792    12.000000000000
         C            2.486124505192     5.654785274566     0.527249622804    12.000000000000
         C            1.254078739919     4.956092577989     0.538877564392    12.000000000000
         C            3.751710411681     7.763926615305     0.534314223172    12.000000000000
         C            4.923561876460     7.078795241315     0.532257742464    12.000000000000
         C            4.955603091600     5.643461927694     0.532097329657    12.000000000000
         C            3.706797354479     4.941224672658     0.537188889827    12.000000000000
         H           -3.658525317484     8.890841883460     0.537275180889     1.007825032230
         H           -1.189217509482     8.874135551685     0.541228591882     1.007825032230
         H            1.284290059161     8.860847899813     0.540620683838     1.007825032230
         H            3.753537907074     8.851049743297     0.535836747488     1.007825032230
         H            5.869954523482     7.613809298981     0.531332375422     1.007825032230
         H           -5.788235887228     7.676316677259     0.531663770350     1.007825032230
         C           -6.091978138422     4.993274477968     0.530778466117    12.000000000000
         C           -6.128665660043     3.582594633123     0.531979643146    12.000000000000
         C           -3.664583919771     3.564196644069     0.529054548528    12.000000000000
         C           -4.894302384424     2.861095240226     0.538223533514    12.000000000000
         C           -2.437339174623     2.847626121410     0.540886327065    12.000000000000
         C           -1.209232037322     3.547901399303     0.527207300273    12.000000000000
         C            1.247137392437     3.534695215755     0.526398693868    12.000000000000
         C            0.015171859844     2.833126303630     0.538082877092    12.000000000000
         C            2.467640992715     2.821304441580     0.538182935216    12.000000000000
         C            3.702545294854     3.524674618749     0.524694974373    12.000000000000
         C            6.144976206658     4.927586830457     0.530863884446    12.000000000000
         C            6.166584179136     3.516598940267     0.533030437882    12.000000000000
         C            4.924605778734     2.808422389679     0.539569184119    12.000000000000
         H            7.089901329916     5.466902230548     0.527102003596     1.007825032230
         H           -7.031045930827     5.542702417183     0.526545251166     1.007825032230
         C           -7.339702220848     2.858425998905     0.530352475704    12.000000000000
         C           -7.364886137784     1.470337835908     0.532118013832    12.000000000000
         C           -4.903508788672     1.444441276485     0.527401749640    12.000000000000
         C           -6.132261332336     0.739953821379     0.539691793623    12.000000000000
         C           -3.676878980242     0.726711606998     0.538029466040    12.000000000000
         C           -2.445660765791     1.429655597587     0.527719755839    12.000000000000
         C           -1.223604861027     0.715338965960     0.539149020370    12.000000000000
         C            0.007633689588     1.417397613563     0.537614674088    12.000000000000
         C            1.231215628021     0.702131154912     0.518788088431    12.000000000000
         C            2.460816920806     1.403306500451     0.538292597322    12.000000000000
         C            3.684426074471     0.687212892537     0.537463811045    12.000000000000
         C            4.918704721813     1.391749025514     0.525061989410    12.000000000000
         C            7.369797898236     2.779496667509     0.531270018090    12.000000000000
         C            7.380158486396     1.391231972180     0.532816700935    12.000000000000
         C            6.139795359397     0.674133087526     0.539145042747    12.000000000000
         H           -8.279194979072     3.407132505449     0.526054923583     1.007825032230
         H            8.315109291754     3.318132560949     0.527059442290     1.007825032230
         C           -8.591760117307     0.724847017370     0.532458441450    12.000000000000
         C           -8.599028783429    -0.632625341904     0.534581566032    12.000000000000
         C           -6.139817318844    -0.674122172829     0.527592224697    12.000000000000
         C           -7.380188291863    -1.391251725257     0.535008286238    12.000000000000
         C           -4.918688659982    -1.391740553705     0.539932722847    12.000000000000
         C           -3.684442475410    -0.687222851411     0.528900482782    12.000000000000
         C           -2.460821219973    -1.403330714500     0.539443568972    12.000000000000
         C           -1.231166192046    -0.702159400556     0.527323190180    12.000000000000
         C           -0.007573805113    -1.417404385086     0.534779714483    12.000000000000
         C            1.223643536163    -0.715260912939     0.544785336432    12.000000000000
         C            2.445666469606    -1.429628824682     0.533035323672    12.000000000000
         C            3.676862523121    -0.726692967231     0.528894739277    12.000000000000
         C            6.132244666694    -0.739964375525     0.527366765065    12.000000000000
         C            4.903514965779    -1.444443056216     0.541207839605    12.000000000000
         C            8.599010668965     0.632618330993     0.532678817080    12.000000000000
         C            8.591741308375    -0.724836402868     0.534415197341    12.000000000000
         C            7.364858584664    -1.470318201281     0.534185020648    12.000000000000
         H           -9.528310151544     1.276861913518     0.530988514485     1.007825032230
         H            9.541406794881     1.174586952770     0.531626784818     1.007825032230
         C           -7.369842089494    -2.779530681609     0.536816494660    12.000000000000
         C           -4.924603288776    -2.808422793016     0.529084862224    12.000000000000
         C           -6.166626675393    -3.516637728500     0.535386702383    12.000000000000
         C           -3.702514539430    -3.524667084795     0.539408931410    12.000000000000
         C           -2.467651164839    -2.821311498479     0.527364293053    12.000000000000
         C           -0.015137653833    -2.833127181075     0.527645881562    12.000000000000
         C           -1.247126020952    -3.534717711238     0.539209834971    12.000000000000
         C            1.209240889918    -3.547900214319     0.541748864762    12.000000000000
         C            2.437331842429    -2.847627273850     0.527609106451    12.000000000000
         C            4.894298164045    -2.861108503961     0.528429846522    12.000000000000
         C            3.664611075316    -3.564205381207     0.541309266463    12.000000000000
         C            6.128634835020    -3.582569593393     0.534655108420    12.000000000000
         C            7.339668484970    -2.858398843045     0.536170334502    12.000000000000
         H           -9.541453290984    -1.174549002339     0.535950982205     1.007825032230
         H            9.528257688346    -1.276904609579     0.535665005102     1.007825032230
         H           -8.315169223574    -3.318135388887     0.540988723191     1.007825032230
         H            8.279150962767    -3.407126325569     0.540509890485     1.007825032230
         C           -6.144998368428    -4.927632808458     0.536712700443    12.000000000000
         C           -3.706787527723    -4.941247249792     0.526891732355    12.000000000000
         C           -4.955594237727    -5.643479509169     0.534858867000    12.000000000000
         C           -2.486125505952    -5.654771110084     0.539831403400    12.000000000000
         C           -1.254062515205    -4.956107585676     0.528655797414    12.000000000000
         C            1.201008394143    -4.969265923868     0.529836921672    12.000000000000
         C           -0.030340854139    -5.669505838814     0.537680121336    12.000000000000
         C            3.653745921603    -4.980729311090     0.530594921420    12.000000000000
         C            2.425488516150    -5.681160171202     0.539971851972    12.000000000000
         C            6.091961438086    -4.993243499062     0.536949335094    12.000000000000
         C            4.894972264885    -5.696333956633     0.535713139264    12.000000000000
         H           -7.089896567766    -5.466985377914     0.541115462125     1.007825032230
         H            7.031051029475    -5.542644072008     0.540529114858     1.007825032230
         C           -4.923549501924    -7.078806635352     0.534304098095    12.000000000000
         C           -2.485346267963    -7.087713613604     0.531794205660    12.000000000000
         C           -3.751690071504    -7.763932693311     0.531988884585    12.000000000000
         C           -0.037953136713    -7.099450410144     0.532009930807    12.000000000000
         C           -1.277960280127    -7.772889920342     0.530025238045    12.000000000000
         C            2.409440141001    -7.114007547678     0.532873131618    12.000000000000
         C            1.194745757428    -7.786170901237     0.530720840736    12.000000000000
         C            4.847616872773    -7.131247646254     0.535379946278    12.000000000000
         C            3.668467426150    -7.803773528619     0.533031511914    12.000000000000
         H           -5.869944530142    -7.613816133717     0.535848134961     1.007825032230
         H            5.788245445663    -7.676317724989     0.536507065760     1.007825032230
         H           -3.753531119175    -8.851057104911     0.530152970156     1.007825032230
         H           -1.284308585620    -8.860860928172     0.525597854187     1.007825032230
         H            1.189217394970    -8.874146156264     0.526628204046     1.007825032230
         H            3.658542435098    -8.890846169728     0.531376970491     1.007825032230

  Running in c1 symmetry.

  Rotational constants: A =      0.00059  B =      0.00059  C =      0.00035 [cm^-1]
  Rotational constants: A =     17.81469  B =     17.66753  C =     10.51914 [MHz]
  Nuclear repulsion = 17733.660817002324620

  Charge       = 1
  Multiplicity = 1
  Electrons    = 652
  Nalpha       = 326
  Nbeta        = 326

  ==> Algorithm <==

  SCF Algorithm Type is DF.
  DIIS enabled.
  MOM disabled.
  Fractional occupation disabled.
  Guess Type is SAD.
  Energy threshold   = 1.00e-08
  Density threshold  = 1.00e-08
  Integral threshold = 1.00e-12

  ==> Primary Basis <==

  Basis Set: JUN-CC-PVDZ
    Blend: JUN-CC-PVDZ
    Number of shells: 923
    Number of basis functions: 2019
    Number of Cartesian functions: 2122
    Spherical Harmonics?: true
    Max angular momentum: 2

   => Loading Basis Set <=

    Name: (JUN-CC-PVDZ AUX)
    Role: JKFIT
    Keyword: DF_BASIS_SCF
    atoms 1-2, 4-5, 10, 17-34, 41-53, 56-70, 73-89, 92-104, 109-119, 122-130 entry C          line   146 file /opt/software/pc2/EB-SW/software/PSI4/1.9-foss-2022a/share/psi4/basis/jun-cc-pvdz-jkfit.gbs 
    atoms 3, 6                                                               entry N          line   202 file /opt/software/pc2/EB-SW/software/PSI4/1.9-foss-2022a/share/psi4/basis/jun-cc-pvdz-jkfit.gbs 
    atoms 7-9, 11-16, 35-40, 54-55, 71-72, 90-91, 105-108, 120-121, 131-136  entry H          line    70 file /opt/software/pc2/EB-SW/software/PSI4/1.9-foss-2022a/share/psi4/basis/jun-cc-pvdz-jkfit.gbs 

  ==> Integral Setup <==

  ==> DiskDFJK: Density-Fitted J/K Matrices <==

    J tasked:                  Yes
    K tasked:                  Yes
    wK tasked:                  No
    OpenMP threads:             16
    Integrals threads:          16
    Memory [MiB]:            45776
    Algorithm:                Disk
    Integral Cache:           SAVE
    Schwarz Cutoff:          1E-12
    Fitting Condition:       1E-10

   => Auxiliary Basis Set <=

  Basis Set: (JUN-CC-PVDZ AUX)
    Blend: JUN-CC-PVDZ-JKFIT
    Number of shells: 3078
    Number of basis functions: 8896
    Number of Cartesian functions: 10198
    Spherical Harmonics?: true
    Max angular momentum: 3

  Minimum eigenvalue in the overlap matrix is 8.9908640014E-11.
  Reciprocal condition number of the overlap matrix is 3.9408252514E-12.
    Using canonical orthogonalization.
  Overall, 38 of 2019 possible MOs eliminated.


  ==> Pre-Iterations <==

  SCF Guess: Superposition of Atomic Densities via on-the-fly atomic UHF (no occupation information).

   -------------------------
    Irrep   Nso     Nmo    
   -------------------------
     A       2019    1981 
   -------------------------
    Total    2019    1981
   -------------------------

  ==> Iterations <==

                           Total Energy        Delta E     RMS |[F,P]|

   @DF-RHF iter SAD: -3967.13467458781179   -3.96713e+03   0.00000e+00 
   @DF-RHF iter   1: -3952.10418830291746    1.50305e+01   7.15760e-04 DIIS/ADIIS
   @DF-RHF iter   2: -3953.49625938596955   -1.39207e+00   2.33823e-04 DIIS/ADIIS
   @DF-RHF iter   3: -3953.61942155534234   -1.23162e-01   1.01935e-04 DIIS/ADIIS
   @DF-RHF iter   4: -3953.64227386085531   -2.28523e-02   4.30251e-05 DIIS
   @DF-RHF iter   5: -3953.64696723136331   -4.69337e-03   1.05636e-05 DIIS
   @DF-RHF iter   6: -3953.64741987398475   -4.52643e-04   4.60956e-06 DIIS
   @DF-RHF iter   7: -3953.64760518572575   -1.85312e-04   2.20737e-06 DIIS
   @DF-RHF iter   8: -3953.64766727595088   -6.20902e-05   1.10200e-06 DIIS
   @DF-RHF iter   9: -3953.64768468420607   -1.74083e-05   3.53084e-07 DIIS
   @DF-RHF iter  10: -3953.64768585656293   -1.17236e-06   1.44557e-07 DIIS
   @DF-RHF iter  11: -3953.64768600530851   -1.48746e-07   5.90135e-08 DIIS
   @DF-RHF iter  12: -3953.64768603757238   -3.22639e-08   2.94124e-08 DIIS
   @DF-RHF iter  13: -3953.64768604451456   -6.94217e-09   9.90888e-09 DIIS
  Energy and wave function converged.


  ==> Post-Iterations <==

    Orbital Energies [Eh]
    ---------------------

    Doubly Occupied:                                                      

       1A    -15.819242     2A    -15.818724     3A    -11.513872  
       4A    -11.445895     5A    -11.444340     6A    -11.433881  
       7A    -11.433777     8A    -11.322201     9A    -11.321784  
      10A    -11.321716    11A    -11.320977    12A    -11.320890  
      13A    -11.320684    14A    -11.320370    15A    -11.320342  
      16A    -11.320193    17A    -11.319985    18A    -11.319895  
      19A    -11.319603    20A    -11.319372    21A    -11.319304  
      22A    -11.319109    23A    -11.318987    24A    -11.318894  
      25A    -11.318794    26A    -11.318375    27A    -11.318332  
      28A    -11.318099    29A    -11.318070    30A    -11.317945  
      31A    -11.317927    32A    -11.316552    33A    -11.316544  
      34A    -11.316471    35A    -11.316460    36A    -11.316224  
      37A    -11.316218    38A    -11.316190    39A    -11.316177  
      40A    -11.316087    41A    -11.316058    42A    -11.315915  
      43A    -11.315874    44A    -11.314782    45A    -11.314774  
      46A    -11.314770    47A    -11.314760    48A    -11.314509  
      49A    -11.314504    50A    -11.314395    51A    -11.314390  
      52A    -11.314138    53A    -11.314130    54A    -11.314127  
      55A    -11.314119    56A    -11.313934    57A    -11.313924  
      58A    -11.313561    59A    -11.313557    60A    -11.313543  
      61A    -11.313538    62A    -11.313391    63A    -11.313382  
      64A    -11.313359    65A    -11.313354    66A    -11.313323  
      67A    -11.313313    68A    -11.313000    69A    -11.312973  
      70A    -11.312958    71A    -11.312946    72A    -11.312940  
      73A    -11.312938    74A    -11.312892    75A    -11.312886  
      76A    -11.312490    77A    -11.312490    78A    -11.312481  
      79A    -11.312480    80A    -11.306091    81A    -11.306067  
      82A    -11.306016    83A    -11.306016    84A    -11.305810  
      85A    -11.305789    86A    -11.305736    87A    -11.305733  
      88A    -11.305697    89A    -11.305642    90A    -11.305617  
      91A    -11.305563    92A    -11.304900    93A    -11.304887  
      94A    -11.304417    95A    -11.304403    96A    -11.304400  
      97A    -11.304399    98A    -11.303433    99A    -11.303419  
     100A    -11.302947   101A    -11.302932   102A    -11.302929  
     103A    -11.302928   104A     -1.563082   105A     -1.418544  
     106A     -1.310736   107A     -1.294389   108A     -1.294107  
     109A     -1.274794   110A     -1.274753   111A     -1.270887  
     112A     -1.254538   113A     -1.249515   114A     -1.243381  
     115A     -1.243135   116A     -1.227025   117A     -1.227000  
     118A     -1.223824   119A     -1.210405   120A     -1.210391  
     121A     -1.207668   122A     -1.197705   123A     -1.197689  
     124A     -1.182576   125A     -1.173853   126A     -1.169384  
     127A     -1.167318   128A     -1.167130   129A     -1.166039  
     130A     -1.164378   131A     -1.142332   132A     -1.142234  
     133A     -1.129729   134A     -1.129706   135A     -1.121958  
     136A     -1.121875   137A     -1.119615   138A     -1.103359  
     139A     -1.100339   140A     -1.100323   141A     -1.094032  
     142A     -1.091496   143A     -1.091439   144A     -1.080047  
     145A     -1.076949   146A     -1.076854   147A     -1.060959  
     148A     -1.060258   149A     -1.057214   150A     -1.054721  
     151A     -1.054653   152A     -1.043465   153A     -1.024918  
     154A     -1.024854   155A     -1.008905   156A     -1.008880  
     157A     -1.007720   158A     -0.981622   159A     -0.960820  
     160A     -0.960706   161A     -0.959881   162A     -0.957847  
     163A     -0.957778   164A     -0.947585   165A     -0.947457  
     166A     -0.944948   167A     -0.944831   168A     -0.943675  
     169A     -0.924937   170A     -0.920723   171A     -0.904703  
     172A     -0.902319   173A     -0.902156   174A     -0.901693  
     175A     -0.899997   176A     -0.897092   177A     -0.887935  
     178A     -0.887899   179A     -0.880437   180A     -0.880416  
     181A     -0.838937   182A     -0.838746   183A     -0.836328  
     184A     -0.836231   185A     -0.836193   186A     -0.835925  
     187A     -0.835819   188A     -0.835281   189A     -0.820725  
     190A     -0.815591   191A     -0.804582   192A     -0.801564  
     193A     -0.797360   194A     -0.786018   195A     -0.780719  
     196A     -0.780520   197A     -0.778684   198A     -0.778169  
     199A     -0.778024   200A     -0.775177   201A     -0.772865  
     202A     -0.770818   203A     -0.767951   204A     -0.767865  
     205A     -0.767396   206A     -0.752482   207A     -0.752438  
     208A     -0.740361   209A     -0.738889   210A     -0.738842  
     211A     -0.735412   212A     -0.735405   213A     -0.732240  
     214A     -0.713823   215A     -0.709996   216A     -0.706310  
     217A     -0.704048   218A     -0.703905   219A     -0.703892  
     220A     -0.703885   221A     -0.702357   222A     -0.701769  
     223A     -0.694965   224A     -0.694849   225A     -0.693164  
     226A     -0.692036   227A     -0.689706   228A     -0.689625  
     229A     -0.682496   230A     -0.675052   231A     -0.667709  
     232A     -0.667623   233A     -0.661998   234A     -0.661942  
     235A     -0.654763   236A     -0.654382   237A     -0.652676  
     238A     -0.652611   239A     -0.652576   240A     -0.651929  
     241A     -0.648386   242A     -0.648112   243A     -0.648038  
     244A     -0.647754   245A     -0.644922   246A     -0.644872  
     247A     -0.641996   248A     -0.630051   249A     -0.629987  
     250A     -0.629604   251A     -0.629510   252A     -0.626329  
     253A     -0.625368   254A     -0.622403   255A     -0.622372  
     256A     -0.619638   257A     -0.619508   258A     -0.612601  
     259A     -0.612399   260A     -0.612229   261A     -0.610529  
     262A     -0.607750   263A     -0.603947   264A     -0.598862  
     265A     -0.598127   266A     -0.590538   267A     -0.590200  
     268A     -0.586566   269A     -0.586473   270A     -0.582166  
     271A     -0.581261   272A     -0.580835   273A     -0.580795  
     274A     -0.570599   275A     -0.570396   276A     -0.568424  
     277A     -0.568407   278A     -0.562103   279A     -0.562095  
     280A     -0.551298   281A     -0.549920   282A     -0.549774  
     283A     -0.548680   284A     -0.548638   285A     -0.544690  
     286A     -0.533864   287A     -0.530141   288A     -0.530125  
     289A     -0.526888   290A     -0.523586   291A     -0.520051  
     292A     -0.519991   293A     -0.512791   294A     -0.509529  
     295A     -0.501640   296A     -0.501481   297A     -0.495899  
     298A     -0.495822   299A     -0.495569   300A     -0.487092  
     301A     -0.486482   302A     -0.461303   303A     -0.461196  
     304A     -0.441055   305A     -0.440941   306A     -0.438672  
     307A     -0.438089   308A     -0.438066   309A     -0.407925  
     310A     -0.407901   311A     -0.404335   312A     -0.394277  
     313A     -0.392243   314A     -0.392124   315A     -0.385126  
     316A     -0.384968   317A     -0.361940   318A     -0.356811  
     319A     -0.356717   320A     -0.353991   321A     -0.339383  
     322A     -0.308210   323A     -0.308056   324A     -0.307902  
     325A     -0.257662   326A     -0.257565  

    Virtual:                                                              

     327A     -0.064919   328A     -0.064664   329A     -0.053396  
     330A     -0.048995   331A     -0.041132   332A     -0.034105  
     333A     -0.019483   334A     -0.019309   335A     -0.019099  
     336A     -0.016634   337A     -0.015547   338A     -0.011769  
     339A     -0.010072   340A     -0.000446   341A      0.000842  
     342A      0.002231   343A      0.002999   344A      0.004695  
     345A      0.007182   346A      0.008499   347A      0.009898  
     348A      0.010347   349A      0.011021   350A      0.012713  
     351A      0.014023   352A      0.014701   353A      0.015725  
     354A      0.015862   355A      0.019575   356A      0.019669  
     357A      0.020379   358A      0.023754   359A      0.025414  
     360A      0.025690   361A      0.026401   362A      0.028025  
     363A      0.030893   364A      0.030932   365A      0.031051  
     366A      0.035711   367A      0.037664   368A      0.039354  
     369A      0.040123   370A      0.040836   371A      0.042045  
     372A      0.043709   373A      0.043983   374A      0.044844  
     375A      0.046914   376A      0.048736   377A      0.052927  
     378A      0.053249   379A      0.053514   380A      0.054086  
     381A      0.058200   382A      0.058233   383A      0.059978  
     384A      0.061262   385A      0.061457   386A      0.062427  
     387A      0.062437   388A      0.062694   389A      0.063149  
     390A      0.063199   391A      0.066331   392A      0.069042  
     393A      0.070680   394A      0.071149   395A      0.071201  
     396A      0.073644   397A      0.074289   398A      0.077329  
     399A      0.078176   400A      0.081004   401A      0.083386  
     402A      0.083587   403A      0.084279   404A      0.086942  
     405A      0.087108   406A      0.087606   407A      0.091900  
     408A      0.092060   409A      0.092582   410A      0.093639  
     411A      0.094142   412A      0.096653   413A      0.097111  
     414A      0.097327   415A      0.099405   416A      0.103608  
     417A      0.104116   418A      0.104554   419A      0.104770  
     420A      0.104936   421A      0.106083   422A      0.110751  
     423A      0.111872   424A      0.111898   425A      0.113725  
     426A      0.113995   427A      0.115191   428A      0.117644  
     429A      0.118143   430A      0.118622   431A      0.120927  
     432A      0.121238   433A      0.121318   434A      0.123712  
     435A      0.125838   436A      0.126235   437A      0.127066  
     438A      0.127453   439A      0.129468   440A      0.131732  
     441A      0.132167   442A      0.132618   443A      0.132769  
     444A      0.134406   445A      0.139036   446A      0.140519  
     447A      0.141778   448A      0.141860   449A      0.141978  
     450A      0.143906   451A      0.149382   452A      0.150433  
     453A      0.151552   454A      0.151972   455A      0.152201  
     456A      0.153359   457A      0.154050   458A      0.154412  
     459A      0.155061   460A      0.156387   461A      0.156958  
     462A      0.157309   463A      0.157666   464A      0.158758  
     465A      0.159039   466A      0.159368   467A      0.160238  
     468A      0.160808   469A      0.161476   470A      0.161549  
     471A      0.162472   472A      0.163742   473A      0.165522  
     474A      0.166358   475A      0.166870   476A      0.167570  
     477A      0.168692   478A      0.170112   479A      0.171395  
     480A      0.171969   481A      0.172809   482A      0.173086  
     483A      0.175771   484A      0.175927   485A      0.176327  
     486A      0.176426   487A      0.178390   488A      0.180777  
     489A      0.181128   490A      0.181191   491A      0.182358  
     492A      0.183231   493A      0.183775   494A      0.186214  
     495A      0.187767   496A      0.189623   497A      0.189722  
     498A      0.190298   499A      0.192203   500A      0.193241  
     501A      0.193831   502A      0.194203   503A      0.194912  
     504A      0.198059   505A      0.198259   506A      0.199011  
     507A      0.201602   508A      0.202272   509A      0.203151  
     510A      0.204884   511A      0.206088   512A      0.206379  
     513A      0.208508   514A      0.208746   515A      0.210620  
     516A      0.210896   517A      0.213956   518A      0.214420  
     519A      0.215859   520A      0.216269   521A      0.217160  
     522A      0.217945   523A      0.218169   524A      0.218778  
     525A      0.218936   526A      0.220066   527A      0.220943  
     528A      0.223842   529A      0.225578   530A      0.226922  
     531A      0.227275   532A      0.228095   533A      0.229070  
     534A      0.229175   535A      0.229649   536A      0.230437  
     537A      0.233476   538A      0.234609   539A      0.236976  
     540A      0.237033   541A      0.237119   542A      0.238275  
     543A      0.239100   544A      0.241002   545A      0.242012  
     546A      0.242676   547A      0.243104   548A      0.243999  
     549A      0.245225   550A      0.247295   551A      0.249230  
     552A      0.249765   553A      0.250463   554A      0.250768  
     555A      0.253691   556A      0.254241   557A      0.255271  
     558A      0.255542   559A      0.256002   560A      0.256918  
     561A      0.257096   562A      0.257742   563A      0.259599  
     564A      0.260138   565A      0.263614   566A      0.263729  
     567A      0.264494   568A      0.266111   569A      0.266647  
     570A      0.266816   571A      0.267889   572A      0.269367  
     573A      0.269801   574A      0.270008   575A      0.270126  
     576A      0.271123   577A      0.271982   578A      0.272838  
     579A      0.274185   580A      0.274373   581A      0.276694  
     582A      0.277244   583A      0.278399   584A      0.279407  
     585A      0.280778   586A      0.281314   587A      0.281642  
     588A      0.282111   589A      0.282807   590A      0.284749  
     591A      0.286384   592A      0.286950   593A      0.287685  
     594A      0.288461   595A      0.290741   596A      0.291198  
     597A      0.293454   598A      0.293879   599A      0.295249  
     600A      0.295922   601A      0.296028   602A      0.296686  
     603A      0.297700   604A      0.298182   605A      0.298407  
     606A      0.299638   607A      0.300737   608A      0.303143  
     609A      0.303942   610A      0.304096   611A      0.304742  
     612A      0.308618   613A      0.309333   614A      0.311693  
     615A      0.311810   616A      0.313788   617A      0.314432  
     618A      0.316547   619A      0.317417   620A      0.317491  
     621A      0.317939   622A      0.318651   623A      0.318898  
     624A      0.320315   625A      0.322481   626A      0.323832  
     627A      0.325898   628A      0.326704   629A      0.328306  
     630A      0.328447   631A      0.329479   632A      0.329568  
     633A      0.331327   634A      0.331477   635A      0.332224  
     636A      0.333286   637A      0.334215   638A      0.335346  
     639A      0.338106   640A      0.339595   641A      0.340891  
     642A      0.341730   643A      0.342902   644A      0.343518  
     645A      0.343542   646A      0.344095   647A      0.344726  
     648A      0.345229   649A      0.345649   650A      0.345975  
     651A      0.346793   652A      0.347255   653A      0.348742  
     654A      0.350030   655A      0.350589   656A      0.351404  
     657A      0.352570   658A      0.352815   659A      0.352960  
     660A      0.354049   661A      0.354904   662A      0.356018  
     663A      0.357207   664A      0.357705   665A      0.358291  
     666A      0.360019   667A      0.360126   668A      0.361048  
     669A      0.361425   670A      0.363368   671A      0.363561  
     672A      0.364181   673A      0.364316   674A      0.364372  
     675A      0.366029   676A      0.367669   677A      0.368581  
     678A      0.370698   679A      0.371717   680A      0.372986  
     681A      0.375230   682A      0.375564   683A      0.376334  
     684A      0.377319   685A      0.378103   686A      0.378260  
     687A      0.378387   688A      0.378946   689A      0.380352  
     690A      0.381027   691A      0.381146   692A      0.382613  
     693A      0.384998   694A      0.386169   695A      0.386443  
     696A      0.387508   697A      0.387895   698A      0.388650  
     699A      0.389319   700A      0.393462   701A      0.397953  
     702A      0.398525   703A      0.399142   704A      0.400035  
     705A      0.400759   706A      0.401158   707A      0.401474  
     708A      0.401974   709A      0.403998   710A      0.404092  
     711A      0.405048   712A      0.405699   713A      0.406099  
     714A      0.406673   715A      0.410431   716A      0.410573  
     717A      0.411191   718A      0.411685   719A      0.412951  
     720A      0.414151   721A      0.414810   722A      0.415781  
     723A      0.416631   724A      0.417435   725A      0.418845  
     726A      0.419095   727A      0.421232   728A      0.422524  
     729A      0.423029   730A      0.423152   731A      0.424368  
     732A      0.424966   733A      0.425293   734A      0.425633  
     735A      0.426307   736A      0.427658   737A      0.428002  
     738A      0.431128   739A      0.433128   740A      0.434282  
     741A      0.435405   742A      0.436532   743A      0.437741  
     744A      0.438524   745A      0.439732   746A      0.440200  
     747A      0.441714   748A      0.442915   749A      0.444863  
     750A      0.445432   751A      0.449907   752A      0.451317  
     753A      0.451866   754A      0.452051   755A      0.452366  
     756A      0.453920   757A      0.455038   758A      0.455861  
     759A      0.457739   760A      0.458380   761A      0.462079  
     762A      0.463382   763A      0.463490   764A      0.464330  
     765A      0.464553   766A      0.464821   767A      0.466221  
     768A      0.467649   769A      0.468909   770A      0.469354  
     771A      0.472082   772A      0.472622   773A      0.472908  
     774A      0.478207   775A      0.478410   776A      0.480706  
     777A      0.480871   778A      0.482929   779A      0.486455  
     780A      0.486482   781A      0.487962   782A      0.488094  
     783A      0.489480   784A      0.491813   785A      0.494733  
     786A      0.495660   787A      0.502957   788A      0.505112  
     789A      0.506158   790A      0.508015   791A      0.509263  
     792A      0.509671   793A      0.511552   794A      0.514096  
     795A      0.515656   796A      0.515682   797A      0.517714  
     798A      0.518001   799A      0.519653   800A      0.520512  
     801A      0.522958   802A      0.523215   803A      0.523439  
     804A      0.524837   805A      0.525060   806A      0.526119  
     807A      0.527084   808A      0.530198   809A      0.530889  
     810A      0.533013   811A      0.534796   812A      0.537004  
     813A      0.537518   814A      0.538607   815A      0.540486  
     816A      0.540737   817A      0.544840   818A      0.544946  
     819A      0.546359   820A      0.548703   821A      0.550772  
     822A      0.551342   823A      0.552688   824A      0.553471  
     825A      0.557916   826A      0.564283   827A      0.566170  
     828A      0.566600   829A      0.567691   830A      0.567898  
     831A      0.573492   832A      0.577157   833A      0.577673  
     834A      0.578919   835A      0.581606   836A      0.586256  
     837A      0.586831   838A      0.591771   839A      0.593609  
     840A      0.594456   841A      0.601612   842A      0.602108  
     843A      0.604116   844A      0.605805   845A      0.606611  
     846A      0.607087   847A      0.607365   848A      0.612532  
     849A      0.614212   850A      0.614540   851A      0.619321  
     852A      0.627161   853A      0.631651   854A      0.632358  
     855A      0.634143   856A      0.634213   857A      0.636349  
     858A      0.637120   859A      0.638647   860A      0.638888  
     861A      0.639610   862A      0.645220   863A      0.645245  
     864A      0.647337   865A      0.647623   866A      0.648902  
     867A      0.652155   868A      0.653665   869A      0.654724  
     870A      0.658253   871A      0.666257   872A      0.668180  
     873A      0.671885   874A      0.673681   875A      0.678800  
     876A      0.681502   877A      0.683193   878A      0.687089  
     879A      0.688464   880A      0.688809   881A      0.688987  
     882A      0.691914   883A      0.692442   884A      0.695253  
     885A      0.697351   886A      0.697618   887A      0.701272  
     888A      0.703118   889A      0.709038   890A      0.714902  
     891A      0.718836   892A      0.721696   893A      0.730961  
     894A      0.731681   895A      0.732881   896A      0.735891  
     897A      0.736519   898A      0.740019   899A      0.740373  
     900A      0.741737   901A      0.743150   902A      0.747275  
     903A      0.748975   904A      0.750894   905A      0.752760  
     906A      0.754199   907A      0.755849   908A      0.757936  
     909A      0.759037   910A      0.760806   911A      0.763315  
     912A      0.764594   913A      0.766022   914A      0.766413  
     915A      0.767032   916A      0.768743   917A      0.773586  
     918A      0.775562   919A      0.776295   920A      0.777765  
     921A      0.781344   922A      0.781681   923A      0.783146  
     924A      0.783897   925A      0.785609   926A      0.786970  
     927A      0.788549   928A      0.791488   929A      0.793745  
     930A      0.794905   931A      0.795609   932A      0.796014  
     933A      0.801379   934A      0.803605   935A      0.804489  
     936A      0.807713   937A      0.808566   938A      0.809195  
     939A      0.810867   940A      0.812512   941A      0.814024  
     942A      0.815258   943A      0.817147   944A      0.817651  
     945A      0.818141   946A      0.819194   947A      0.819860  
     948A      0.822975   949A      0.823910   950A      0.825171  
     951A      0.826663   952A      0.827198   953A      0.827566  
     954A      0.831095   955A      0.834014   956A      0.837084  
     957A      0.837502   958A      0.837924   959A      0.839562  
     960A      0.840227   961A      0.843598   962A      0.845035  
     963A      0.845948   964A      0.847749   965A      0.849100  
     966A      0.850445   967A      0.854572   968A      0.855104  
     969A      0.856691   970A      0.858295   971A      0.862116  
     972A      0.862668   973A      0.865096   974A      0.866555  
     975A      0.867220   976A      0.868410   977A      0.869038  
     978A      0.869873   979A      0.870378   980A      0.870486  
     981A      0.874661   982A      0.874905   983A      0.875926  
     984A      0.876626   985A      0.879009   986A      0.881087  
     987A      0.881608   988A      0.883516   989A      0.886080  
     990A      0.886793   991A      0.888048   992A      0.890302  
     993A      0.892091   994A      0.894615   995A      0.896317  
     996A      0.898060   997A      0.898424   998A      0.898617  
     999A      0.900047  1000A      0.901083  1001A      0.901423  
    1002A      0.901803  1003A      0.904728  1004A      0.904891  
    1005A      0.905052  1006A      0.905648  1007A      0.913420  
    1008A      0.913606  1009A      0.916037  1010A      0.916414  
    1011A      0.917816  1012A      0.920997  1013A      0.921879  
    1014A      0.927870  1015A      0.930091  1016A      0.930495  
    1017A      0.933186  1018A      0.934926  1019A      0.941421  
    1020A      0.941677  1021A      0.941844  1022A      0.942108  
    1023A      0.948354  1024A      0.948621  1025A      0.950494  
    1026A      0.952242  1027A      0.952418  1028A      0.953217  
    1029A      0.953822  1030A      0.957733  1031A      0.960490  
    1032A      0.962640  1033A      0.963610  1034A      0.967103  
    1035A      0.967228  1036A      0.968176  1037A      0.968663  
    1038A      0.970725  1039A      0.972041  1040A      0.976589  
    1041A      0.978465  1042A      0.979410  1043A      0.979813  
    1044A      0.981192  1045A      0.982991  1046A      0.983886  
    1047A      0.984930  1048A      0.991594  1049A      0.992396  
    1050A      0.993731  1051A      0.994037  1052A      0.994553  
    1053A      0.994659  1054A      0.995779  1055A      0.996677  
    1056A      0.998370  1057A      0.998665  1058A      0.999892  
    1059A      1.000102  1060A      1.000360  1061A      1.000967  
    1062A      1.002412  1063A      1.008309  1064A      1.008685  
    1065A      1.010158  1066A      1.011464  1067A      1.013469  
    1068A      1.013921  1069A      1.014843  1070A      1.015337  
    1071A      1.015733  1072A      1.016692  1073A      1.016840  
    1074A      1.017083  1075A      1.017819  1076A      1.018666  
    1077A      1.019862  1078A      1.020614  1079A      1.021116  
    1080A      1.021268  1081A      1.022489  1082A      1.023205  
    1083A      1.024108  1084A      1.024716  1085A      1.025356  
    1086A      1.025979  1087A      1.026480  1088A      1.027487  
    1089A      1.027985  1090A      1.028254  1091A      1.028741  
    1092A      1.029192  1093A      1.029672  1094A      1.031054  
    1095A      1.033722  1096A      1.034383  1097A      1.034645  
    1098A      1.035545  1099A      1.036563  1100A      1.036841  
    1101A      1.037831  1102A      1.038211  1103A      1.041357  
    1104A      1.043852  1105A      1.044146  1106A      1.044729  
    1107A      1.047391  1108A      1.047919  1109A      1.048225  
    1110A      1.049138  1111A      1.050479  1112A      1.051324  
    1113A      1.053013  1114A      1.058036  1115A      1.058259  
    1116A      1.059945  1117A      1.061538  1118A      1.066573  
    1119A      1.067115  1120A      1.068226  1121A      1.068471  
    1122A      1.074665  1123A      1.075417  1124A      1.076862  
    1125A      1.079626  1126A      1.080297  1127A      1.080843  
    1128A      1.080989  1129A      1.081343  1130A      1.084330  
    1131A      1.084585  1132A      1.085943  1133A      1.090166  
    1134A      1.091491  1135A      1.091893  1136A      1.092677  
    1137A      1.095132  1138A      1.096695  1139A      1.097929  
    1140A      1.098448  1141A      1.100177  1142A      1.102596  
    1143A      1.104161  1144A      1.104362  1145A      1.106133  
    1146A      1.109485  1147A      1.109782  1148A      1.114480  
    1149A      1.116167  1150A      1.117017  1151A      1.118713  
    1152A      1.122564  1153A      1.122938  1154A      1.127114  
    1155A      1.130730  1156A      1.132578  1157A      1.133054  
    1158A      1.135215  1159A      1.136581  1160A      1.138589  
    1161A      1.139703  1162A      1.140533  1163A      1.144457  
    1164A      1.148810  1165A      1.149352  1166A      1.149591  
    1167A      1.152078  1168A      1.152445  1169A      1.153587  
    1170A      1.158226  1171A      1.159818  1172A      1.160629  
    1173A      1.162655  1174A      1.164197  1175A      1.165773  
    1176A      1.166349  1177A      1.167578  1178A      1.170661  
    1179A      1.171881  1180A      1.173648  1181A      1.175389  
    1182A      1.180647  1183A      1.181189  1184A      1.188273  
    1185A      1.194120  1186A      1.194197  1187A      1.196080  
    1188A      1.199569  1189A      1.200362  1190A      1.203235  
    1191A      1.209300  1192A      1.209494  1193A      1.209655  
    1194A      1.211398  1195A      1.217956  1196A      1.218721  
    1197A      1.219510  1198A      1.220237  1199A      1.226407  
    1200A      1.233146  1201A      1.233463  1202A      1.237796  
    1203A      1.238291  1204A      1.238585  1205A      1.241806  
    1206A      1.242270  1207A      1.243596  1208A      1.244629  
    1209A      1.250791  1210A      1.251177  1211A      1.253433  
    1212A      1.253501  1213A      1.255125  1214A      1.259184  
    1215A      1.260075  1216A      1.261443  1217A      1.261947  
    1218A      1.267336  1219A      1.267618  1220A      1.267751  
    1221A      1.268255  1222A      1.269892  1223A      1.273998  
    1224A      1.274414  1225A      1.278624  1226A      1.278999  
    1227A      1.281122  1228A      1.282858  1229A      1.283147  
    1230A      1.287091  1231A      1.287363  1232A      1.289990  
    1233A      1.292610  1234A      1.293891  1235A      1.298537  
    1236A      1.300258  1237A      1.302564  1238A      1.303087  
    1239A      1.304714  1240A      1.306441  1241A      1.308941  
    1242A      1.310175  1243A      1.311362  1244A      1.313093  
    1245A      1.314820  1246A      1.319009  1247A      1.319185  
    1248A      1.321498  1249A      1.321621  1250A      1.323517  
    1251A      1.333771  1252A      1.335656  1253A      1.337494  
    1254A      1.341101  1255A      1.342770  1256A      1.342919  
    1257A      1.343290  1258A      1.348016  1259A      1.352571  
    1260A      1.353478  1261A      1.354741  1262A      1.355065  
    1263A      1.355469  1264A      1.357586  1265A      1.358921  
    1266A      1.359197  1267A      1.362012  1268A      1.363046  
    1269A      1.365558  1270A      1.368748  1271A      1.372000  
    1272A      1.373839  1273A      1.374606  1274A      1.374851  
    1275A      1.375143  1276A      1.377144  1277A      1.377509  
    1278A      1.381378  1279A      1.381813  1280A      1.383786  
    1281A      1.384981  1282A      1.385441  1283A      1.387066  
    1284A      1.388718  1285A      1.390910  1286A      1.393429  
    1287A      1.394081  1288A      1.396037  1289A      1.396936  
    1290A      1.397213  1291A      1.399382  1292A      1.407178  
    1293A      1.410284  1294A      1.413133  1295A      1.416329  
    1296A      1.416796  1297A      1.417299  1298A      1.419240  
    1299A      1.419743  1300A      1.425612  1301A      1.430989  
    1302A      1.431430  1303A      1.432385  1304A      1.437815  
    1305A      1.441791  1306A      1.442726  1307A      1.444158  
    1308A      1.448526  1309A      1.450958  1310A      1.452502  
    1311A      1.452713  1312A      1.464102  1313A      1.465117  
    1314A      1.484864  1315A      1.486041  1316A      1.487311  
    1317A      1.487924  1318A      1.490662  1319A      1.495946  
    1320A      1.499446  1321A      1.499541  1322A      1.521487  
    1323A      1.529567  1324A      1.536321  1325A      1.539347  
    1326A      1.541889  1327A      1.545501  1328A      1.548722  
    1329A      1.549204  1330A      1.550442  1331A      1.552234  
    1332A      1.552764  1333A      1.554193  1334A      1.556833  
    1335A      1.557201  1336A      1.557492  1337A      1.560334  
    1338A      1.560433  1339A      1.560999  1340A      1.561754  
    1341A      1.562426  1342A      1.565410  1343A      1.566973  
    1344A      1.567666  1345A      1.570654  1346A      1.572765  
    1347A      1.573429  1348A      1.573826  1349A      1.576552  
    1350A      1.577197  1351A      1.581177  1352A      1.581726  
    1353A      1.581863  1354A      1.583058  1355A      1.584179  
    1356A      1.584491  1357A      1.584928  1358A      1.585822  
    1359A      1.586130  1360A      1.587659  1361A      1.589826  
    1362A      1.591127  1363A      1.592034  1364A      1.597685  
    1365A      1.598956  1366A      1.599113  1367A      1.602993  
    1368A      1.603121  1369A      1.604100  1370A      1.610787  
    1371A      1.611199  1372A      1.613977  1373A      1.614121  
    1374A      1.614677  1375A      1.615457  1376A      1.615505  
    1377A      1.616971  1378A      1.623254  1379A      1.623540  
    1380A      1.624244  1381A      1.624431  1382A      1.625242  
    1383A      1.634613  1384A      1.635609  1385A      1.637231  
    1386A      1.639582  1387A      1.642167  1388A      1.642574  
    1389A      1.643286  1390A      1.644290  1391A      1.646301  
    1392A      1.655971  1393A      1.656254  1394A      1.656515  
    1395A      1.661066  1396A      1.662741  1397A      1.662993  
    1398A      1.665722  1399A      1.667309  1400A      1.668373  
    1401A      1.668541  1402A      1.671105  1403A      1.672046  
    1404A      1.681705  1405A      1.684353  1406A      1.684943  
    1407A      1.687466  1408A      1.692355  1409A      1.694398  
    1410A      1.694456  1411A      1.696846  1412A      1.697660  
    1413A      1.700332  1414A      1.710003  1415A      1.711896  
    1416A      1.715112  1417A      1.720337  1418A      1.726630  
    1419A      1.734028  1420A      1.734609  1421A      1.735142  
    1422A      1.748095  1423A      1.748280  1424A      1.752259  
    1425A      1.755576  1426A      1.764796  1427A      1.766261  
    1428A      1.768134  1429A      1.768774  1430A      1.770870  
    1431A      1.773261  1432A      1.774504  1433A      1.774833  
    1434A      1.775776  1435A      1.776868  1436A      1.778214  
    1437A      1.779554  1438A      1.779937  1439A      1.783216  
    1440A      1.783396  1441A      1.784000  1442A      1.784328  
    1443A      1.789908  1444A      1.791418  1445A      1.803428  
    1446A      1.803934  1447A      1.806466  1448A      1.806748  
    1449A      1.807094  1450A      1.809323  1451A      1.809500  
    1452A      1.812173  1453A      1.812666  1454A      1.816897  
    1455A      1.817475  1456A      1.820093  1457A      1.820552  
    1458A      1.822593  1459A      1.827791  1460A      1.828627  
    1461A      1.829091  1462A      1.829552  1463A      1.830035  
    1464A      1.830537  1465A      1.831242  1466A      1.831957  
    1467A      1.832854  1468A      1.833334  1469A      1.835632  
    1470A      1.836044  1471A      1.838197  1472A      1.849903  
    1473A      1.850058  1474A      1.853080  1475A      1.853117  
    1476A      1.857923  1477A      1.861507  1478A      1.861622  
    1479A      1.863267  1480A      1.864292  1481A      1.867333  
    1482A      1.868318  1483A      1.868539  1484A      1.870937  
    1485A      1.871391  1486A      1.872047  1487A      1.877803  
    1488A      1.878834  1489A      1.883360  1490A      1.884277  
    1491A      1.885404  1492A      1.886406  1493A      1.886846  
    1494A      1.887334  1495A      1.888535  1496A      1.889210  
    1497A      1.890632  1498A      1.891495  1499A      1.893661  
    1500A      1.898955  1501A      1.899687  1502A      1.901708  
    1503A      1.904878  1504A      1.905807  1505A      1.907466  
    1506A      1.907750  1507A      1.908147  1508A      1.913172  
    1509A      1.914925  1510A      1.915915  1511A      1.916403  
    1512A      1.917974  1513A      1.918708  1514A      1.918940  
    1515A      1.919954  1516A      1.926947  1517A      1.928747  
    1518A      1.931287  1519A      1.936877  1520A      1.939040  
    1521A      1.939145  1522A      1.940292  1523A      1.941090  
    1524A      1.941654  1525A      1.953760  1526A      1.954108  
    1527A      1.956990  1528A      1.958070  1529A      1.959161  
    1530A      1.962684  1531A      1.962839  1532A      1.963620  
    1533A      1.964189  1534A      1.965874  1535A      1.966188  
    1536A      1.966562  1537A      1.967901  1538A      1.970578  
    1539A      1.971294  1540A      1.975110  1541A      1.977095  
    1542A      1.979921  1543A      1.980126  1544A      1.982150  
    1545A      1.986166  1546A      1.987708  1547A      1.988782  
    1548A      1.990066  1549A      1.993677  1550A      1.996316  
    1551A      1.998865  1552A      1.999888  1553A      2.002139  
    1554A      2.002816  1555A      2.005218  1556A      2.005899  
    1557A      2.006793  1558A      2.007031  1559A      2.012983  
    1560A      2.015363  1561A      2.015729  1562A      2.017355  
    1563A      2.021637  1564A      2.025054  1565A      2.025343  
    1566A      2.026210  1567A      2.027327  1568A      2.027652  
    1569A      2.028989  1570A      2.029536  1571A      2.030085  
    1572A      2.031158  1573A      2.033231  1574A      2.035251  
    1575A      2.036007  1576A      2.036493  1577A      2.037869  
    1578A      2.038328  1579A      2.039172  1580A      2.040460  
    1581A      2.041354  1582A      2.043255  1583A      2.044004  
    1584A      2.044579  1585A      2.045138  1586A      2.048218  
    1587A      2.048529  1588A      2.050485  1589A      2.053253  
    1590A      2.056254  1591A      2.057928  1592A      2.058800  
    1593A      2.059361  1594A      2.059826  1595A      2.060818  
    1596A      2.061809  1597A      2.063988  1598A      2.064972  
    1599A      2.066467  1600A      2.072645  1601A      2.073482  
    1602A      2.073797  1603A      2.074118  1604A      2.074494  
    1605A      2.075382  1606A      2.076034  1607A      2.077455  
    1608A      2.080541  1609A      2.082671  1610A      2.083204  
    1611A      2.085273  1612A      2.086432  1613A      2.088435  
    1614A      2.088811  1615A      2.091032  1616A      2.092077  
    1617A      2.092438  1618A      2.101122  1619A      2.101309  
    1620A      2.103366  1621A      2.103421  1622A      2.104778  
    1623A      2.105833  1624A      2.106130  1625A      2.106912  
    1626A      2.110597  1627A      2.111130  1628A      2.117950  
    1629A      2.118107  1630A      2.118768  1631A      2.126610  
    1632A      2.127987  1633A      2.128098  1634A      2.129362  
    1635A      2.134934  1636A      2.135047  1637A      2.136297  
    1638A      2.136614  1639A      2.138633  1640A      2.139798  
    1641A      2.142831  1642A      2.143366  1643A      2.145000  
    1644A      2.145630  1645A      2.147574  1646A      2.148100  
    1647A      2.149875  1648A      2.151000  1649A      2.153020  
    1650A      2.154202  1651A      2.156275  1652A      2.160423  
    1653A      2.160721  1654A      2.166058  1655A      2.166655  
    1656A      2.169779  1657A      2.170075  1658A      2.170756  
    1659A      2.170994  1660A      2.172420  1661A      2.175561  
    1662A      2.177098  1663A      2.179446  1664A      2.181261  
    1665A      2.181991  1666A      2.182863  1667A      2.184610  
    1668A      2.184775  1669A      2.188972  1670A      2.192399  
    1671A      2.194133  1672A      2.195948  1673A      2.196640  
    1674A      2.209301  1675A      2.210911  1676A      2.211497  
    1677A      2.213067  1678A      2.214392  1679A      2.214489  
    1680A      2.218802  1681A      2.221024  1682A      2.230041  
    1683A      2.231178  1684A      2.238174  1685A      2.239051  
    1686A      2.240353  1687A      2.242324  1688A      2.244375  
    1689A      2.251128  1690A      2.251519  1691A      2.255902  
    1692A      2.260673  1693A      2.266754  1694A      2.269933  
    1695A      2.272011  1696A      2.272111  1697A      2.273787  
    1698A      2.275752  1699A      2.277728  1700A      2.278118  
    1701A      2.278770  1702A      2.280037  1703A      2.281544  
    1704A      2.285239  1705A      2.288157  1706A      2.288715  
    1707A      2.289146  1708A      2.291079  1709A      2.291617  
    1710A      2.292314  1711A      2.294597  1712A      2.295024  
    1713A      2.311262  1714A      2.312313  1715A      2.316785  
    1716A      2.317469  1717A      2.331019  1718A      2.334625  
    1719A      2.335957  1720A      2.337388  1721A      2.338692  
    1722A      2.342524  1723A      2.345038  1724A      2.353568  
    1725A      2.365227  1726A      2.366281  1727A      2.369751  
    1728A      2.374361  1729A      2.377755  1730A      2.388104  
    1731A      2.390385  1732A      2.398218  1733A      2.399091  
    1734A      2.411283  1735A      2.411423  1736A      2.414806  
    1737A      2.414942  1738A      2.419123  1739A      2.419465  
    1740A      2.438767  1741A      2.439414  1742A      2.440745  
    1743A      2.449518  1744A      2.454434  1745A      2.455293  
    1746A      2.459056  1747A      2.460456  1748A      2.464214  
    1749A      2.478942  1750A      2.485226  1751A      2.485674  
    1752A      2.487374  1753A      2.489170  1754A      2.490070  
    1755A      2.491096  1756A      2.494539  1757A      2.495972  
    1758A      2.497354  1759A      2.498541  1760A      2.501646  
    1761A      2.501932  1762A      2.510743  1763A      2.512104  
    1764A      2.518157  1765A      2.520222  1766A      2.528690  
    1767A      2.532358  1768A      2.532771  1769A      2.533131  
    1770A      2.533646  1771A      2.537491  1772A      2.537859  
    1773A      2.540257  1774A      2.542849  1775A      2.548789  
    1776A      2.548831  1777A      2.559940  1778A      2.560371  
    1779A      2.560623  1780A      2.561079  1781A      2.564712  
    1782A      2.564858  1783A      2.579440  1784A      2.587057  
    1785A      2.588067  1786A      2.589179  1787A      2.590442  
    1788A      2.591959  1789A      2.594622  1790A      2.595534  
    1791A      2.595883  1792A      2.601158  1793A      2.603651  
    1794A      2.604025  1795A      2.611070  1796A      2.612184  
    1797A      2.615776  1798A      2.618388  1799A      2.618666  
    1800A      2.619215  1801A      2.620229  1802A      2.625021  
    1803A      2.625917  1804A      2.631499  1805A      2.632013  
    1806A      2.633685  1807A      2.637688  1808A      2.637868  
    1809A      2.638246  1810A      2.639240  1811A      2.642559  
    1812A      2.643977  1813A      2.649482  1814A      2.655049  
    1815A      2.668660  1816A      2.675888  1817A      2.677592  
    1818A      2.678627  1819A      2.679183  1820A      2.679760  
    1821A      2.680141  1822A      2.697092  1823A      2.698889  
    1824A      2.700005  1825A      2.704985  1826A      2.705983  
    1827A      2.706452  1828A      2.717782  1829A      2.720684  
    1830A      2.721437  1831A      2.725412  1832A      2.727331  
    1833A      2.744395  1834A      2.745284  1835A      2.746699  
    1836A      2.747695  1837A      2.747954  1838A      2.750170  
    1839A      2.755507  1840A      2.756215  1841A      2.760190  
    1842A      2.760522  1843A      2.762248  1844A      2.762401  
    1845A      2.763541  1846A      2.773148  1847A      2.773301  
    1848A      2.786257  1849A      2.787813  1850A      2.788405  
    1851A      2.788693  1852A      2.792234  1853A      2.808918  
    1854A      2.810965  1855A      2.811182  1856A      2.814981  
    1857A      2.817364  1858A      2.818668  1859A      2.821384  
    1860A      2.840003  1861A      2.840922  1862A      2.858793  
    1863A      2.866009  1864A      2.866369  1865A      2.875864  
    1866A      2.878118  1867A      2.882832  1868A      2.882964  
    1869A      2.910676  1870A      2.912802  1871A      2.913291  
    1872A      2.924034  1873A      2.929636  1874A      2.939536  
    1875A      2.940297  1876A      2.975532  1877A      2.976401  
    1878A      2.983180  1879A      2.986135  1880A      2.989739  
    1881A      2.993439  1882A      2.994433  1883A      2.996160  
    1884A      3.003582  1885A      3.003937  1886A      3.013182  
    1887A      3.019543  1888A      3.056858  1889A      3.060274  
    1890A      3.061189  1891A      3.061815  1892A      3.069755  
    1893A      3.073265  1894A      3.074107  1895A      3.077860  
    1896A      3.079370  1897A      3.081485  1898A      3.089861  
    1899A      3.091085  1900A      3.094704  1901A      3.095624  
    1902A      3.097264  1903A      3.098099  1904A      3.101913  
    1905A      3.110793  1906A      3.112876  1907A      3.121466  
    1908A      3.123328  1909A      3.123492  1910A      3.141188  
    1911A      3.141982  1912A      3.168639  1913A      3.200036  
    1914A      3.206995  1915A      3.207657  1916A      3.208129  
    1917A      3.209372  1918A      3.211564  1919A      3.215460  
    1920A      3.218587  1921A      3.222231  1922A      3.222607  
    1923A      3.240137  1924A      3.242399  1925A      3.244063  
    1926A      3.249989  1927A      3.306791  1928A      3.307864  
    1929A      3.315292  1930A      3.361175  1931A      3.374778  
    1932A      3.376691  1933A      3.379269  1934A      3.390297  
    1935A      3.394406  1936A      3.405767  1937A      3.409417  
    1938A      3.410430  1939A      3.416244  1940A      3.419286  
    1941A      3.426599  1942A      3.430772  1943A      3.438533  
    1944A      3.452146  1945A      3.454394  1946A      3.484131  
    1947A      3.519806  1948A      3.521505  1949A      3.529218  
    1950A      3.536831  1951A      3.541303  1952A      3.585391  
    1953A      3.587069  1954A      3.610797  1955A      3.613051  
    1956A      3.650663  1957A      3.692556  1958A      3.696115  
    1959A      3.696772  1960A      3.707862  1961A      3.724586  
    1962A      3.725830  1963A      3.789004  1964A      3.789829  
    1965A      3.818228  1966A      3.821130  1967A      3.850870  
    1968A      3.858733  1969A      3.882364  1970A      3.884555  
    1971A      3.894520  1972A      3.895761  1973A      3.903961  
    1974A      3.908798  1975A      3.916053  1976A      3.969608  
    1977A      3.972097  1978A      4.015175  1979A      4.171996  
    1980A      4.244448  1981A      4.335915  

    Final Occupation by Irrep:
              A 
    DOCC [   326 ]
    NA   [   326 ]
    NB   [   326 ]

  @DF-RHF Final Energy: -3953.64768604451456

   => Energetics <=

    Nuclear Repulsion Energy =          17733.6608170023246203
    One-Electron Energy =              -40678.4729760996997356
    Two-Electron Energy =               18991.1644730528605578
    Total Energy =                      -3953.6476860445145576

Computation Completed


Properties will be evaluated at   0.000000,   0.000000,   0.000000 [a0]

Properties computed using the SCF density matrix


 Multipole Moments:

 ------------------------------------------------------------------------------------
     Multipole            Electronic (a.u.)      Nuclear  (a.u.)        Total (a.u.)
 ------------------------------------------------------------------------------------

 L = 1.  Multiply by 2.5417464519 to convert [e a0] to [Debye]
 Dipole X            :         -0.0022497            0.0004804           -0.0017693
 Dipole Y            :         -0.0495423            0.0561130            0.0065707
 Dipole Z            :         29.9730080          -40.6262058          -10.6531978
 Magnitude           :                                                   10.6532000

 ------------------------------------------------------------------------------------

*** tstop() called on n2cn0973 at Sat Jan 27 01:41:08 2024
Module time:
	user time   =   27041.60 seconds =     450.69 minutes
	system time =    2033.13 seconds =      33.89 minutes
	total time  =       5300 seconds =      88.33 minutes
Total time:
	user time   =   27041.60 seconds =     450.69 minutes
	system time =    2033.13 seconds =      33.89 minutes
	total time  =       5300 seconds =      88.33 minutes

  //>>>>>>>>>>>>>>>>>>>>>>>>>>>>>>>>>>>//
  //            Monomer A HF           //
  //<<<<<<<<<<<<<<<<<<<<<<<<<<<<<<<<<<<//

   => Libint2 <=

    Primary   basis highest AM E, G, H:  5, 4, 3
    Auxiliary basis highest AM E, G, H:  6, 5, 4
    Onebody   basis highest AM E, G, H:  6, 5, 4
    Solid Harmonics ordering:            gaussian

*** tstart() called on n2cn0973
*** at Sat Jan 27 01:41:08 2024

   => Loading Basis Set <=

    Name: JUN-CC-PVDZ
    Role: ORBITAL
    Keyword: BASIS
    atoms 1-2, 4-5, 10, 17-34, 41-53, 56-70, 73-89, 92-104, 109-119, 122-130 entry C          line   164 file /opt/software/pc2/EB-SW/software/PSI4/1.9-foss-2022a/share/psi4/basis/jun-cc-pvdz.gbs 
    atoms 3, 6                                                               entry N          line   198 file /opt/software/pc2/EB-SW/software/PSI4/1.9-foss-2022a/share/psi4/basis/jun-cc-pvdz.gbs 
    atoms 7-9, 11-16, 35-40, 54-55, 71-72, 90-91, 105-108, 120-121, 131-136  entry H          line    36 file /opt/software/pc2/EB-SW/software/PSI4/1.9-foss-2022a/share/psi4/basis/jun-cc-pvdz.gbs 


         ---------------------------------------------------------
                                   SCF
               by Justin Turney, Rob Parrish, Andy Simmonett
                          and Daniel G. A. Smith
                              RHF Reference
                       16 Threads,  61035 MiB Core
         ---------------------------------------------------------

  ==> Geometry <==

    Molecular point group: c1
    Full point group: C1

    Geometry (in Angstrom), charge = 1, multiplicity = 1:

       Center              X                  Y                   Z               Mass       
    ------------   -----------------  -----------------  -----------------  -----------------
         C            0.680062820275    -0.008027535675    -7.682238848697    12.000000000000
         C           -0.680508179725    -0.005999535675    -7.681854848697    12.000000000000
         N           -1.085639179725    -0.005001535675    -6.363530848697    14.003074004430
         C            0.000103820275    -0.001725535675    -5.582129848697    12.000000000000
[...]
    1579A      2.162503  1580A      2.164969  1581A      2.171361  
    1582A      2.171782  1583A      2.179495  1584A      2.180751  
    1585A      2.181234  1586A      2.182473  1587A      2.187580  
    1588A      2.188600  1589A      2.189789  1590A      2.191184  
    1591A      2.191577  1592A      2.193161  1593A      2.194699  
    1594A      2.195632  1595A      2.197225  1596A      2.198220  
    1597A      2.200498  1598A      2.200630  1599A      2.200964  
    1600A      2.201432  1601A      2.204297  1602A      2.205376  
    1603A      2.205651  1604A      2.208905  1605A      2.210106  
    1606A      2.213838  1607A      2.214318  1608A      2.220161  
    1609A      2.220729  1610A      2.222578  1611A      2.222858  
    1612A      2.224551  1613A      2.224807  1614A      2.224982  
    1615A      2.228841  1616A      2.232085  1617A      2.232344  
    1618A      2.233646  1619A      2.238825  1620A      2.239033  
    1621A      2.239798  1622A      2.241449  1623A      2.247503  
    1624A      2.247733  1625A      2.248317  1626A      2.249328  
    1627A      2.252930  1628A      2.260571  1629A      2.261687  
    1630A      2.263458  1631A      2.265027  1632A      2.266612  
    1633A      2.269574  1634A      2.274609  1635A      2.275766  
    1636A      2.282877  1637A      2.284273  1638A      2.284963  
    1639A      2.290469  1640A      2.291018  1641A      2.296328  
    1642A      2.296849  1643A      2.303829  1644A      2.304163  
    1645A      2.307525  1646A      2.309159  1647A      2.315806  
    1648A      2.324667  1649A      2.324950  1650A      2.325241  
    1651A      2.327171  1652A      2.329449  1653A      2.329710  
    1654A      2.330618  1655A      2.331173  1656A      2.333035  
    1657A      2.334400  1658A      2.335339  1659A      2.339916  
    1660A      2.341395  1661A      2.342180  1662A      2.342333  
    1663A      2.344921  1664A      2.345817  1665A      2.346349  
    1666A      2.349084  1667A      2.349429  1668A      2.353434  
    1669A      2.356869  1670A      2.368399  1671A      2.372784  
    1672A      2.373493  1673A      2.383692  1674A      2.388048  
    1675A      2.390511  1676A      2.391898  1677A      2.393345  
    1678A      2.396787  1679A      2.397175  1680A      2.418335  
    1681A      2.419628  1682A      2.423731  1683A      2.427526  
    1684A      2.432058  1685A      2.441420  1686A      2.443725  
    1687A      2.451997  1688A      2.452794  1689A      2.453106  
    1690A      2.456880  1691A      2.464017  1692A      2.464434  
    1693A      2.464760  1694A      2.467789  1695A      2.468098  
    1696A      2.471929  1697A      2.472181  1698A      2.475839  
    1699A      2.481890  1700A      2.491019  1701A      2.491525  
    1702A      2.495003  1703A      2.501886  1704A      2.506691  
    1705A      2.507430  1706A      2.511540  1707A      2.516210  
    1708A      2.522184  1709A      2.539110  1710A      2.539268  
    1711A      2.540320  1712A      2.542081  1713A      2.542895  
    1714A      2.545315  1715A      2.547795  1716A      2.548684  
    1717A      2.549217  1718A      2.551499  1719A      2.556549  
    1720A      2.556709  1721A      2.564255  1722A      2.571182  
    1723A      2.571807  1724A      2.579975  1725A      2.583729  
    1726A      2.583852  1727A      2.584545  1728A      2.585471  
    1729A      2.586366  1730A      2.588568  1731A      2.588894  
    1732A      2.593213  1733A      2.593547  1734A      2.601359  
    1735A      2.601472  1736A      2.612837  1737A      2.613074  
    1738A      2.613238  1739A      2.613869  1740A      2.617617  
    1741A      2.617733  1742A      2.632945  1743A      2.640108  
    1744A      2.640608  1745A      2.641666  1746A      2.643653  
    1747A      2.645487  1748A      2.647447  1749A      2.648624  
    1750A      2.649182  1751A      2.652896  1752A      2.653669  
    1753A      2.655523  1754A      2.656262  1755A      2.657207  
    1756A      2.665270  1757A      2.666073  1758A      2.666454  
    1759A      2.667740  1760A      2.670425  1761A      2.670614  
    1762A      2.673622  1763A      2.677081  1764A      2.677717  
    1765A      2.680335  1766A      2.684652  1767A      2.686216  
    1768A      2.687286  1769A      2.691234  1770A      2.691408  
    1771A      2.691671  1772A      2.692459  1773A      2.696084  
    1774A      2.697333  1775A      2.704273  1776A      2.720779  
    1777A      2.730725  1778A      2.730770  1779A      2.731242  
    1780A      2.731645  1781A      2.732034  1782A      2.743565  
    1783A      2.752340  1784A      2.752886  1785A      2.760428  
    1786A      2.761072  1787A      2.770820  1788A      2.773348  
    1789A      2.775892  1790A      2.779517  1791A      2.781078  
    1792A      2.799212  1793A      2.799864  1794A      2.801783  
    1795A      2.802196  1796A      2.802249  1797A      2.810453  
    1798A      2.811959  1799A      2.815491  1800A      2.815549  
    1801A      2.816172  1802A      2.816466  1803A      2.818567  
    1804A      2.828205  1805A      2.828468  1806A      2.840071  
    1807A      2.840512  1808A      2.842086  1809A      2.842217  
    1810A      2.844775  1811A      2.846387  1812A      2.863382  
    1813A      2.865365  1814A      2.865501  1815A      2.870384  
    1816A      2.871831  1817A      2.874969  1818A      2.884548  
    1819A      2.895924  1820A      2.896431  1821A      2.896812  
    1822A      2.913974  1823A      2.916890  1824A      2.917787  
    1825A      2.919544  1826A      2.927416  1827A      2.927781  
    1828A      2.929748  1829A      2.935040  1830A      2.935308  
    1831A      2.956481  1832A      2.963474  1833A      2.964945  
    1834A      2.965325  1835A      2.976043  1836A      2.979358  
    1837A      2.992179  1838A      2.993119  1839A      3.008485  
    1840A      3.021284  1841A      3.029292  1842A      3.030226  
    1843A      3.035474  1844A      3.038854  1845A      3.046615  
    1846A      3.047561  1847A      3.048062  1848A      3.048579  
    1849A      3.057601  1850A      3.057746  1851A      3.063646  
    1852A      3.072912  1853A      3.108609  1854A      3.112950  
    1855A      3.113215  1856A      3.122724  1857A      3.127216  
    1858A      3.127987  1859A      3.132533  1860A      3.134594  
    1861A      3.142106  1862A      3.143062  1863A      3.145391  
    1864A      3.148758  1865A      3.149354  1866A      3.149740  
    1867A      3.150225  1868A      3.153639  1869A      3.162283  
    1870A      3.167845  1871A      3.173201  1872A      3.175134  
    1873A      3.175365  1874A      3.193094  1875A      3.193935  
    1876A      3.220132  1877A      3.252828  1878A      3.259550  
    1879A      3.261068  1880A      3.261632  1881A      3.262172  
    1882A      3.264534  1883A      3.268290  1884A      3.271247  
    1885A      3.274951  1886A      3.275574  1887A      3.288377  
    1888A      3.293407  1889A      3.296138  1890A      3.297946  
    1891A      3.302902  1892A      3.314256  1893A      3.326745  
    1894A      3.361340  1895A      3.362333  1896A      3.370060  
    1897A      3.413786  1898A      3.417426  1899A      3.430015  
    1900A      3.432273  1901A      3.436914  1902A      3.446284  
    1903A      3.450526  1904A      3.461673  1905A      3.464582  
    1906A      3.465410  1907A      3.471055  1908A      3.474121  
    1909A      3.481468  1910A      3.486687  1911A      3.493781  
    1912A      3.509139  1913A      3.526394  1914A      3.539679  
    1915A      3.573556  1916A      3.575650  1917A      3.576095  
    1918A      3.583779  1919A      3.590180  1920A      3.640122  
    1921A      3.641878  1922A      3.646570  1923A      3.664853  
    1924A      3.666968  1925A      3.705152  1926A      3.747978  
    1927A      3.749278  1928A      3.750597  1929A      3.758782  
    1930A      3.763475  1931A      3.778754  1932A      3.780340  
    1933A      3.817579  1934A      3.842050  1935A      3.843432  
    1936A      3.869469  1937A      3.871478  1938A      3.874625  
    1939A      3.904638  1940A      3.913079  1941A      3.938023  
    1942A      3.940235  1943A      3.948238  1944A      3.949221  
    1945A      3.958492  1946A      3.963342  1947A      3.967066  
    1948A      3.971797  1949A      4.024661  1950A      4.027451  
    1951A      4.071246  1952A      4.208289  1953A      4.211971  
    1954A      4.229592  1955A      4.302237  1956A      4.355409  
    1957A      4.364018  1958A      4.393542  1959A      4.490620  
    1960A      4.742572  1961A      4.781841  1962A      4.833188  
    1963A      4.848470  1964A      4.938365  1965A      5.054106  
    1966A      5.059504  1967A      5.068584  1968A      5.113002  
    1969A      5.141420  1970A      5.394426  1971A      5.424223  
    1972A      5.734950  1973A      5.760498  1974A      6.068860  
    1975A     18.199691  1976A     18.457407  1977A     18.474484  
    1978A     18.561842  1979A     18.833114  1980A     25.340510  
    1981A     25.376537  

    Final Occupation by Irrep:
              A 
    DOCC [   300 ]
    NA   [   300 ]
    NB   [   300 ]

  @DF-RHF Final Energy: -3650.33802197072600

   => Energetics <=

    Nuclear Repulsion Energy =          15611.4211649754306563
    One-Electron Energy =              -36072.0892694275971735
    Two-Electron Energy =               16810.3300824814432417
    Total Energy =                      -3650.3380219707250944

Computation Completed


Properties will be evaluated at   0.000000,   0.000000,   0.000000 [a0]

Properties computed using the SCF density matrix


 Multipole Moments:

 ------------------------------------------------------------------------------------
     Multipole            Electronic (a.u.)      Nuclear  (a.u.)        Total (a.u.)
 ------------------------------------------------------------------------------------

 L = 1.  Multiply by 2.5417464519 to convert [e a0] to [Debye]
 Dipole X            :         -0.0009259            0.0002112           -0.0007148
 Dipole Y            :          0.0011469           -0.0013774           -0.0002305
 Dipole Z            :       -605.1138631          605.1203250            0.0064619
 Magnitude           :                                                    0.0065054

 ------------------------------------------------------------------------------------

*** tstop() called on n2cn0973 at Sat Jan 27 03:03:01 2024
Module time:
	user time   =   18987.24 seconds =     316.45 minutes
	system time =    1782.49 seconds =      29.71 minutes
	total time  =       3294 seconds =      54.90 minutes
Total time:
	user time   =   51256.89 seconds =     854.28 minutes
	system time =    4403.39 seconds =      73.39 minutes
	total time  =      10213 seconds =     170.22 minutes
  Constructing Basis Sets for SAPT...

   => Loading Basis Set <=

    Name: (JUN-CC-PVDZ AUX)
    Role: RIFIT
    Keyword: DF_BASIS_SAPT
    atoms 1-2, 4-5, 10, 17-34, 41-53, 56-70, 73-89, 92-104, 109-119, 122-130 entry C          line   100 file /opt/software/pc2/EB-SW/software/PSI4/1.9-foss-2022a/share/psi4/basis/jun-cc-pvdz-ri.gbs 
    atoms 3, 6                                                               entry N          line   144 file /opt/software/pc2/EB-SW/software/PSI4/1.9-foss-2022a/share/psi4/basis/jun-cc-pvdz-ri.gbs 
    atoms 7-9, 11-16, 35-40, 54-55, 71-72, 90-91, 105-108, 120-121, 131-136  entry H          line    30 file /opt/software/pc2/EB-SW/software/PSI4/1.9-foss-2022a/share/psi4/basis/jun-cc-pvdz-ri.gbs 

   => Loading Basis Set <=

    Name: (JUN-CC-PVDZ AUX)
    Role: JKFIT
    Keyword: DF_BASIS_ELST
    atoms 1-2, 4-5, 10, 17-34, 41-53, 56-70, 73-89, 92-104, 109-119, 122-130 entry C          line   146 file /opt/software/pc2/EB-SW/software/PSI4/1.9-foss-2022a/share/psi4/basis/jun-cc-pvdz-jkfit.gbs 
    atoms 3, 6                                                               entry N          line   202 file /opt/software/pc2/EB-SW/software/PSI4/1.9-foss-2022a/share/psi4/basis/jun-cc-pvdz-jkfit.gbs 
    atoms 7-9, 11-16, 35-40, 54-55, 71-72, 90-91, 105-108, 120-121, 131-136  entry H          line    70 file /opt/software/pc2/EB-SW/software/PSI4/1.9-foss-2022a/share/psi4/basis/jun-cc-pvdz-jkfit.gbs 


  //>>>>>>>>>>>>>>>>>>>>>>>>>>>>>>>>>>>//
  //               SSAPT0              //
  //<<<<<<<<<<<<<<<<<<<<<<<<<<<<<<<<<<<//


*** tstart() called on n2cn0973
*** at Sat Jan 27 03:03:02 2024

        SAPT0  
    Ed Hohenstein
     6 June 2009

      Orbital Information
  --------------------------
    NSO        =      2019
    NMO        =      1981
    NRI        =      7157
    NRI (Elst) =      8896
    NOCC A     =        26
    NOCC B     =       300
    FOCC A     =         7
    FOCC B     =        96
    NVIR A     =      1955
    NVIR B     =      1681

    Elst10,r            =    -0.008661997252 [Eh]
    Exch10              =     0.000000528764 [Eh]
    Exch10 (S^2)        =     0.000000528763 [Eh]

    Iter     Energy [mEh]          dE [mEh]         Residual      Time [s]
       1      -0.01580556       0.015805559       1.188195134           291
       2      -0.01493482      -0.000870742       0.303898619           624
       3      -0.01638784       0.001453021       0.081350646           892
       4      -0.01647076       0.000082917       0.036472985          1154
       5      -0.01640474      -0.000066017       0.010999858          1428
       6      -0.01640611       0.000001366       0.003803910          1670
       7      -0.01641154       0.000005437       0.001057997          1963
       8      -0.01641187       0.000000324       0.000351815          2242
       9      -0.01641161      -0.000000260       0.000108402          2519
      10      -0.01641154      -0.000000066       0.000032696          2739
      11      -0.01641155       0.000000008       0.000008588          2990
      12      -0.01641155       0.000000007       0.000002435          3205
      13      -0.01641155      -0.000000000       0.000000920          3461

    CHF Iterations converged


    Iter     Energy [mEh]          dE [mEh]         Residual      Time [s]
       1      -5.58269660       5.582696599      41.039136097           250
       2      -3.58436799      -1.998328612       4.832849125           542
       3      -3.56672461      -0.017643378       1.620284432           772
       4      -3.63102126       0.064296653       0.509563659          1025
       5      -3.63963261       0.008611345       0.177546382          1246
       6      -3.63881092      -0.000821684       0.118871655          1476
       7      -3.63690005      -0.001910876       0.051616773          1686
       8      -3.63705762       0.000157572       0.027820655          1950
       9      -3.63749464       0.000437021       0.016345436          2179
      10      -3.63739650      -0.000098140       0.013589866          2398
      11      -3.63731206      -0.000084436       0.006163830          2677
      12      -3.63731115      -0.000000919       0.003302326          2884
      13      -3.63733284       0.000021695       0.001687220          3089
      14      -3.63733950       0.000006657       0.001079435          3389
      15      -3.63733435      -0.000005149       0.000680634          3656
      16      -3.63733013      -0.000004218       0.000229953          3926
      17      -3.63733216       0.000002031       0.000076088          4182
      18      -3.63733250       0.000000343       0.000024849          4428
      19      -3.63733239      -0.000000117       0.000013458          4727
      20      -3.63733230      -0.000000085       0.000005324          5003
      21      -3.63733232       0.000000015       0.000002441          5249
      22      -3.63733233       0.000000014       0.000001201          5478
      23      -3.63733233      -0.000000001       0.000000518          5688

    CHF Iterations converged

    Ind20,r (A<-B)      =    -0.000016411555 [Eh]
    Ind20,r (B<-A)      =    -0.003637332330 [Eh]
    Ind20,r             =    -0.003653743884 [Eh]
    Exch-Ind20,r (A<-B) =     0.000000069866 [Eh]
    Exch-Ind20,r (B<-A) =     0.000000949490 [Eh]
    Exch-Ind20,r        =     0.000001019356 [Eh]
    Disp20              =    -0.001873553141 [Eh]
    Disp20 (SS)         =    -0.000936776570 [Eh]
    Disp20 (OS)         =    -0.000936776570 [Eh]
    Exch-Disp20         =     0.000000347442 [Eh]
    Exch-Disp20 (SS)    =     0.000000262593 [Eh]
    Exch-Disp20 (OS)    =     0.000000084849 [Eh]

    SAPT Results 
  --------------------------------------------------------------------------------------------------------
    Electrostatics                 -8.66199725 [mEh]      -5.43548534 [kcal/mol]     -22.74207065 [kJ/mol]
      Elst10,r                     -8.66199725 [mEh]      -5.43548534 [kcal/mol]     -22.74207065 [kJ/mol]

    Exchange                        0.00052876 [mEh]       0.00033180 [kcal/mol]       0.00138827 [kJ/mol]
      Exch10                        0.00052876 [mEh]       0.00033180 [kcal/mol]       0.00138827 [kJ/mol]
      Exch10(S^2)                   0.00052876 [mEh]       0.00033180 [kcal/mol]       0.00138827 [kJ/mol]

    Induction                      -3.72914446 [mEh]      -2.34007348 [kcal/mol]      -9.79086742 [kJ/mol]
      Ind20,r                      -3.65374388 [mEh]      -2.29275890 [kcal/mol]      -9.59290325 [kJ/mol]
      Exch-Ind20,r                  0.00101936 [mEh]       0.00063966 [kcal/mol]       0.00267632 [kJ/mol]
      delta HF,r (2)               -0.07641993 [mEh]      -0.04795423 [kcal/mol]      -0.20064049 [kJ/mol]

    Dispersion                     -1.87320570 [mEh]      -1.17545432 [kcal/mol]      -4.91810088 [kJ/mol]
      Disp20                       -1.87355314 [mEh]      -1.17567235 [kcal/mol]      -4.91901309 [kJ/mol]
      Exch-Disp20                   0.00034744 [mEh]       0.00021802 [kcal/mol]       0.00091221 [kJ/mol]
      Disp20 (SS)                  -0.93677657 [mEh]      -0.58783617 [kcal/mol]      -2.45950655 [kJ/mol]
      Disp20 (OS)                  -0.93677657 [mEh]      -0.58783617 [kcal/mol]      -2.45950655 [kJ/mol]
      Exch-Disp20 (SS)              0.00026259 [mEh]       0.00016478 [kcal/mol]       0.00068944 [kJ/mol]
      Exch-Disp20 (OS)              0.00008485 [mEh]       0.00005324 [kcal/mol]       0.00022277 [kJ/mol]

  Total HF                        -12.39061295 [mEh]      -7.77522701 [kcal/mol]     -32.53154981 [kJ/mol]
  Total SAPT0                     -14.26381864 [mEh]      -8.95068133 [kcal/mol]     -37.44965069 [kJ/mol]

  Special recipe for scaled SAPT0 (see Manual):
    Electrostatics sSAPT0          -8.66199725 [mEh]      -5.43548534 [kcal/mol]     -22.74207065 [kJ/mol]
    Exchange sSAPT0                 0.00052876 [mEh]       0.00033180 [kcal/mol]       0.00138827 [kJ/mol]
    Induction sSAPT0               -3.72914446 [mEh]      -2.34007348 [kcal/mol]      -9.79086742 [kJ/mol]
    Dispersion sSAPT0              -1.87320570 [mEh]      -1.17545432 [kcal/mol]      -4.91810088 [kJ/mol]
  Total sSAPT0                    -14.26381864 [mEh]      -8.95068133 [kcal/mol]     -37.44965069 [kJ/mol]
  --------------------------------------------------------------------------------------------------------

*** tstop() called on n2cn0973 at Sat Jan 27 09:58:33 2024
Module time:
	user time   =   79999.86 seconds =    1333.33 minutes
	system time =    4623.06 seconds =      77.05 minutes
	total time  =      24931 seconds =     415.52 minutes
Total time:
	user time   =  131258.33 seconds =    2187.64 minutes
	system time =    9026.45 seconds =     150.44 minutes
	total time  =      35145 seconds =     585.75 minutes

    Psi4 stopped on: Saturday, 27 January 2024 09:58AM
    Psi4 wall time for execution: 9:45:47.27

*** Psi4 exiting successfully. Buy a developer a beer!
