
    -----------------------------------------------------------------------
          Psi4: An Open-Source Ab Initio Electronic Structure Package
                               Psi4 1.9 release

                         Git: Rev {} zzzzzzz 


    D. G. A. Smith, L. A. Burns, A. C. Simmonett, R. M. Parrish,
    M. C. Schieber, R. Galvelis, P. Kraus, H. Kruse, R. Di Remigio,
    A. Alenaizan, A. M. James, S. Lehtola, J. P. Misiewicz, M. Scheurer,
    R. A. Shaw, J. B. Schriber, Y. Xie, Z. L. Glick, D. A. Sirianni,
    J. S. O'Brien, J. M. Waldrop, A. Kumar, E. G. Hohenstein,
    B. P. Pritchard, B. R. Brooks, H. F. Schaefer III, A. Yu. Sokolov,
    K. Patkowski, A. E. DePrince III, U. Bozkaya, R. A. King,
    F. A. Evangelista, J. M. Turney, T. D. Crawford, C. D. Sherrill,
    J. Chem. Phys. 152(18) 184108 (2020). https://doi.org/10.1063/5.0006002

                            Additional Code Authors
    E. T. Seidl, C. L. Janssen, E. F. Valeev, M. L. Leininger,
    J. F. Gonthier, R. M. Richard, H. R. McAlexander, M. Saitow, X. Wang,
    P. Verma, M. H. Lechner, A. Jiang, S. Behnle, A. G. Heide,
    M. F. Herbst, and D. L. Poole

             Previous Authors, Complete List of Code Contributors,
                       and Citations for Specific Modules
    https://github.com/psi4/psi4/blob/master/codemeta.json
    https://github.com/psi4/psi4/graphs/contributors
    http://psicode.org/psi4manual/master/introduction.html#citing-psifour

    -----------------------------------------------------------------------


    Psi4 started on: Wednesday, 24 January 2024 07:40PM

    Process ID: 274887
    Host:       n2cn0952
    PSIDATADIR: /opt/software/pc2/EB-SW/software/PSI4/1.9-foss-2022a/share/psi4
    Memory:     500.0 MiB
    Threads:    16
    
  ==> Input File <==

--------------------------------------------------------------------------
memory 47 GB # how much memory is available ! Depends on the nodes/cores !

molecule dimer {
# monomer A
-1 1    # Charge and multiplicity
B -0.000046  0.000337 4.599994
F -1.153597  0.000048 5.415641
F  1.153661 -0.000581 5.415641
F -0.000019 -1.153637 3.784360
F -0.000019  1.153978 3.784360
--
# monomer B
0 1     # Charge and multiplicity
C   -3.66844126402057      7.80375217008252      0.00190004133558
C   -4.84759871934653      7.13124183134024     -0.00046653359696
C   -4.89495929917518      5.69633040353158     -0.00103944469517
C   -3.65374067877320      4.98073034095895      0.00662099703436
C   -2.40942512149445      7.11398103667468      0.00209438359570
C   -2.42547734410473      5.68112195090346     -0.00491050527438
C   -1.19474401643570      7.78614419430947      0.00356656413763
C   0.03795902893699      7.09942164575698      0.00139585983271
C   0.03033258741920      5.66948955970466     -0.00408752508301
C   -1.20098450790502      4.96927034791531      0.00488220885047
C   1.27795782581485      7.77285944319479      0.00277170839332
C   2.48535808472416      7.08769688523756      0.00049722048857
C   2.48612868491717      5.65477081024076     -0.00644052849921
C   1.25408291964399      4.95607811366431      0.00518741308898
C   3.75171459140595      7.76391215098033      0.00062407186893
C   4.92356605618520      7.07878077698995     -0.00143240883900
C   4.95560727132542      5.64344746336949     -0.00159282164606
C   3.70680153420475      4.94121020833308      0.00349873852374
H   -3.65852113775815      8.89082741913536      0.00358502958574
H   -1.18921332975660      8.87412108735996      0.00753844057883
H   1.28429423888630      8.86083343548850      0.00693053253426
H   3.75354208679975      8.85103527897216      0.00214659618464
H   5.86995870320703      7.61379483465560     -0.00235777588134
H   -5.78823170750226      7.67630221293400     -0.00202638095293
C   -6.09197395869619      4.99326001364347     -0.00291168518608
C   -6.12866148031747      3.58258016879823     -0.00171050815740
C   -3.66457974004527      3.56418217974434     -0.00463560277484
C   -4.89429820469869      2.86108077590057      0.00453338221034
C   -2.43733499489796      2.84761165708481      0.00719617576166
C   -1.20922785759670      3.54788693497833     -0.00648285103018
C   1.24714157216223      3.53468075142962     -0.00729145743546
C   0.01517603956900      2.83311183930540      0.00439272578912
C   2.46764517244071      2.82128997725533      0.00449278391269
C   3.70254947457969      3.52466015442405     -0.00899517692985
C   6.14498038638375      4.92757236613191     -0.00282626685777
C   6.16658835886151      3.51658447594213     -0.00065971342101
C   4.92460995845939      2.80840792535402      0.00587903281610
H   7.08990550964105      5.46688776622306     -0.00658814770723
H   -7.03104175110130      5.54268795285765     -0.00714490013730
C   -7.33969804112295      2.85841153457957     -0.00333767559888
C   -7.36488195805880      1.47032337158330     -0.00157213747140
C   -4.90350460894690      1.44442681216000     -0.00628840166334
C   -6.13225715261081      0.73993935705394      0.00600164231964
C   -3.67687480051673      0.72669714267312      0.00433931473643
C   -2.44565658606518      1.42964113326212     -0.00597039546461
C   -1.22360068130162      0.71532450163492      0.00545886906656
C   0.00763786931376      1.41738314923765      0.00392452278437
C   1.23121980774686      0.70211669058719     -0.01490206287210
C   2.46082110053113      1.40329203612573      0.00460244601878
C   3.68443025419614      0.68719842821222      0.00377365974158
C   4.91870890153864      1.39173456118907     -0.00862816189375
C   7.36980207796101      2.77948220318441     -0.00242013321349
C   7.38016266612146      1.39121750785509     -0.00087345036788
C   6.13979953912259      0.67411862320065      0.00545489144369
H   -8.27919079934664      3.40711804112415     -0.00763522772059
H   8.31511347147953      3.31811809662368     -0.00663070901292
C   -8.59175593758115      0.72483255304480     -0.00123170985383
C   -8.59902460370342     -0.63263980622873      0.00089141472904
C   -6.13981313911873     -0.67413663715361     -0.00609792660607
C   -7.38018411213749     -1.39126618958160      0.00131813493501
C   -4.91868448025621     -1.39175501803000      0.00624257154343
C   -3.68443829568458     -0.68723731573599     -0.00478966852105
C   -2.46081704024768     -1.40334517882457      0.00575341766833
C   -1.23116201232071     -0.70217386488055     -0.00636696112346
C   -0.00756962538737     -1.41741884941102      0.00108956317991
C   1.22364771588843     -0.71527537726392      0.01109518512883
C   2.44567064933149     -1.42964328900682     -0.00065482763106
C   3.67686670284649     -0.72670743155550     -0.00479541202602
C   6.13224884641929     -0.73997883984993     -0.00632338623858
C   4.90351914550401     -1.44445752054090      0.00751768830159
C   8.59901484869081      0.63260386666793     -0.00101133422380
C   8.59174548810050     -0.72485086719319      0.00072504603735
C   7.36486276438985     -1.47033266560598      0.00049486934466
H   -9.52830597181814      1.27684744919284     -0.00270163681798
H   9.54141097460619      1.17457248844457     -0.00206336648518
C   -7.36983790976868     -2.77954514593389      0.00312634335708
C   -4.92459910905015     -2.80843725734101     -0.00460528907921
C   -6.16662249566744     -3.51665219282533      0.00169655107992
C   -3.70251035970491     -3.52468154912026      0.00571878010666
C   -2.46764698511392     -2.82132596280400     -0.00632585824990
C   -0.01513347410770     -2.83314164539971     -0.00604426974092
C   -1.24712184122656     -3.53473217556300      0.00551968366725
C   1.20924506964357     -3.54791467864352      0.00805871345849
C   2.43733602215464     -2.84764173817541     -0.00608104485234
C   4.89430234377080     -2.86112296828604     -0.00526030478103
C   3.66461525504104     -3.56421984553201      0.00761911515957
C   6.12863901474565     -3.58258405771778      0.00096495711699
C   7.33967266469532     -2.85841330737039      0.00248018319869
H   -9.54144911125902     -1.17456346666430      0.00226083090216
H   9.52826186807155     -1.27691907390448      0.00197485379837
H   -8.31516504384864     -3.31814985321231      0.00729857188773
H   8.27915514249207     -3.40714078989363      0.00681973918158
C   -6.14499418870218     -4.92764727278338      0.00302254913999
C   -3.70678334799751     -4.94126171411716     -0.00679841894792
C   -4.95559005800169     -5.64349397349412      0.00116871569699
C   -2.48612132622665     -5.65478557440947      0.00614125209662
C   -1.25405833548005     -4.95612205000132     -0.00503435388927
C   1.20101257386816     -4.96928038819302     -0.00385322963129
C   -0.03033667441341     -5.66952030313900      0.00398997003238
C   3.65375010132847     -4.98074377541453     -0.00309522988330
C   2.42549269587528     -5.68117463552727      0.00628170066869
C   6.09196561781097     -4.99325796338655      0.00325918379042
C   4.89497644461045     -5.69634842095790      0.00202298796027
H   -7.08989238804069     -5.46699984223871      0.00742531082125
H   7.03105520920009     -5.54265853633254      0.00683896355417
C   -4.92354532219813     -7.07882109967734      0.00061394679214
C   -2.48534208823777     -7.08772807792913     -0.00189594564379
C   -3.75168589177895     -7.76394715763627     -0.00170126671874
C   -0.03794895698805     -7.09946487446944     -0.00168022049625
C   -1.27795610040136     -7.77290438466689     -0.00366491325785
C   2.40944432072629     -7.11402201200282     -0.00081701968533
C   1.19474993715296     -7.78618536556242     -0.00296931056689
C   4.84762105249800     -7.13126211057943      0.00168979497423
C   3.66847160587561     -7.80378799294376     -0.00065863938960
H   -5.86994035041618     -7.61383059804164      0.00215798365757
H   5.78824962538815     -7.67633218931421      0.00281691445618
H   -3.75352693944918     -8.85107156923607     -0.00353718114765
H   -1.28430440589466     -8.86087539249706     -0.00809229711623
H   1.18922157469537     -8.87416062058945     -0.00706194725726
H   3.65854661482387     -8.89086063405326     -0.00231318081200

    units angstrom      # Angstroms are the default
    no_reorient         # Geometry fixed, default
    symmetry c1         # C1 symmetry, default
}

set {
    scf_type DF         # Density fitting, faster than exact integrals
    freeze_core True    # Freeze core electrons
    basis jun-cc-pVDZ   # Jun-cc-pVDZ basis set, recommended for sSAPT0 in https://doi.org/10.1063/1.4867135
}

energy('ssapt0')        # Compute sSAPT0 energy, includes also SAPT0
--------------------------------------------------------------------------

  Memory set to  43.772 GiB by Python driver.

Scratch directory: /tmp/
   => Loading Basis Set <=

    Name: JUN-CC-PVDZ
    Role: ORBITAL
    Keyword: BASIS
    atoms 1                                                   entry B          line   130 file /opt/software/pc2/EB-SW/software/PSI4/1.9-foss-2022a/share/psi4/basis/jun-cc-pvdz.gbs 
    atoms 2-5                                                 entry F          line   266 file /opt/software/pc2/EB-SW/software/PSI4/1.9-foss-2022a/share/psi4/basis/jun-cc-pvdz.gbs 
    atoms 6-23, 30-42, 45-59, 62-78, 81-93, 98-108, 111-119   entry C          line   164 file /opt/software/pc2/EB-SW/software/PSI4/1.9-foss-2022a/share/psi4/basis/jun-cc-pvdz.gbs 
    atoms 24-29, 43-44, 60-61, 79-80, 94-97, 109-110, 120-125 entry H          line    36 file /opt/software/pc2/EB-SW/software/PSI4/1.9-foss-2022a/share/psi4/basis/jun-cc-pvdz.gbs 

   => Loading Basis Set <=

    Name: JUN-CC-PVDZ
    Role: ORBITAL
    Keyword: BASIS
    atoms 1                                                   entry B          line   130 file /opt/software/pc2/EB-SW/software/PSI4/1.9-foss-2022a/share/psi4/basis/jun-cc-pvdz.gbs 
    atoms 2-5                                                 entry F          line   266 file /opt/software/pc2/EB-SW/software/PSI4/1.9-foss-2022a/share/psi4/basis/jun-cc-pvdz.gbs 
    atoms 6-23, 30-42, 45-59, 62-78, 81-93, 98-108, 111-119   entry C          line   164 file /opt/software/pc2/EB-SW/software/PSI4/1.9-foss-2022a/share/psi4/basis/jun-cc-pvdz.gbs 
    atoms 24-29, 43-44, 60-61, 79-80, 94-97, 109-110, 120-125 entry H          line    36 file /opt/software/pc2/EB-SW/software/PSI4/1.9-foss-2022a/share/psi4/basis/jun-cc-pvdz.gbs 


  //>>>>>>>>>>>>>>>>>>>>>>>>>>>>>>>>>>>//
  //              Dimer HF             //
  //<<<<<<<<<<<<<<<<<<<<<<<<<<<<<<<<<<<//

   => Libint2 <=

    Primary   basis highest AM E, G, H:  5, 4, 3
    Auxiliary basis highest AM E, G, H:  6, 5, 4
    Onebody   basis highest AM E, G, H:  6, 5, 4
    Solid Harmonics ordering:            gaussian

*** tstart() called on n2cn0952
*** at Wed Jan 24 19:40:42 2024

   => Loading Basis Set <=

    Name: JUN-CC-PVDZ
    Role: ORBITAL
    Keyword: BASIS
    atoms 1                                                   entry B          line   130 file /opt/software/pc2/EB-SW/software/PSI4/1.9-foss-2022a/share/psi4/basis/jun-cc-pvdz.gbs 
    atoms 2-5                                                 entry F          line   266 file /opt/software/pc2/EB-SW/software/PSI4/1.9-foss-2022a/share/psi4/basis/jun-cc-pvdz.gbs 
    atoms 6-23, 30-42, 45-59, 62-78, 81-93, 98-108, 111-119   entry C          line   164 file /opt/software/pc2/EB-SW/software/PSI4/1.9-foss-2022a/share/psi4/basis/jun-cc-pvdz.gbs 
    atoms 24-29, 43-44, 60-61, 79-80, 94-97, 109-110, 120-125 entry H          line    36 file /opt/software/pc2/EB-SW/software/PSI4/1.9-foss-2022a/share/psi4/basis/jun-cc-pvdz.gbs 


         ---------------------------------------------------------
                                   SCF
               by Justin Turney, Rob Parrish, Andy Simmonett
                          and Daniel G. A. Smith
                              RHF Reference
                       16 Threads,  44822 MiB Core
         ---------------------------------------------------------

  ==> Geometry <==

    Molecular point group: c1
    Full point group: C1

    Geometry (in Angstrom), charge = -1, multiplicity = 1:

       Center              X                  Y                   Z               Mass       
    ------------   -----------------  -----------------  -----------------  -----------------
         B           -0.000050191042     0.000351518223     4.283163504926    11.009305360000
         F           -1.153601191042     0.000062518223     5.098810504926    18.998403162730
         F            1.153656808958    -0.000566481777     5.098810504926    18.998403162730
         F           -0.000023191042    -1.153622481777     3.467529504926    18.998403162730
         F           -0.000023191042     1.153992518223     3.467529504926    18.998403162730
         C           -3.668445455062     7.803766688305    -0.314930453738    12.000000000000
         C           -4.847602910388     7.131256349563    -0.317297028671    12.000000000000
         C           -4.894963490217     5.696344921754    -0.317869939769    12.000000000000
         C           -3.653744869815     4.980744859182    -0.310209498039    12.000000000000
         C           -2.409429312536     7.113995554897    -0.314736111478    12.000000000000
         C           -2.425481535146     5.681136469126    -0.321741000348    12.000000000000
         C           -1.194748207477     7.786158712532    -0.313263930936    12.000000000000
         C            0.037954837895     7.099436163980    -0.315434635241    12.000000000000
         C            0.030328396378     5.669504077927    -0.320918020157    12.000000000000
         C           -1.200988698947     4.969284866138    -0.311948286223    12.000000000000
         C            1.277953634773     7.772873961417    -0.314058786680    12.000000000000
         C            2.485353893683     7.087711403460    -0.316333274585    12.000000000000
         C            2.486124493876     5.654785328463    -0.323271023573    12.000000000000
         C            1.254078728602     4.956092631887    -0.311643081985    12.000000000000
         C            3.751710400364     7.763926669203    -0.316206423205    12.000000000000
         C            4.923561865144     7.078795295213    -0.318262903913    12.000000000000
         C            4.955603080284     5.643461981592    -0.318423316720    12.000000000000
         C            3.706797343163     4.941224726556    -0.313331756550    12.000000000000
         H           -3.658525328800     8.890841937358    -0.313245465488     1.007825032230
         H           -1.189217520798     8.874135605583    -0.309292054495     1.007825032230
         H            1.284290047845     8.860847953711    -0.309899962540     1.007825032230
         H            3.753537895758     8.851049797195    -0.314683898889     1.007825032230
         H            5.869954512165     7.613809352878    -0.319188270955     1.007825032230
         H           -5.788235898544     7.676316731157    -0.318856876027     1.007825032230
         C           -6.091978149738     4.993274531866    -0.319742180260    12.000000000000
         C           -6.128665671359     3.582594687021    -0.318541003231    12.000000000000
         C           -3.664583931087     3.564196697967    -0.321466097849    12.000000000000
         C           -4.894302395740     2.861095294123    -0.312297112863    12.000000000000
         C           -2.437339185940     2.847626175307    -0.309634319312    12.000000000000
         C           -1.209232048638     3.547901453201    -0.323313346104    12.000000000000
         C            1.247137381121     3.534695269652    -0.324121952509    12.000000000000
         C            0.015171848527     2.833126357528    -0.312437769285    12.000000000000
         C            2.467640981399     2.821304495478    -0.312337711161    12.000000000000
         C            3.702545283538     3.524674672647    -0.325825672004    12.000000000000
         C            6.144976195342     4.927586884354    -0.319656761932    12.000000000000
         C            6.166584167820     3.516598994165    -0.317490208495    12.000000000000
         C            4.924605767418     2.808422443577    -0.310951462258    12.000000000000
         H            7.089901318599     5.466902284446    -0.323418642781     1.007825032230
         H           -7.031045942143     5.542702471080    -0.323975395211     1.007825032230
         C           -7.339702232165     2.858426052802    -0.320168170673    12.000000000000
         C           -7.364886149100     1.470337889806    -0.318402632545    12.000000000000
         C           -4.903508799989     1.444441330383    -0.323118896737    12.000000000000
         C           -6.132261343652     0.739953875277    -0.310828852754    12.000000000000
         C           -3.676878991558     0.726711660896    -0.312491180337    12.000000000000
         C           -2.445660777107     1.429655651485    -0.322800890538    12.000000000000
         C           -1.223604872343     0.715339019858    -0.311371626007    12.000000000000
         C            0.007633678272     1.417397667460    -0.312905972289    12.000000000000
         C            1.231215616705     0.702131208810    -0.331732557946    12.000000000000
         C            2.460816909489     1.403306554348    -0.312228049055    12.000000000000
         C            3.684426063155     0.687212946435    -0.313056835332    12.000000000000
         C            4.918704710497     1.391749079412    -0.325458656968    12.000000000000
         C            7.369797886919     2.779496721407    -0.319250628287    12.000000000000
         C            7.380158475080     1.391232026078    -0.317703945442    12.000000000000
         C            6.139795348081     0.674133141423    -0.311375603630    12.000000000000
         H           -8.279194990388     3.407132559347    -0.324465722794     1.007825032230
         H            8.315109280438     3.318132614846    -0.323461204087     1.007825032230
         C           -8.591760128623     0.724847071267    -0.318062204928    12.000000000000
         C           -8.599028794745    -0.632625288006    -0.315939080345    12.000000000000
         C           -6.139817330160    -0.674122118931    -0.322928421680    12.000000000000
         C           -7.380188303179    -1.391251671359    -0.315512360139    12.000000000000
         C           -4.918688671298    -1.391740499807    -0.310587923530    12.000000000000
         C           -3.684442486726    -0.687222797513    -0.321620163595    12.000000000000
         C           -2.460821231289    -1.403330660602    -0.311077077405    12.000000000000
         C           -1.231166203362    -0.702159346658    -0.323197456197    12.000000000000
         C           -0.007573816429    -1.417404331188    -0.315740931894    12.000000000000
         C            1.223643524847    -0.715260859041    -0.305735309945    12.000000000000
         C            2.445666458290    -1.429628770784    -0.317485322705    12.000000000000
         C            3.676862511805    -0.726692913333    -0.321625907100    12.000000000000
         C            6.132244655378    -0.739964321627    -0.323153881312    12.000000000000
         C            4.903514954462    -1.444443002318    -0.309312806772    12.000000000000
         C            8.599010657649     0.632618384891    -0.317841829298    12.000000000000
         C            8.591741297059    -0.724836348971    -0.316105449036    12.000000000000
         C            7.364858573348    -1.470318147383    -0.316335625729    12.000000000000
         H           -9.528310162860     1.276861967415    -0.319532131892     1.007825032230
         H            9.541406783565     1.174587006667    -0.318893861559     1.007825032230
         C           -7.369842100810    -2.779530627711    -0.313704151717    12.000000000000
         C           -4.924603300092    -2.808422739118    -0.321435784153    12.000000000000
         C           -6.166626686709    -3.516637674603    -0.315133943994    12.000000000000
         C           -3.702514550747    -3.524667030898    -0.311111714967    12.000000000000
         C           -2.467651176156    -2.821311444581    -0.323156353324    12.000000000000
         C           -0.015137665149    -2.833127127177    -0.322874764815    12.000000000000
         C           -1.247126032268    -3.534717657340    -0.311310811407    12.000000000000
         C            1.209240878602    -3.547900160421    -0.308771781615    12.000000000000
         C            2.437331831113    -2.847627219953    -0.322911539926    12.000000000000
         C            4.894298152729    -2.861108450063    -0.322090799855    12.000000000000
         C            3.664611063999    -3.564205327309    -0.309211379914    12.000000000000
         C            6.128634823704    -3.582569539495    -0.315865537957    12.000000000000
         C            7.339668473654    -2.858398789148    -0.314350311875    12.000000000000
         H           -9.541453302301    -1.174548948442    -0.314569664172     1.007825032230
         H            9.528257677030    -1.276904555682    -0.314855641275     1.007825032230
         H           -8.315169234890    -3.318135334990    -0.309531923186     1.007825032230
         H            8.279150951450    -3.407126271671    -0.310010755892     1.007825032230
         C           -6.144998379744    -4.927632754561    -0.313807945934    12.000000000000
         C           -3.706787539039    -4.941247195895    -0.323628914022    12.000000000000
         C           -4.955594249043    -5.643479455272    -0.315661779377    12.000000000000
         C           -2.486125517268    -5.654771056187    -0.310689242977    12.000000000000
         C           -1.254062526522    -4.956107531779    -0.321864848963    12.000000000000
         C            1.201008382827    -4.969265869970    -0.320683724705    12.000000000000
         C           -0.030340865455    -5.669505784916    -0.312840525041    12.000000000000
         C            3.653745910287    -4.980729257192    -0.319925724957    12.000000000000
         C            2.425488504834    -5.681160117305    -0.310548794405    12.000000000000
         C            6.091961426769    -4.993243445164    -0.313571311283    12.000000000000
         C            4.894972253569    -5.696333902735    -0.314807507114    12.000000000000
         H           -7.089896579082    -5.466985324016    -0.309405184253     1.007825032230
         H            7.031051018158    -5.542644018110    -0.309991531520     1.007825032230
         C           -4.923549513240    -7.078806581455    -0.316216548282    12.000000000000
         C           -2.485346279279    -7.087713559707    -0.318726440718    12.000000000000
         C           -3.751690082821    -7.763932639414    -0.318531761793    12.000000000000
         C           -0.037953148030    -7.099450356247    -0.318510715570    12.000000000000
         C           -1.277960291443    -7.772889866444    -0.320495408332    12.000000000000
         C            2.409440129685    -7.114007493780    -0.317647514759    12.000000000000
         C            1.194745746111    -7.786170847340    -0.319799805641    12.000000000000
         C            4.847616861456    -7.131247592357    -0.315140700100    12.000000000000
         C            3.668467414834    -7.803773474721    -0.317489134463    12.000000000000
         H           -5.869944541458    -7.613816079819    -0.314672511416     1.007825032230
         H            5.788245434347    -7.676317671092    -0.314013580618     1.007825032230
         H           -3.753531130491    -8.851057051013    -0.320367676221     1.007825032230
         H           -1.284308596936    -8.860860874274    -0.324922792190     1.007825032230
         H            1.189217383654    -8.874146102367    -0.323892442331     1.007825032230
         H            3.658542423782    -8.890846115831    -0.319143675886     1.007825032230

  Running in c1 symmetry.

  Rotational constants: A =      0.00066  B =      0.00066  C =      0.00035 [cm^-1]
  Rotational constants: A =     19.65571  B =     19.65241  C =     10.55117 [MHz]
  Nuclear repulsion = 17548.474812301352358

  Charge       = -1
  Multiplicity = 1
  Electrons    = 642
  Nalpha       = 321
  Nbeta        = 321

  ==> Algorithm <==

  SCF Algorithm Type is DF.
  DIIS enabled.
  MOM disabled.
  Fractional occupation disabled.
  Guess Type is SAD.
  Energy threshold   = 1.00e-08
  Density threshold  = 1.00e-08
  Integral threshold = 1.00e-12

  ==> Primary Basis <==

  Basis Set: JUN-CC-PVDZ
    Blend: JUN-CC-PVDZ
    Number of shells: 880
    Number of basis functions: 1938
    Number of Cartesian functions: 2039
    Spherical Harmonics?: true
    Max angular momentum: 2

   => Loading Basis Set <=

    Name: (JUN-CC-PVDZ AUX)
    Role: JKFIT
    Keyword: DF_BASIS_SCF
    atoms 1                                                   entry B          line    90 file /opt/software/pc2/EB-SW/software/PSI4/1.9-foss-2022a/share/psi4/basis/jun-cc-pvdz-jkfit.gbs 
    atoms 2-5                                                 entry F          line   314 file /opt/software/pc2/EB-SW/software/PSI4/1.9-foss-2022a/share/psi4/basis/jun-cc-pvdz-jkfit.gbs 
    atoms 6-23, 30-42, 45-59, 62-78, 81-93, 98-108, 111-119   entry C          line   146 file /opt/software/pc2/EB-SW/software/PSI4/1.9-foss-2022a/share/psi4/basis/jun-cc-pvdz-jkfit.gbs 
    atoms 24-29, 43-44, 60-61, 79-80, 94-97, 109-110, 120-125 entry H          line    70 file /opt/software/pc2/EB-SW/software/PSI4/1.9-foss-2022a/share/psi4/basis/jun-cc-pvdz-jkfit.gbs 

  ==> Integral Setup <==

  ==> DiskDFJK: Density-Fitted J/K Matrices <==

    J tasked:                  Yes
    K tasked:                  Yes
    wK tasked:                  No
    OpenMP threads:             16
    Integrals threads:          16
    Memory [MiB]:            33617
    Algorithm:                Disk
    Integral Cache:           SAVE
    Schwarz Cutoff:          1E-12
    Fitting Condition:       1E-10

   => Auxiliary Basis Set <=

  Basis Set: (JUN-CC-PVDZ AUX)
    Blend: JUN-CC-PVDZ-JKFIT
    Number of shells: 2943
    Number of basis functions: 8531
    Number of Cartesian functions: 9791
    Spherical Harmonics?: true
    Max angular momentum: 3

  Minimum eigenvalue in the overlap matrix is 8.8009775426E-11.
  Reciprocal condition number of the overlap matrix is 3.7830047404E-12.
    Using canonical orthogonalization.
  Overall, 38 of 1938 possible MOs eliminated.


  ==> Pre-Iterations <==

  SCF Guess: Superposition of Atomic Densities via on-the-fly atomic UHF (no occupation information).

   -------------------------
    Irrep   Nso     Nmo    
   -------------------------
     A       1938    1900 
   -------------------------
    Total    1938    1900
   -------------------------

  ==> Iterations <==

                           Total Energy        Delta E     RMS |[F,P]|

   @DF-RHF iter SAD: -4085.02999766452785   -4.08503e+03   0.00000e+00 
   @DF-RHF iter   1: -4071.51264347619008    1.35174e+01   7.91311e-04 ADIIS/DIIS
   @DF-RHF iter   2: -4072.91644586467237   -1.40380e+00   3.10795e-04 ADIIS/DIIS
   @DF-RHF iter   3: -4073.08375178073311   -1.67306e-01   1.03219e-04 ADIIS/DIIS
   @DF-RHF iter   4: -4073.10611369281196   -2.23619e-02   3.84671e-05 DIIS
   @DF-RHF iter   5: -4073.10966784060747   -3.55415e-03   1.10281e-05 DIIS
   @DF-RHF iter   6: -4073.11012366459636   -4.55824e-04   4.37626e-06 DIIS
   @DF-RHF iter   7: -4073.11030304344240   -1.79379e-04   2.29544e-06 DIIS
   @DF-RHF iter   8: -4073.11035764831922   -5.46049e-05   1.24146e-06 DIIS
   @DF-RHF iter   9: -4073.11037610499852   -1.84567e-05   4.07000e-07 DIIS
   @DF-RHF iter  10: -4073.11037729359350   -1.18859e-06   1.81831e-07 DIIS
   @DF-RHF iter  11: -4073.11037749803563   -2.04442e-07   6.30223e-08 DIIS
   @DF-RHF iter  12: -4073.11037753341498   -3.53793e-08   3.31138e-08 DIIS
   @DF-RHF iter  13: -4073.11037754172867   -8.31369e-09   1.11772e-08 DIIS
   @DF-RHF iter  14: -4073.11037754280187   -1.07320e-09   5.05920e-09 DIIS
  Energy and wave function converged.


  ==> Post-Iterations <==

    Orbital Energies [Eh]
    ---------------------

    Doubly Occupied:                                                      

       1A    -26.078718     2A    -26.078536     3A    -26.073987  
       4A    -26.073955     5A    -11.201274     6A    -11.201272  
       7A    -11.201256     8A    -11.201253     9A    -11.201201  
      10A    -11.201199    11A    -11.201190    12A    -11.201189  
      13A    -11.201154    14A    -11.201151    15A    -11.201139  
      16A    -11.201133    17A    -11.200608    18A    -11.200607  
      19A    -11.200594    20A    -11.200594    21A    -11.200503  
      22A    -11.200487    23A    -11.198084    24A    -11.198067  
      25A    -11.197981    26A    -11.197964    27A    -11.197861  
      28A    -11.197821    29A    -11.197808    30A    -11.197739  
      31A    -11.197708    32A    -11.197662    33A    -11.197546  
      34A    -11.197527    35A    -11.197525    36A    -11.197520  
      37A    -11.197457    38A    -11.197456    39A    -11.197451  
      40A    -11.197444    41A    -11.196977    42A    -11.196960  
      43A    -11.196827    44A    -11.196800    45A    -11.196733  
      46A    -11.196705    47A    -11.196196    48A    -11.196177  
      49A    -11.196082    50A    -11.196070    51A    -11.196065  
      52A    -11.196031    53A    -11.196018    54A    -11.196007  
      55A    -11.195992    56A    -11.195984    57A    -11.195961  
      58A    -11.195900    59A    -11.195870    60A    -11.195812  
      61A    -11.195776    62A    -11.195747    63A    -11.195631  
      64A    -11.195616    65A    -11.195066    66A    -11.195044  
      67A    -11.194799    68A    -11.194774    69A    -11.194721  
      70A    -11.194691    71A    -11.194119    72A    -11.194081  
      73A    -11.193862    74A    -11.193801    75A    -11.193684  
      76A    -11.193647    77A    -11.193368    78A    -11.193350  
      79A    -11.193298    80A    -11.193289    81A    -11.193273  
      82A    -11.193232    83A    -11.193222    84A    -11.193217  
      85A    -11.193194    86A    -11.193155    87A    -11.193142  
      88A    -11.193122    89A    -11.192598    90A    -11.192491  
      91A    -11.192411    92A    -11.192332    93A    -11.192175  
      94A    -11.192142    95A    -11.191483    96A    -11.191145  
      97A    -11.191069    98A    -11.190184    99A    -11.190111  
     100A    -11.189643   101A     -7.548216   102A     -1.420208  
     103A     -1.362680   104A     -1.360337   105A     -1.358078  
     106A     -1.186169   107A     -1.174106   108A     -1.173894  
     109A     -1.157033   110A     -1.157023   111A     -1.148968  
     112A     -1.138921   113A     -1.132773   114A     -1.122743  
     115A     -1.122506   116A     -1.111981   117A     -1.111946  
     118A     -1.090967   119A     -1.090935   120A     -1.087415  
     121A     -1.083286   122A     -1.083277   123A     -1.065268  
     124A     -1.051676   125A     -1.050587   126A     -1.050324  
     127A     -1.047744   128A     -1.047585   129A     -1.025363  
     130A     -1.025313   131A     -1.015726   132A     -1.015699  
     133A     -1.003751   134A     -1.003737   135A     -1.000236  
     136A     -0.984298   137A     -0.984285   138A     -0.977783  
     139A     -0.977482   140A     -0.977461   141A     -0.960898  
     142A     -0.955129   143A     -0.955037   144A     -0.945248  
     145A     -0.943413   146A     -0.940904   147A     -0.936709  
     148A     -0.936649   149A     -0.930339   150A     -0.907524  
     151A     -0.907510   152A     -0.893972   153A     -0.893926  
     154A     -0.845142   155A     -0.845108   156A     -0.840614  
     157A     -0.840581   158A     -0.838320   159A     -0.827021  
     160A     -0.826978   161A     -0.825790   162A     -0.825619  
     163A     -0.825488   164A     -0.810931   165A     -0.809680  
     166A     -0.790232   167A     -0.783999   168A     -0.783921  
     169A     -0.781016   170A     -0.779612   171A     -0.772314  
     172A     -0.772288   173A     -0.767481   174A     -0.767445  
     175A     -0.724123   176A     -0.724114   177A     -0.719462  
     178A     -0.719453   179A     -0.719000   180A     -0.718896  
     181A     -0.718008   182A     -0.704632   183A     -0.696280  
     184A     -0.686775   185A     -0.672886   186A     -0.664713  
     187A     -0.664634   188A     -0.662316   189A     -0.662157  
     190A     -0.662114   191A     -0.653863   192A     -0.650064  
     193A     -0.650031   194A     -0.638007   195A     -0.637961  
     196A     -0.624654   197A     -0.624638   198A     -0.622020  
     199A     -0.620256   200A     -0.620220   201A     -0.616427  
     202A     -0.611483   203A     -0.592180   204A     -0.589070  
     205A     -0.589065   206A     -0.588353   207A     -0.586110  
     208A     -0.586069   209A     -0.578478   210A     -0.577861  
     211A     -0.577608   212A     -0.577522   213A     -0.573124  
     214A     -0.573111   215A     -0.566809   216A     -0.554319  
     217A     -0.554299   218A     -0.548839   219A     -0.547386  
     220A     -0.547381   221A     -0.538680   222A     -0.537524  
     223A     -0.536774   224A     -0.536377   225A     -0.535437  
     226A     -0.535346   227A     -0.535326   228A     -0.533979  
     229A     -0.533951   230A     -0.533856   231A     -0.533530  
     232A     -0.533069   233A     -0.528844   234A     -0.528806  
     235A     -0.528394   236A     -0.522765   237A     -0.518092  
     238A     -0.518079   239A     -0.512292   240A     -0.512273  
     241A     -0.511905   242A     -0.505903   243A     -0.505868  
     244A     -0.503244   245A     -0.503223   246A     -0.501997  
     247A     -0.501120   248A     -0.498164   249A     -0.495697  
     250A     -0.495621   251A     -0.491584   252A     -0.488735  
     253A     -0.488308   254A     -0.481643   255A     -0.472100  
     256A     -0.472077   257A     -0.468876   258A     -0.468570  
     259A     -0.466526   260A     -0.466518   261A     -0.463496  
     262A     -0.456680   263A     -0.456424   264A     -0.454408  
     265A     -0.454354   266A     -0.453971   267A     -0.453940  
     268A     -0.448694   269A     -0.448651   270A     -0.435781  
     271A     -0.433703   272A     -0.433687   273A     -0.428836  
     274A     -0.428774   275A     -0.423608   276A     -0.420462  
     277A     -0.417982   278A     -0.417333   279A     -0.417098  
     280A     -0.416487   281A     -0.416471   282A     -0.412222  
     283A     -0.405616   284A     -0.403654   285A     -0.403637  
     286A     -0.395529   287A     -0.395433   288A     -0.394009  
     289A     -0.392811   290A     -0.381215   291A     -0.381113  
     292A     -0.376460   293A     -0.375301   294A     -0.374870  
     295A     -0.374325   296A     -0.372966   297A     -0.344225  
     298A     -0.344111   299A     -0.325272   300A     -0.325231  
     301A     -0.321900   302A     -0.321875   303A     -0.318221  
     304A     -0.291694   305A     -0.291675   306A     -0.287695  
     307A     -0.272339   308A     -0.272286   309A     -0.270743  
     310A     -0.266953   311A     -0.266708   312A     -0.242526  
     313A     -0.238686   314A     -0.236859   315A     -0.236698  
     316A     -0.223985   317A     -0.197181   318A     -0.188543  
     319A     -0.188414   320A     -0.141643   321A     -0.141547  

    Virtual:                                                              

     322A      0.050686   323A      0.050785   324A      0.092218  
     325A      0.092339   326A      0.092368   327A      0.094726  
     328A      0.094747   329A      0.098260   330A      0.099427  
     331A      0.099574   332A      0.100091   333A      0.102645  
     334A      0.108129   335A      0.108140   336A      0.119438  
     337A      0.119449   338A      0.126117   339A      0.128460  
     340A      0.129055   341A      0.133683   342A      0.133800  
     343A      0.134487   344A      0.134725   345A      0.135115  
     346A      0.135981   347A      0.136750   348A      0.136922  
     349A      0.137024   350A      0.140248   351A      0.140353  
     352A      0.144591   353A      0.146213   354A      0.146480  
     355A      0.146514   356A      0.147133   357A      0.147170  
     358A      0.153477   359A      0.158545   360A      0.158588  
     361A      0.158881   362A      0.161291   363A      0.161360  
     364A      0.161793   365A      0.165016   366A      0.166341  
     367A      0.166521   368A      0.167778   369A      0.168418  
     370A      0.169220   371A      0.169755   372A      0.170839  
     373A      0.170960   374A      0.174358   375A      0.176812  
     376A      0.176865   377A      0.177036   378A      0.178390  
     379A      0.178713   380A      0.184106   381A      0.184156  
     382A      0.187452   383A      0.188583   384A      0.191915  
     385A      0.192226   386A      0.195817   387A      0.195833  
     388A      0.197605   389A      0.198956   390A      0.199080  
     391A      0.200970   392A      0.201090   393A      0.208341  
     394A      0.211713   395A      0.212401   396A      0.212594  
     397A      0.213274   398A      0.214386   399A      0.215623  
     400A      0.216296   401A      0.216577   402A      0.217034  
     403A      0.220156   404A      0.220405   405A      0.221362  
     406A      0.221412   407A      0.221614   408A      0.222378  
     409A      0.222794   410A      0.224341   411A      0.226814  
     412A      0.231155   413A      0.232414   414A      0.234955  
     415A      0.234994   416A      0.237101   417A      0.239742  
     418A      0.239800   419A      0.240167   420A      0.240637  
     421A      0.240775   422A      0.244911   423A      0.247662  
     424A      0.248083   425A      0.249986   426A      0.250332  
     427A      0.253828   428A      0.254006   429A      0.254642  
     430A      0.256022   431A      0.256223   432A      0.256454  
     433A      0.257094   434A      0.257215   435A      0.260347  
     436A      0.261927   437A      0.263079   438A      0.267004  
     439A      0.267170   440A      0.268640   441A      0.269284  
     442A      0.269408   443A      0.269527   444A      0.269741  
     445A      0.270096   446A      0.271264   447A      0.271380  
     448A      0.272308   449A      0.272435   450A      0.273372  
     451A      0.273744   452A      0.275303   453A      0.275360  
     454A      0.281257   455A      0.282022   456A      0.283551  
     457A      0.284308   458A      0.285173   459A      0.287426  
     460A      0.288701   461A      0.288853   462A      0.289008  
     463A      0.290029   464A      0.290556   465A      0.291476  
     466A      0.291534   467A      0.292962   468A      0.293552  
     469A      0.294844   470A      0.301944   471A      0.302454  
     472A      0.302747   473A      0.305584   474A      0.307783  
     475A      0.309632   476A      0.311825   477A      0.312777  
     478A      0.312899   479A      0.313941   480A      0.314464  
     481A      0.315761   482A      0.316757   483A      0.317201  
     484A      0.317395   485A      0.317743   486A      0.320995  
     487A      0.321401   488A      0.323096   489A      0.323228  
     490A      0.324510   491A      0.325265   492A      0.326888  
     493A      0.326898   494A      0.328141   495A      0.333666  
     496A      0.334570   497A      0.334778   498A      0.336313  
     499A      0.336473   500A      0.336516   501A      0.338992  
     502A      0.339295   503A      0.340341   504A      0.343302  
     505A      0.343369   506A      0.343579   507A      0.344150  
     508A      0.346154   509A      0.347534   510A      0.349982  
     511A      0.354639   512A      0.355308   513A      0.355455  
     514A      0.357056   515A      0.357496   516A      0.359322  
     517A      0.362081   518A      0.362243   519A      0.362904  
     520A      0.363218   521A      0.363928   522A      0.364744  
     523A      0.364946   524A      0.366540   525A      0.366999  
     526A      0.367963   527A      0.368035   528A      0.369578  
     529A      0.371328   530A      0.371841   531A      0.371989  
     532A      0.372940   533A      0.373699   534A      0.375917  
     535A      0.376892   536A      0.377006   537A      0.380279  
     538A      0.381909   539A      0.382687   540A      0.383300  
     541A      0.384230   542A      0.385673   543A      0.385817  
     544A      0.386358   545A      0.386833   546A      0.387037  
     547A      0.387675   548A      0.388412   549A      0.390779  
     550A      0.392107   551A      0.392903   552A      0.394830  
     553A      0.394929   554A      0.397810   555A      0.398655  
     556A      0.398762   557A      0.400235   558A      0.401692  
     559A      0.402218   560A      0.403647   561A      0.404707  
     562A      0.405552   563A      0.411057   564A      0.412283  
     565A      0.413851   566A      0.414078   567A      0.416480  
     568A      0.417823   569A      0.419183   570A      0.419452  
     571A      0.420085   572A      0.420826   573A      0.421335  
     574A      0.422686   575A      0.423422   576A      0.425557  
     577A      0.425750   578A      0.427159   579A      0.429224  
     580A      0.429998   581A      0.430665   582A      0.434275  
     583A      0.434545   584A      0.435805   585A      0.437278  
     586A      0.438540   587A      0.438930   588A      0.439885  
     589A      0.441057   590A      0.442577   591A      0.445478  
     592A      0.445916   593A      0.446466   594A      0.447482  
     595A      0.447868   596A      0.449568   597A      0.450337  
     598A      0.451793   599A      0.452106   600A      0.453981  
     601A      0.454076   602A      0.455118   603A      0.456392  
     604A      0.456900   605A      0.457759   606A      0.458664  
     607A      0.459367   608A      0.460122   609A      0.460221  
     610A      0.461849   611A      0.462432   612A      0.463242  
     613A      0.464150   614A      0.464798   615A      0.466851  
     616A      0.467138   617A      0.467318   618A      0.468141  
     619A      0.468500   620A      0.468772   621A      0.470644  
     622A      0.471365   623A      0.471970   624A      0.472102  
     625A      0.472653   626A      0.473178   627A      0.473408  
     628A      0.476090   629A      0.477122   630A      0.477497  
     631A      0.477947   632A      0.479533   633A      0.479904  
     634A      0.481057   635A      0.482391   636A      0.483598  
     637A      0.484084   638A      0.484880   639A      0.485614  
     640A      0.485781   641A      0.488766   642A      0.489742  
     643A      0.490945   644A      0.491586   645A      0.493460  
     646A      0.494402   647A      0.494906   648A      0.495153  
     649A      0.495848   650A      0.496065   651A      0.496918  
     652A      0.498021   653A      0.498507   654A      0.500019  
     655A      0.500892   656A      0.501221   657A      0.501434  
     658A      0.504507   659A      0.504880   660A      0.507271  
     661A      0.507512   662A      0.510525   663A      0.511134  
     664A      0.512000   665A      0.512736   666A      0.512856  
     667A      0.513750   668A      0.514401   669A      0.515567  
     670A      0.516415   671A      0.516589   672A      0.517826  
     673A      0.519086   674A      0.520171   675A      0.521903  
     676A      0.522412   677A      0.522672   678A      0.523747  
     679A      0.526254   680A      0.526574   681A      0.528678  
     682A      0.529785   683A      0.530319   684A      0.530567  
     685A      0.534270   686A      0.535912   687A      0.536844  
     688A      0.536950   689A      0.537633   690A      0.538914  
     691A      0.539449   692A      0.541015   693A      0.542880  
     694A      0.543240   695A      0.544372   696A      0.544959  
     697A      0.545544   698A      0.545917   699A      0.546091  
     700A      0.549994   701A      0.552359   702A      0.553038  
     703A      0.553576   704A      0.554034   705A      0.554779  
     706A      0.554989   707A      0.556326   708A      0.557512  
     709A      0.558071   710A      0.558644   711A      0.559522  
     712A      0.560628   713A      0.561310   714A      0.562388  
     715A      0.562633   716A      0.562984   717A      0.564967  
     718A      0.565161   719A      0.569561   720A      0.570585  
     721A      0.571692   722A      0.572825   723A      0.573216  
     724A      0.576741   725A      0.579004   726A      0.579084  
     727A      0.580026   728A      0.580958   729A      0.581862  
     730A      0.583413   731A      0.584333   732A      0.587322  
     733A      0.588151   734A      0.588352   735A      0.589616  
     736A      0.593282   737A      0.594677   738A      0.595413  
     739A      0.597341   740A      0.597726   741A      0.598839  
     742A      0.600140   743A      0.600762   744A      0.601850  
     745A      0.607231   746A      0.608086   747A      0.610106  
     748A      0.611825   749A      0.613582   750A      0.614346  
     751A      0.620071   752A      0.621968   753A      0.622390  
     754A      0.624505   755A      0.626301   756A      0.627016  
     757A      0.627562   758A      0.627665   759A      0.631607  
     760A      0.633381   761A      0.634360   762A      0.634926  
     763A      0.636784   764A      0.641369   765A      0.641432  
     766A      0.644380   767A      0.645627   768A      0.647529  
     769A      0.648913   770A      0.649085   771A      0.650273  
     772A      0.650625   773A      0.651073   774A      0.653122  
     775A      0.656785   776A      0.658570   777A      0.659987  
     778A      0.660645   779A      0.663931   780A      0.665065  
     781A      0.665793   782A      0.669226   783A      0.669324  
     784A      0.670827   785A      0.672412   786A      0.673800  
     787A      0.675318   788A      0.677450   789A      0.680844  
     790A      0.681792   791A      0.682640   792A      0.683840  
     793A      0.685888   794A      0.688340   795A      0.690776  
     796A      0.693128   797A      0.695952   798A      0.700609  
     799A      0.702529   800A      0.703734   801A      0.708212  
     802A      0.708722   803A      0.709490   804A      0.710130  
     805A      0.714246   806A      0.721475   807A      0.721990  
     808A      0.722879   809A      0.723366   810A      0.724496  
     811A      0.728326   812A      0.729177   813A      0.732779  
     814A      0.736462   815A      0.737575   816A      0.740572  
     817A      0.741487   818A      0.743131   819A      0.744982  
     820A      0.750988   821A      0.752445   822A      0.752570  
     823A      0.753380   824A      0.754289   825A      0.755293  
     826A      0.757870   827A      0.758458   828A      0.760138  
     829A      0.766347   830A      0.770180   831A      0.771417  
     832A      0.771956   833A      0.777661   834A      0.778016  
     835A      0.778943   836A      0.783340   837A      0.787617  
     838A      0.788804   839A      0.793643   840A      0.793933  
     841A      0.795985   842A      0.800214   843A      0.802381  
     844A      0.804511   845A      0.807033   846A      0.810104  
     847A      0.814911   848A      0.816079   849A      0.816729  
     850A      0.817572   851A      0.818218   852A      0.819563  
     853A      0.836977   854A      0.841850   855A      0.847063  
     856A      0.849208   857A      0.850766   858A      0.851335  
     859A      0.855165   860A      0.856920   861A      0.857413  
     862A      0.859681   863A      0.862985   864A      0.863735  
     865A      0.865268   866A      0.866698   867A      0.868180  
     868A      0.871958   869A      0.874152   870A      0.875819  
     871A      0.876917   872A      0.877140   873A      0.879361  
     874A      0.879900   875A      0.881188   876A      0.888908  
     877A      0.889290   878A      0.891002   879A      0.897755  
     880A      0.898149   881A      0.899980   882A      0.902297  
     883A      0.905398   884A      0.906356   885A      0.906922  
     886A      0.907215   887A      0.910083   888A      0.913235  
     889A      0.913775   890A      0.914888   891A      0.919252  
     892A      0.920724   893A      0.922966   894A      0.923298  
     895A      0.924745   896A      0.927573   897A      0.929704  
     898A      0.931178   899A      0.932150   900A      0.932878  
     901A      0.936024   902A      0.936373   903A      0.938096  
     904A      0.938239   905A      0.940231   906A      0.942348  
     907A      0.943896   908A      0.945202   909A      0.946812  
     910A      0.948431   911A      0.950926   912A      0.953908  
     913A      0.954373   914A      0.955453   915A      0.957896  
     916A      0.959407   917A      0.959954   918A      0.960250  
     919A      0.965932   920A      0.966182   921A      0.968580  
     922A      0.971034   923A      0.973687   924A      0.973755  
     925A      0.974827   926A      0.976255   927A      0.976459  
     928A      0.979438   929A      0.981217   930A      0.982273  
     931A      0.982787   932A      0.985261   933A      0.988079  
     934A      0.989978   935A      0.990982   936A      0.993100  
     937A      0.993574   938A      0.994465   939A      0.996982  
     940A      0.997698   941A      1.000961   942A      1.003299  
     943A      1.004998   944A      1.005351   945A      1.006526  
     946A      1.008685   947A      1.009306   948A      1.011059  
     949A      1.011399   950A      1.011499   951A      1.015576  
     952A      1.016117   953A      1.016721   954A      1.016852  
     955A      1.017470   956A      1.021182   957A      1.022483  
     958A      1.023166   959A      1.025461   960A      1.026488  
     961A      1.032982   962A      1.033833   963A      1.037990  
     964A      1.040678   965A      1.043479   966A      1.044331  
     967A      1.048618   968A      1.054523   969A      1.054657  
     970A      1.055332   971A      1.056969   972A      1.059457  
     973A      1.062827   974A      1.065459   975A      1.065540  
     976A      1.066040   977A      1.066511   978A      1.067020  
     979A      1.067749   980A      1.069014   981A      1.075272  
     982A      1.076259   983A      1.078695   984A      1.079113  
     985A      1.081330   986A      1.083171   987A      1.084560  
     988A      1.084854   989A      1.089634   990A      1.090921  
     991A      1.092418   992A      1.093324   993A      1.097908  
     994A      1.098576   995A      1.104406   996A      1.106510  
     997A      1.108290   998A      1.108811   999A      1.109182  
    1000A      1.110762  1001A      1.111132  1002A      1.111616  
    1003A      1.112478  1004A      1.113347  1005A      1.114134  
    1006A      1.116333  1007A      1.117533  1008A      1.120294  
    1009A      1.120441  1010A      1.120777  1011A      1.122528  
    1012A      1.123907  1013A      1.124585  1014A      1.125420  
    1015A      1.128253  1016A      1.129994  1017A      1.131212  
    1018A      1.131945  1019A      1.132839  1020A      1.132972  
    1021A      1.134183  1022A      1.134943  1023A      1.136296  
    1024A      1.137391  1025A      1.138068  1026A      1.138419  
    1027A      1.138490  1028A      1.140161  1029A      1.141110  
    1030A      1.141962  1031A      1.142082  1032A      1.143067  
    1033A      1.143782  1034A      1.143955  1035A      1.144160  
    1036A      1.144810  1037A      1.145573  1038A      1.146787  
    1039A      1.147493  1040A      1.147685  1041A      1.149035  
    1042A      1.149668  1043A      1.151540  1044A      1.152213  
    1045A      1.153411  1046A      1.155065  1047A      1.157028  
    1048A      1.160634  1049A      1.161022  1050A      1.162937  
    1051A      1.163813  1052A      1.165256  1053A      1.166021  
    1054A      1.167222  1055A      1.167618  1056A      1.168542  
    1057A      1.171568  1058A      1.172280  1059A      1.176496  
    1060A      1.177745  1061A      1.179224  1062A      1.181456  
    1063A      1.184642  1064A      1.186731  1065A      1.187653  
    1066A      1.190449  1067A      1.191192  1068A      1.194314  
    1069A      1.194774  1070A      1.195723  1071A      1.197906  
    1072A      1.199337  1073A      1.199706  1074A      1.202209  
    1075A      1.205135  1076A      1.207155  1077A      1.209645  
    1078A      1.210641  1079A      1.211674  1080A      1.213294  
    1081A      1.214029  1082A      1.215299  1083A      1.216092  
    1084A      1.217003  1085A      1.219296  1086A      1.220363  
    1087A      1.221069  1088A      1.223827  1089A      1.226781  
    1090A      1.227340  1091A      1.228384  1092A      1.233144  
    1093A      1.235594  1094A      1.235916  1095A      1.238035  
    1096A      1.239493  1097A      1.246518  1098A      1.247770  
    1099A      1.248835  1100A      1.250565  1101A      1.251054  
    1102A      1.254879  1103A      1.255592  1104A      1.257011  
    1105A      1.258881  1106A      1.260856  1107A      1.262703  
    1108A      1.266365  1109A      1.267378  1110A      1.268195  
    1111A      1.272417  1112A      1.273739  1113A      1.274653  
    1114A      1.275506  1115A      1.276254  1116A      1.276383  
    1117A      1.280353  1118A      1.282118  1119A      1.282865  
    1120A      1.285925  1121A      1.288062  1122A      1.290150  
    1123A      1.291383  1124A      1.297837  1125A      1.299346  
    1126A      1.308616  1127A      1.313779  1128A      1.314248  
    1129A      1.315325  1130A      1.315904  1131A      1.316073  
    1132A      1.321002  1133A      1.323784  1134A      1.323855  
    1135A      1.327479  1136A      1.328902  1137A      1.330345  
    1138A      1.333167  1139A      1.335307  1140A      1.341732  
    1141A      1.343003  1142A      1.343349  1143A      1.349140  
    1144A      1.352954  1145A      1.353688  1146A      1.355336  
    1147A      1.356484  1148A      1.356621  1149A      1.359768  
    1150A      1.360079  1151A      1.363618  1152A      1.365227  
    1153A      1.365848  1154A      1.367499  1155A      1.372655  
    1156A      1.374374  1157A      1.375526  1158A      1.375913  
    1159A      1.377925  1160A      1.378844  1161A      1.379332  
    1162A      1.380451  1163A      1.382653  1164A      1.385375  
    1165A      1.387840  1166A      1.388533  1167A      1.389223  
    1168A      1.390868  1169A      1.391178  1170A      1.395771  
    1171A      1.396459  1172A      1.397982  1173A      1.398347  
    1174A      1.403374  1175A      1.403651  1176A      1.416704  
    1177A      1.418336  1178A      1.418971  1179A      1.421061  
    1180A      1.422585  1181A      1.423131  1182A      1.424396  
    1183A      1.424686  1184A      1.425423  1185A      1.425571  
    1186A      1.435014  1187A      1.436633  1188A      1.436913  
    1189A      1.437555  1190A      1.439525  1191A      1.440916  
    1192A      1.449422  1193A      1.449776  1194A      1.450147  
    1195A      1.453640  1196A      1.453977  1197A      1.458177  
    1198A      1.460259  1199A      1.466806  1200A      1.468129  
    1201A      1.470272  1202A      1.470431  1203A      1.471875  
    1204A      1.472002  1205A      1.472506  1206A      1.473100  
    1207A      1.478487  1208A      1.481046  1209A      1.484611  
    1210A      1.484871  1211A      1.485276  1212A      1.490400  
    1213A      1.491346  1214A      1.492557  1215A      1.493324  
    1216A      1.494567  1217A      1.494894  1218A      1.498759  
    1219A      1.499424  1220A      1.501363  1221A      1.503861  
    1222A      1.505032  1223A      1.506169  1224A      1.506781  
    1225A      1.514504  1226A      1.516379  1227A      1.517055  
    1228A      1.517873  1229A      1.518591  1230A      1.520084  
    1231A      1.523555  1232A      1.530713  1233A      1.535078  
    1234A      1.535299  1235A      1.536207  1236A      1.537281  
    1237A      1.538424  1238A      1.538792  1239A      1.546251  
    1240A      1.547412  1241A      1.547519  1242A      1.547882  
    1243A      1.555936  1244A      1.561138  1245A      1.561406  
    1246A      1.564678  1247A      1.568895  1248A      1.570209  
    1249A      1.571627  1250A      1.581781  1251A      1.582519  
    1252A      1.600203  1253A      1.600290  1254A      1.600951  
    1255A      1.609906  1256A      1.618156  1257A      1.618311  
    1258A      1.619851  1259A      1.648032  1260A      1.649673  
    1261A      1.654048  1262A      1.657851  1263A      1.658930  
    1264A      1.667112  1265A      1.670039  1266A      1.671543  
    1267A      1.672292  1268A      1.672776  1269A      1.674515  
    1270A      1.675330  1271A      1.676754  1272A      1.677306  
    1273A      1.680399  1274A      1.680537  1275A      1.681393  
    1276A      1.682254  1277A      1.683391  1278A      1.684371  
    1279A      1.685006  1280A      1.688766  1281A      1.690217  
    1282A      1.691192  1283A      1.691831  1284A      1.692719  
    1285A      1.694546  1286A      1.696425  1287A      1.698984  
    1288A      1.700748  1289A      1.701336  1290A      1.702676  
    1291A      1.702975  1292A      1.703943  1293A      1.704340  
    1294A      1.704485  1295A      1.705293  1296A      1.706363  
    1297A      1.707038  1298A      1.708819  1299A      1.711187  
    1300A      1.712277  1301A      1.714501  1302A      1.715612  
    1303A      1.718730  1304A      1.719097  1305A      1.720749  
    1306A      1.722743  1307A      1.730348  1308A      1.730980  
    1309A      1.733158  1310A      1.733485  1311A      1.733673  
    1312A      1.734641  1313A      1.736709  1314A      1.737550  
    1315A      1.738286  1316A      1.739308  1317A      1.742885  
    1318A      1.743931  1319A      1.750435  1320A      1.752714  
    1321A      1.756634  1322A      1.758151  1323A      1.761063  
    1324A      1.761529  1325A      1.762631  1326A      1.765068  
    1327A      1.770582  1328A      1.770738  1329A      1.773867  
    1330A      1.777328  1331A      1.777535  1332A      1.778231  
    1333A      1.781816  1334A      1.783510  1335A      1.786602  
    1336A      1.786968  1337A      1.789355  1338A      1.789556  
    1339A      1.792432  1340A      1.800475  1341A      1.810250  
    1342A      1.810427  1343A      1.811719  1344A      1.811939  
    1345A      1.814792  1346A      1.827714  1347A      1.829350  
    1348A      1.829700  1349A      1.842768  1350A      1.844167  
    1351A      1.846452  1352A      1.846880  1353A      1.869189  
    1354A      1.869374  1355A      1.873888  1356A      1.881507  
    1357A      1.885525  1358A      1.887987  1359A      1.888278  
    1360A      1.889156  1361A      1.889473  1362A      1.889768  
    1363A      1.894673  1364A      1.895774  1365A      1.897323  
    1366A      1.901136  1367A      1.903362  1368A      1.903681  
    1369A      1.904474  1370A      1.910890  1371A      1.911968  
    1372A      1.915042  1373A      1.916274  1374A      1.922516  
    1375A      1.923122  1376A      1.927193  1377A      1.927258  
    1378A      1.929130  1379A      1.930861  1380A      1.932281  
    1381A      1.933805  1382A      1.934301  1383A      1.935681  
    1384A      1.936303  1385A      1.941085  1386A      1.941355  
    1387A      1.941954  1388A      1.944747  1389A      1.946534  
    1390A      1.947053  1391A      1.947942  1392A      1.951373  
    1393A      1.953113  1394A      1.955712  1395A      1.964515  
    1396A      1.964716  1397A      1.966842  1398A      1.967807  
    1399A      1.972046  1400A      1.972268  1401A      1.975694  
    1402A      1.981510  1403A      1.981616  1404A      1.986015  
    1405A      1.987103  1406A      1.987333  1407A      1.989397  
    1408A      1.991162  1409A      1.991321  1410A      1.996337  
    1411A      1.996681  1412A      1.997683  1413A      1.999855  
    1414A      2.000893  1415A      2.002779  1416A      2.004151  
    1417A      2.006548  1418A      2.007151  1419A      2.007536  
    1420A      2.009248  1421A      2.010850  1422A      2.017344  
    1423A      2.018618  1424A      2.020160  1425A      2.021586  
    1426A      2.022306  1427A      2.023571  1428A      2.026026  
    1429A      2.028282  1430A      2.030908  1431A      2.031895  
    1432A      2.033046  1433A      2.035462  1434A      2.037621  
    1435A      2.039520  1436A      2.045144  1437A      2.046694  
    1438A      2.049313  1439A      2.049709  1440A      2.050715  
    1441A      2.052654  1442A      2.053403  1443A      2.056364  
    1444A      2.058207  1445A      2.059780  1446A      2.065057  
    1447A      2.065746  1448A      2.070968  1449A      2.073270  
    1450A      2.075600  1451A      2.076355  1452A      2.076470  
    1453A      2.078791  1454A      2.078953  1455A      2.080356  
    1456A      2.083835  1457A      2.084456  1458A      2.085196  
    1459A      2.086365  1460A      2.087262  1461A      2.090919  
    1462A      2.093050  1463A      2.094466  1464A      2.095044  
    1465A      2.096105  1466A      2.096655  1467A      2.100072  
    1468A      2.101510  1469A      2.101879  1470A      2.105486  
    1471A      2.112076  1472A      2.113674  1473A      2.118523  
    1474A      2.119216  1475A      2.120592  1476A      2.121241  
    1477A      2.122919  1478A      2.125586  1479A      2.127368  
    1480A      2.127789  1481A      2.129666  1482A      2.130381  
    1483A      2.133443  1484A      2.134222  1485A      2.136464  
    1486A      2.139891  1487A      2.140701  1488A      2.142263  
    1489A      2.143575  1490A      2.144381  1491A      2.145435  
    1492A      2.145822  1493A      2.146150  1494A      2.148444  
    1495A      2.149187  1496A      2.149541  1497A      2.150194  
    1498A      2.151056  1499A      2.152775  1500A      2.153215  
    1501A      2.154147  1502A      2.155359  1503A      2.155663  
    1504A      2.157161  1505A      2.161693  1506A      2.162540  
    1507A      2.163794  1508A      2.165404  1509A      2.166041  
    1510A      2.167843  1511A      2.170819  1512A      2.171000  
    1513A      2.172209  1514A      2.173622  1515A      2.175629  
    1516A      2.176456  1517A      2.178721  1518A      2.179096  
    1519A      2.179977  1520A      2.181167  1521A      2.182151  
    1522A      2.185271  1523A      2.185724  1524A      2.189036  
    1525A      2.189662  1526A      2.190812  1527A      2.192674  
    1528A      2.193591  1529A      2.194370  1530A      2.196268  
    1531A      2.198425  1532A      2.202673  1533A      2.203286  
    1534A      2.204139  1535A      2.205178  1536A      2.206742  
    1537A      2.208006  1538A      2.208504  1539A      2.209032  
    1540A      2.218590  1541A      2.219366  1542A      2.221756  
    1543A      2.222510  1544A      2.222830  1545A      2.223603  
    1546A      2.223764  1547A      2.224329  1548A      2.226031  
    1549A      2.227061  1550A      2.229338  1551A      2.233856  
    1552A      2.234892  1553A      2.241621  1554A      2.243043  
    1555A      2.244594  1556A      2.244867  1557A      2.253758  
    1558A      2.256561  1559A      2.258156  1560A      2.258278  
    1561A      2.260437  1562A      2.261406  1563A      2.262635  
    1564A      2.262765  1565A      2.263595  1566A      2.264735  
    1567A      2.266631  1568A      2.268276  1569A      2.269068  
    1570A      2.271009  1571A      2.273215  1572A      2.273659  
    1573A      2.279144  1574A      2.281938  1575A      2.282952  
    1576A      2.283642  1577A      2.284160  1578A      2.285828  
    1579A      2.289709  1580A      2.290217  1581A      2.290522  
    1582A      2.292249  1583A      2.293569  1584A      2.294260  
    1585A      2.301491  1586A      2.304428  1587A      2.305284  
    1588A      2.305876  1589A      2.307872  1590A      2.308219  
    1591A      2.310200  1592A      2.320260  1593A      2.321741  
    1594A      2.324024  1595A      2.325364  1596A      2.327878  
    1597A      2.330487  1598A      2.331583  1599A      2.342402  
    1600A      2.345178  1601A      2.346970  1602A      2.349854  
    1603A      2.351701  1604A      2.355679  1605A      2.358844  
    1606A      2.361302  1607A      2.365712  1608A      2.366203  
    1609A      2.371149  1610A      2.374710  1611A      2.387082  
    1612A      2.387451  1613A      2.389297  1614A      2.390261  
    1615A      2.391579  1616A      2.392113  1617A      2.393299  
    1618A      2.397677  1619A      2.398694  1620A      2.398735  
    1621A      2.400748  1622A      2.403492  1623A      2.405195  
    1624A      2.405465  1625A      2.407452  1626A      2.408124  
    1627A      2.408236  1628A      2.411742  1629A      2.415905  
    1630A      2.416360  1631A      2.436581  1632A      2.440368  
    1633A      2.443935  1634A      2.446268  1635A      2.450284  
    1636A      2.456160  1637A      2.460625  1638A      2.461766  
    1639A      2.464329  1640A      2.480784  1641A      2.482536  
    1642A      2.487661  1643A      2.490468  1644A      2.497918  
    1645A      2.505036  1646A      2.506298  1647A      2.517164  
    1648A      2.517303  1649A      2.526436  1650A      2.526757  
    1651A      2.530028  1652A      2.530303  1653A      2.533537  
    1654A      2.533818  1655A      2.551862  1656A      2.552203  
    1657A      2.559332  1658A      2.562952  1659A      2.567616  
    1660A      2.568350  1661A      2.571556  1662A      2.578284  
    1663A      2.601944  1664A      2.602830  1665A      2.603611  
    1666A      2.604363  1667A      2.605164  1668A      2.607875  
    1669A      2.609256  1670A      2.609713  1671A      2.613209  
    1672A      2.613933  1673A      2.622047  1674A      2.622389  
    1675A      2.626901  1676A      2.631197  1677A      2.633233  
    1678A      2.639806  1679A      2.642995  1680A      2.643620  
    1681A      2.646871  1682A      2.647573  1683A      2.647840  
    1684A      2.647876  1685A      2.651820  1686A      2.655035  
    1687A      2.663101  1688A      2.663323  1689A      2.675110  
    1690A      2.675208  1691A      2.675833  1692A      2.675970  
    1693A      2.679844  1694A      2.680265  1695A      2.695495  
    1696A      2.703265  1697A      2.703658  1698A      2.706451  
    1699A      2.708241  1700A      2.709337  1701A      2.712701  
    1702A      2.713420  1703A      2.713719  1704A      2.716783  
    1705A      2.717375  1706A      2.727856  1707A      2.729925  
    1708A      2.730796  1709A      2.730907  1710A      2.732014  
    1711A      2.738269  1712A      2.738596  1713A      2.739053  
    1714A      2.747392  1715A      2.749366  1716A      2.750629  
    1717A      2.753783  1718A      2.754287  1719A      2.754627  
    1720A      2.756404  1721A      2.758831  1722A      2.759995  
    1723A      2.768273  1724A      2.782094  1725A      2.791178  
    1726A      2.791734  1727A      2.792119  1728A      2.793551  
    1729A      2.793738  1730A      2.815634  1731A      2.827058  
    1732A      2.827632  1733A      2.840194  1734A      2.842612  
    1735A      2.844093  1736A      2.845318  1737A      2.864253  
    1738A      2.864387  1739A      2.866443  1740A      2.866689  
    1741A      2.869100  1742A      2.876905  1743A      2.878661  
    1744A      2.879538  1745A      2.880082  1746A      2.880889  
    1747A      2.884188  1748A      2.894256  1749A      2.894978  
    1750A      2.903763  1751A      2.905168  1752A      2.905970  
    1753A      2.906423  1754A      2.908921  1755A      2.929266  
    1756A      2.929730  1757A      2.931390  1758A      2.932973  
    1759A      2.933447  1760A      2.938067  1761A      2.963357  
    1762A      2.964189  1763A      2.977526  1764A      2.977765  
    1765A      2.983119  1766A      2.987051  1767A      2.989744  
    1768A      2.996384  1769A      2.996644  1770A      3.012958  
    1771A      3.025261  1772A      3.026341  1773A      3.028729  
    1774A      3.037854  1775A      3.053865  1776A      3.054209  
    1777A      3.091748  1778A      3.092307  1779A      3.096510  
    1780A      3.099366  1781A      3.108776  1782A      3.109491  
    1783A      3.110663  1784A      3.111272  1785A      3.119601  
    1786A      3.121184  1787A      3.122012  1788A      3.126437  
    1789A      3.135578  1790A      3.168902  1791A      3.173480  
    1792A      3.174822  1793A      3.186064  1794A      3.190470  
    1795A      3.191268  1796A      3.196753  1797A      3.197379  
    1798A      3.203184  1799A      3.203573  1800A      3.210397  
    1801A      3.211566  1802A      3.212483  1803A      3.213530  
    1804A      3.214456  1805A      3.221607  1806A      3.232980  
    1807A      3.233280  1808A      3.235416  1809A      3.236576  
    1810A      3.253210  1811A      3.254159  1812A      3.279619  
    1813A      3.314369  1814A      3.319319  1815A      3.319614  
    1816A      3.323993  1817A      3.325542  1818A      3.326536  
    1819A      3.331351  1820A      3.332087  1821A      3.333263  
    1822A      3.336914  1823A      3.337001  1824A      3.359611  
    1825A      3.360679  1826A      3.364634  1827A      3.367470  
    1828A      3.426972  1829A      3.427384  1830A      3.438667  
    1831A      3.481329  1832A      3.495085  1833A      3.501105  
    1834A      3.509821  1835A      3.519183  1836A      3.520646  
    1837A      3.529797  1838A      3.530744  1839A      3.534645  
    1840A      3.537802  1841A      3.540198  1842A      3.553387  
    1843A      3.554026  1844A      3.569157  1845A      3.574171  
    1846A      3.609113  1847A      3.638933  1848A      3.642119  
    1849A      3.649804  1850A      3.652750  1851A      3.706616  
    1852A      3.710899  1853A      3.729511  1854A      3.732256  
    1855A      3.770389  1856A      3.813065  1857A      3.814229  
    1858A      3.817048  1859A      3.829680  1860A      3.840253  
    1861A      3.850560  1862A      3.904830  1863A      3.907275  
    1864A      3.934188  1865A      3.937953  1866A      3.972323  
    1867A      3.977605  1868A      4.008598  1869A      4.010730  
    1870A      4.011555  1871A      4.012879  1872A      4.024489  
    1873A      4.035437  1874A      4.041720  1875A      4.090526  
    1876A      4.093607  1877A      4.144096  1878A      4.166286  
    1879A      4.167010  1880A      4.167256  1881A      4.195488  
    1882A      4.195698  1883A      4.196414  1884A      4.199819  
    1885A      4.200332  1886A      4.232167  1887A      4.239590  
    1888A      4.255166  1889A      4.306928  1890A      4.378458  
    1891A      4.440974  1892A      4.441964  1893A      4.443302  
    1894A      4.475138  1895A      4.643832  1896A      4.653106  
    1897A      4.655546  1898A      4.743927  1899A      4.779632  
    1900A      4.780565  

    Final Occupation by Irrep:
              A 
    DOCC [   321 ]
    NA   [   321 ]
    NB   [   321 ]

  @DF-RHF Final Energy: -4073.11037754280187

   => Energetics <=

    Nuclear Repulsion Energy =          17548.4748123013523582
    One-Electron Energy =              -40583.7945409069434390
    Two-Electron Energy =               18962.2093510627892101
    Total Energy =                      -4073.1103775428018707

Computation Completed


Properties will be evaluated at   0.000000,   0.000000,   0.000000 [a0]

Properties computed using the SCF density matrix


 Multipole Moments:

 ------------------------------------------------------------------------------------
     Multipole            Electronic (a.u.)      Nuclear  (a.u.)        Total (a.u.)
 ------------------------------------------------------------------------------------

 L = 1.  Multiply by 2.5417464519 to convert [e a0] to [Debye]
 Dipole X            :          0.0006845           -0.0001188            0.0005657
 Dipole Y            :          0.0013451           -0.0002727            0.0010724
 Dipole Z            :         20.6310597          -27.3756393           -6.7445795
 Magnitude           :                                                    6.7445796

 ------------------------------------------------------------------------------------

*** tstop() called on n2cn0952 at Wed Jan 24 23:16:07 2024
Module time:
	user time   =   26089.65 seconds =     434.83 minutes
	system time =    2045.38 seconds =      34.09 minutes
	total time  =      12925 seconds =     215.42 minutes
Total time:
	user time   =   26089.65 seconds =     434.83 minutes
	system time =    2045.38 seconds =      34.09 minutes
	total time  =      12925 seconds =     215.42 minutes

  //>>>>>>>>>>>>>>>>>>>>>>>>>>>>>>>>>>>//
  //            Monomer A HF           //
  //<<<<<<<<<<<<<<<<<<<<<<<<<<<<<<<<<<<//

   => Libint2 <=

    Primary   basis highest AM E, G, H:  5, 4, 3
    Auxiliary basis highest AM E, G, H:  6, 5, 4
    Onebody   basis highest AM E, G, H:  6, 5, 4
    Solid Harmonics ordering:            gaussian

*** tstart() called on n2cn0952
*** at Wed Jan 24 23:16:08 2024

   => Loading Basis Set <=

    Name: JUN-CC-PVDZ
    Role: ORBITAL
    Keyword: BASIS
    atoms 1                                                   entry B          line   130 file /opt/software/pc2/EB-SW/software/PSI4/1.9-foss-2022a/share/psi4/basis/jun-cc-pvdz.gbs 
    atoms 2-5                                                 entry F          line   266 file /opt/software/pc2/EB-SW/software/PSI4/1.9-foss-2022a/share/psi4/basis/jun-cc-pvdz.gbs 
    atoms 6-23, 30-42, 45-59, 62-78, 81-93, 98-108, 111-119   entry C          line   164 file /opt/software/pc2/EB-SW/software/PSI4/1.9-foss-2022a/share/psi4/basis/jun-cc-pvdz.gbs 
    atoms 24-29, 43-44, 60-61, 79-80, 94-97, 109-110, 120-125 entry H          line    36 file /opt/software/pc2/EB-SW/software/PSI4/1.9-foss-2022a/share/psi4/basis/jun-cc-pvdz.gbs 


         ---------------------------------------------------------
                                   SCF
               by Justin Turney, Rob Parrish, Andy Simmonett
                          and Daniel G. A. Smith
                              RHF Reference
                       16 Threads,  44822 MiB Core
         ---------------------------------------------------------

  ==> Geometry <==

    Molecular point group: c1
    Full point group: C1

    Geometry (in Angstrom), charge = -1, multiplicity = 1:

       Center              X                  Y                   Z               Mass       
    ------------   -----------------  -----------------  -----------------  -----------------
         B           -0.000050191042     0.000351518223     4.283163504926    11.009305360000
         F           -1.153601191042     0.000062518223     5.098810504926    18.998403162730
         F            1.153656808958    -0.000566481777     5.098810504926    18.998403162730
         F           -0.000023191042    -1.153622481777     3.467529504926    18.998403162730
         F           -0.000023191042     1.153992518223     3.467529504926    18.998403162730
      Gh(C)          -3.668445455062     7.803766688305    -0.314930453738    12.000000000000
      Gh(C)          -4.847602910388     7.131256349563    -0.317297028671    12.000000000000
      Gh(C)          -4.894963490217     5.696344921754    -0.317869939769    12.000000000000
      Gh(C)          -3.653744869815     4.980744859182    -0.310209498039    12.000000000000
      Gh(C)          -2.409429312536     7.113995554897    -0.314736111478    12.000000000000
      Gh(C)          -2.425481535146     5.681136469126    -0.321741000348    12.000000000000
      Gh(C)          -1.194748207477     7.786158712532    -0.313263930936    12.000000000000
      Gh(C)           0.037954837895     7.099436163980    -0.315434635241    12.000000000000
      Gh(C)           0.030328396378     5.669504077927    -0.320918020157    12.000000000000
      Gh(C)          -1.200988698947     4.969284866138    -0.311948286223    12.000000000000
      Gh(C)           1.277953634773     7.772873961417    -0.314058786680    12.000000000000
      Gh(C)           2.485353893683     7.087711403460    -0.316333274585    12.000000000000
      Gh(C)           2.486124493876     5.654785328463    -0.323271023573    12.000000000000
      Gh(C)           1.254078728602     4.956092631887    -0.311643081985    12.000000000000
      Gh(C)           3.751710400364     7.763926669203    -0.316206423205    12.000000000000
      Gh(C)           4.923561865144     7.078795295213    -0.318262903913    12.000000000000
      Gh(C)           4.955603080284     5.643461981592    -0.318423316720    12.000000000000
      Gh(C)           3.706797343163     4.941224726556    -0.313331756550    12.000000000000
      Gh(H)          -3.658525328800     8.890841937358    -0.313245465488     1.007825032230
      Gh(H)          -1.189217520798     8.874135605583    -0.309292054495     1.007825032230
      Gh(H)           1.284290047845     8.860847953711    -0.309899962540     1.007825032230
      Gh(H)           3.753537895758     8.851049797195    -0.314683898889     1.007825032230
      Gh(H)           5.869954512165     7.613809352878    -0.319188270955     1.007825032230
      Gh(H)          -5.788235898544     7.676316731157    -0.318856876027     1.007825032230
      Gh(C)          -6.091978149738     4.993274531866    -0.319742180260    12.000000000000
[...]
    1501A      2.115955  1502A      2.116850  1503A      2.117752  
    1504A      2.119963  1505A      2.120543  1506A      2.127418  
    1507A      2.127702  1508A      2.127947  1509A      2.128660  
    1510A      2.129014  1511A      2.129629  1512A      2.132909  
    1513A      2.134067  1514A      2.137122  1515A      2.139022  
    1516A      2.139292  1517A      2.143116  1518A      2.143555  
    1519A      2.143949  1520A      2.144649  1521A      2.145929  
    1522A      2.152437  1523A      2.155677  1524A      2.157526  
    1525A      2.157917  1526A      2.159873  1527A      2.160607  
    1528A      2.160703  1529A      2.161185  1530A      2.162624  
    1531A      2.163690  1532A      2.165278  1533A      2.171865  
    1534A      2.172487  1535A      2.181066  1536A      2.181848  
    1537A      2.182880  1538A      2.182999  1539A      2.190071  
    1540A      2.191787  1541A      2.191947  1542A      2.193902  
    1543A      2.195767  1544A      2.196693  1545A      2.198132  
    1546A      2.200252  1547A      2.200938  1548A      2.201566  
    1549A      2.202355  1550A      2.203115  1551A      2.206026  
    1552A      2.208508  1553A      2.210201  1554A      2.212119  
    1555A      2.215120  1556A      2.217549  1557A      2.220247  
    1558A      2.222522  1559A      2.222847  1560A      2.225265  
    1561A      2.225995  1562A      2.226451  1563A      2.229352  
    1564A      2.232065  1565A      2.232599  1566A      2.234376  
    1567A      2.239010  1568A      2.239165  1569A      2.239828  
    1570A      2.242276  1571A      2.247916  1572A      2.248501  
    1573A      2.253336  1574A      2.254972  1575A      2.262887  
    1576A      2.264027  1577A      2.266348  1578A      2.268025  
    1579A      2.269210  1580A      2.271460  1581A      2.278038  
    1582A      2.283259  1583A      2.284534  1584A      2.291506  
    1585A      2.292343  1586A      2.296785  1587A      2.296960  
    1588A      2.304357  1589A      2.304664  1590A      2.309336  
    1591A      2.321838  1592A      2.325198  1593A      2.325408  
    1594A      2.326188  1595A      2.327553  1596A      2.330190  
    1597A      2.330667  1598A      2.332126  1599A      2.333367  
    1600A      2.335117  1601A      2.335385  1602A      2.340570  
    1603A      2.341988  1604A      2.342433  1605A      2.342484  
    1606A      2.345097  1607A      2.345935  1608A      2.346405  
    1609A      2.349191  1610A      2.349561  1611A      2.369224  
    1612A      2.373113  1613A      2.374629  1614A      2.384390  
    1615A      2.388125  1616A      2.391984  1617A      2.395239  
    1618A      2.396507  1619A      2.398406  1620A      2.418578  
    1621A      2.419927  1622A      2.424151  1623A      2.427956  
    1624A      2.432517  1625A      2.442524  1626A      2.443838  
    1627A      2.453032  1628A      2.453196  1629A      2.464626  
    1630A      2.464780  1631A      2.468169  1632A      2.468343  
    1633A      2.472003  1634A      2.472250  1635A      2.491219  
    1636A      2.491531  1637A      2.495724  1638A      2.502078  
    1639A      2.506883  1640A      2.508011  1641A      2.511714  
    1642A      2.516437  1643A      2.539798  1644A      2.539864  
    1645A      2.540258  1646A      2.542243  1647A      2.543378  
    1648A      2.545405  1649A      2.547776  1650A      2.549219  
    1651A      2.549514  1652A      2.551703  1653A      2.556669  
    1654A      2.556849  1655A      2.564326  1656A      2.571543  
    1657A      2.571572  1658A      2.580261  1659A      2.584262  
    1660A      2.584865  1661A      2.585320  1662A      2.586381  
    1663A      2.588815  1664A      2.588969  1665A      2.593264  
    1666A      2.593667  1667A      2.601735  1668A      2.601898  
    1669A      2.613427  1670A      2.613785  1671A      2.614042  
    1672A      2.614629  1673A      2.617694  1674A      2.618311  
    1675A      2.632764  1676A      2.640917  1677A      2.641713  
    1678A      2.644123  1679A      2.645704  1680A      2.648223  
    1681A      2.649361  1682A      2.649722  1683A      2.653733  
    1684A      2.656091  1685A      2.656296  1686A      2.666174  
    1687A      2.666360  1688A      2.667823  1689A      2.670728  
    1690A      2.670873  1691A      2.673934  1692A      2.677945  
    1693A      2.678680  1694A      2.684860  1695A      2.686057  
    1696A      2.687743  1697A      2.691364  1698A      2.691548  
    1699A      2.692051  1700A      2.693852  1701A      2.696199  
    1702A      2.697521  1703A      2.704454  1704A      2.720937  
    1705A      2.730814  1706A      2.731061  1707A      2.731518  
    1708A      2.731679  1709A      2.732069  1710A      2.753690  
    1711A      2.760786  1712A      2.761226  1713A      2.773440  
    1714A      2.776506  1715A      2.780629  1716A      2.780901  
    1717A      2.799536  1718A      2.800003  1719A      2.802208  
    1720A      2.802331  1721A      2.802615  1722A      2.809540  
    1723A      2.812780  1724A      2.815015  1725A      2.816204  
    1726A      2.816538  1727A      2.817164  1728A      2.827385  
    1729A      2.828994  1730A      2.836637  1731A      2.840260  
    1732A      2.840942  1733A      2.842328  1734A      2.844207  
    1735A      2.845633  1736A      2.854530  1737A      2.865225  
    1738A      2.865741  1739A      2.870167  1740A      2.871000  
    1741A      2.871539  1742A      2.875495  1743A      2.892715  
    1744A      2.896066  1745A      2.896978  1746A      2.917851  
    1747A      2.917981  1748A      2.918718  1749A      2.927600  
    1750A      2.929939  1751A      2.935487  1752A      2.935897  
    1753A      2.964046  1754A      2.965578  1755A      2.965927  
    1756A      2.976404  1757A      2.992309  1758A      2.993020  
    1759A      3.029787  1760A      3.030799  1761A      3.036441  
    1762A      3.038871  1763A      3.047087  1764A      3.048315  
    1765A      3.048402  1766A      3.057725  1767A      3.057744  
    1768A      3.063930  1769A      3.073069  1770A      3.108712  
    1771A      3.113343  1772A      3.113493  1773A      3.123084  
    1774A      3.127867  1775A      3.128541  1776A      3.133763  
    1777A      3.134702  1778A      3.142632  1779A      3.143204  
    1780A      3.148781  1781A      3.149534  1782A      3.150431  
    1783A      3.150726  1784A      3.153765  1785A      3.162163  
    1786A      3.168022  1787A      3.173265  1788A      3.175345  
    1789A      3.175956  1790A      3.193302  1791A      3.194078  
    1792A      3.220224  1793A      3.253678  1794A      3.260130  
    1795A      3.261969  1796A      3.262107  1797A      3.263139  
    1798A      3.265070  1799A      3.269353  1800A      3.271655  
    1801A      3.275464  1802A      3.275612  1803A      3.296321  
    1804A      3.297250  1805A      3.299511  1806A      3.304908  
    1807A      3.362041  1808A      3.362808  1809A      3.372097  
    1810A      3.416247  1811A      3.430555  1812A      3.434636  
    1813A      3.438132  1814A      3.451606  1815A      3.452427  
    1816A      3.463751  1817A      3.465465  1818A      3.467623  
    1819A      3.472446  1820A      3.474802  1821A      3.486243  
    1822A      3.487183  1823A      3.501231  1824A      3.509370  
    1825A      3.542092  1826A      3.574518  1827A      3.576993  
    1828A      3.584662  1829A      3.590395  1830A      3.640787  
    1831A      3.643702  1832A      3.666055  1833A      3.668392  
    1834A      3.705778  1835A      3.748575  1836A      3.751360  
    1837A      3.751882  1838A      3.763340  1839A      3.778657  
    1840A      3.782327  1841A      3.842670  1842A      3.844138  
    1843A      3.871634  1844A      3.875124  1845A      3.908955  
    1846A      3.914278  1847A      3.940626  1848A      3.942798  
    1849A      3.948616  1850A      3.949564  1851A      3.959619  
    1852A      3.967781  1853A      3.973419  1854A      4.024773  
    1855A      4.027578  1856A      4.075939  1857A      4.228913  
    1858A      4.244482  1859A      4.305722  1860A      4.340206  
    1861A      4.352898  1862A      4.399733  1863A      4.404736  
    1864A      5.752487  1865A      5.753620  1866A      5.759851  
    1867A      5.761637  1868A      5.763396  1869A      5.764079  
    1870A      5.766522  1871A      5.766685  1872A      5.792290  
    1873A      5.796901  1874A      5.808943  1875A      6.023766  
    1876A      6.025318  1877A      6.026017  1878A      6.202032  
    1879A      6.330767  1880A      6.331025  1881A      6.382895  
    1882A      6.385006  1883A      6.386131  1884A      7.193156  
    1885A      7.261930  1886A      7.276161  1887A      7.288217  
    1888A      7.318658  1889A      7.338599  1890A      7.346833  
    1891A      7.353819  1892A      7.498927  1893A      7.552221  
    1894A      7.629575  1895A      7.721539  1896A     12.658776  
    1897A     42.920780  1898A     42.938749  1899A     42.945587  
    1900A     42.954524  

    Final Occupation by Irrep:
              A 
    DOCC [   300 ]
    NA   [   300 ]
    NB   [   300 ]

  @DF-RHF Final Energy: -3650.33934070540818

   => Energetics <=

    Nuclear Repulsion Energy =          15611.4211649754324753
    One-Electron Energy =              -36072.1275393456598977
    Two-Electron Energy =               16810.3670336648174271
    Total Energy =                      -3650.3393407054099953

Computation Completed


Properties will be evaluated at   0.000000,   0.000000,   0.000000 [a0]

Properties computed using the SCF density matrix


 Multipole Moments:

 ------------------------------------------------------------------------------------
     Multipole            Electronic (a.u.)      Nuclear  (a.u.)        Total (a.u.)
 ------------------------------------------------------------------------------------

 L = 1.  Multiply by 2.5417464519 to convert [e a0] to [Debye]
 Dipole X            :         -0.0005759            0.0001983           -0.0003775
 Dipole Y            :          0.0011397           -0.0013163           -0.0001766
 Dipole Z            :        359.2264642         -359.2303264           -0.0038622
 Magnitude           :                                                    0.0038846

 ------------------------------------------------------------------------------------

*** tstop() called on n2cn0952 at Thu Jan 25 01:43:28 2024
Module time:
	user time   =   18357.20 seconds =     305.95 minutes
	system time =    1415.00 seconds =      23.58 minutes
	total time  =       6256 seconds =     104.27 minutes
Total time:
	user time   =   48825.77 seconds =     813.76 minutes
	system time =    3750.10 seconds =      62.50 minutes
	total time  =      21766 seconds =     362.77 minutes
  Constructing Basis Sets for SAPT...

   => Loading Basis Set <=

    Name: (JUN-CC-PVDZ AUX)
    Role: RIFIT
    Keyword: DF_BASIS_SAPT
    atoms 1                                                   entry B          line    56 file /opt/software/pc2/EB-SW/software/PSI4/1.9-foss-2022a/share/psi4/basis/jun-cc-pvdz-ri.gbs 
    atoms 2-5                                                 entry F          line   232 file /opt/software/pc2/EB-SW/software/PSI4/1.9-foss-2022a/share/psi4/basis/jun-cc-pvdz-ri.gbs 
    atoms 6-23, 30-42, 45-59, 62-78, 81-93, 98-108, 111-119   entry C          line   100 file /opt/software/pc2/EB-SW/software/PSI4/1.9-foss-2022a/share/psi4/basis/jun-cc-pvdz-ri.gbs 
    atoms 24-29, 43-44, 60-61, 79-80, 94-97, 109-110, 120-125 entry H          line    30 file /opt/software/pc2/EB-SW/software/PSI4/1.9-foss-2022a/share/psi4/basis/jun-cc-pvdz-ri.gbs 

   => Loading Basis Set <=

    Name: (JUN-CC-PVDZ AUX)
    Role: JKFIT
    Keyword: DF_BASIS_ELST
    atoms 1                                                   entry B          line    90 file /opt/software/pc2/EB-SW/software/PSI4/1.9-foss-2022a/share/psi4/basis/jun-cc-pvdz-jkfit.gbs 
    atoms 2-5                                                 entry F          line   314 file /opt/software/pc2/EB-SW/software/PSI4/1.9-foss-2022a/share/psi4/basis/jun-cc-pvdz-jkfit.gbs 
    atoms 6-23, 30-42, 45-59, 62-78, 81-93, 98-108, 111-119   entry C          line   146 file /opt/software/pc2/EB-SW/software/PSI4/1.9-foss-2022a/share/psi4/basis/jun-cc-pvdz-jkfit.gbs 
    atoms 24-29, 43-44, 60-61, 79-80, 94-97, 109-110, 120-125 entry H          line    70 file /opt/software/pc2/EB-SW/software/PSI4/1.9-foss-2022a/share/psi4/basis/jun-cc-pvdz-jkfit.gbs 


  //>>>>>>>>>>>>>>>>>>>>>>>>>>>>>>>>>>>//
  //               SSAPT0              //
  //<<<<<<<<<<<<<<<<<<<<<<<<<<<<<<<<<<<//


*** tstart() called on n2cn0952
*** at Thu Jan 25 01:43:30 2024

        SAPT0  
    Ed Hohenstein
     6 June 2009

      Orbital Information
  --------------------------
    NSO        =      1938
    NMO        =      1900
    NRI        =      6901
    NRI (Elst) =      8531
    NOCC A     =        21
    NOCC B     =       300
    FOCC A     =         5
    FOCC B     =        96
    NVIR A     =      1879
    NVIR B     =      1600

    Elst10,r            =     0.011436507577 [Eh]
    Exch10              =     0.000565573984 [Eh]
    Exch10 (S^2)        =     0.000565575825 [Eh]

    Iter     Energy [mEh]          dE [mEh]         Residual      Time [s]
       1      -0.04660920       0.046609198       0.884436460           842
       2      -0.05504445       0.008435254       0.342757776          1355
       3      -0.05577796       0.000733513       0.055743386          1932
       4      -0.05565991      -0.000118058       0.014681619          2582
       5      -0.05565763      -0.000002281       0.003616749          3006
       6      -0.05566110       0.000003476       0.001164904          3441
       7      -0.05566200       0.000000900       0.000220341          3861
       8      -0.05566167      -0.000000335       0.000050160          4372
       9      -0.05566168       0.000000008       0.000011239          4831
      10      -0.05566169       0.000000013       0.000001472          5297
      11      -0.05566169      -0.000000001       0.000000332          5710

    CHF Iterations converged


    Iter     Energy [mEh]          dE [mEh]         Residual      Time [s]
       1     -16.55108582      16.551085815      70.658953458           497
       2     -10.55127709      -5.999808725       8.567337377          1071
       3     -10.48776420      -0.063512886       2.819051780          1425
       4     -10.67374093       0.185976731       0.951872970          1800
       5     -10.70271874       0.028977805       0.323552179          2250
       6     -10.69852070      -0.004198037       0.215725462          2682
       7     -10.69320494      -0.005315767       0.085295802          3078
       8     -10.69359817       0.000393235       0.037616596          3420
       9     -10.69457141       0.000973242       0.018563182          4171
      10     -10.69450298      -0.000068429       0.019123596          4639
      11     -10.69425027      -0.000252711       0.009490938          4957
      12     -10.69425550       0.000005224       0.004729617          5292
      13     -10.69430622       0.000050722       0.001871617          5613
      14     -10.69432065       0.000014434       0.000884443          5976
      15     -10.69431590      -0.000004755       0.000599550          6312
      16     -10.69430676      -0.000009139       0.000308058          6693
      17     -10.69431085       0.000004089       0.000130356          7016
      18     -10.69431210       0.000001248       0.000040051          7350
      19     -10.69431181      -0.000000286       0.000020248          7686
      20     -10.69431154      -0.000000272       0.000008139          8071
      21     -10.69431158       0.000000036       0.000003946          8504
      22     -10.69431162       0.000000041       0.000001860          8935
      23     -10.69431161      -0.000000003       0.000000770          9373

    CHF Iterations converged

    Ind20,r (A<-B)      =    -0.000055661687 [Eh]
    Ind20,r (B<-A)      =    -0.010694311613 [Eh]
    Ind20,r             =    -0.010749973300 [Eh]
    Exch-Ind20,r (A<-B) =     0.000045393171 [Eh]
    Exch-Ind20,r (B<-A) =     0.000069137293 [Eh]
    Exch-Ind20,r        =     0.000114530464 [Eh]
    Disp20              =    -0.003864323548 [Eh]
    Disp20 (SS)         =    -0.001932161774 [Eh]
    Disp20 (OS)         =    -0.001932161774 [Eh]
    Exch-Disp20         =     0.000123573422 [Eh]
    Exch-Disp20 (SS)    =     0.000080448336 [Eh]
    Exch-Disp20 (OS)    =     0.000043125086 [Eh]

    SAPT Results 
  --------------------------------------------------------------------------------------------------------
    Electrostatics                 11.43650758 [mEh]       7.17651685 [kcal/mol]      30.02654651 [kJ/mol]
      Elst10,r                     11.43650758 [mEh]       7.17651685 [kcal/mol]      30.02654651 [kJ/mol]

    Exchange                        0.56557398 [mEh]       0.35490303 [kcal/mol]       1.48491429 [kJ/mol]
      Exch10                        0.56557398 [mEh]       0.35490303 [kcal/mol]       1.48491429 [kJ/mol]
      Exch10(S^2)                   0.56557582 [mEh]       0.35490419 [kcal/mol]       1.48491912 [kJ/mol]

    Induction                     -10.61461989 [mEh]      -6.66077454 [kcal/mol]     -27.86868067 [kJ/mol]
      Ind20,r                     -10.74997330 [mEh]      -6.74571009 [kcal/mol]     -28.22405101 [kJ/mol]
      Exch-Ind20,r                  0.11453046 [mEh]       0.07186895 [kcal/mol]       0.30069969 [kJ/mol]
      delta HF,r (2)                0.02082295 [mEh]       0.01306660 [kcal/mol]       0.05467065 [kJ/mol]

    Dispersion                     -3.74075013 [mEh]      -2.34735614 [kcal/mol]      -9.82133810 [kJ/mol]
      Disp20                       -3.86432355 [mEh]      -2.42489964 [kcal/mol]     -10.14578008 [kJ/mol]
      Exch-Disp20                   0.12357342 [mEh]       0.07754349 [kcal/mol]       0.32444197 [kJ/mol]
      Disp20 (SS)                  -1.93216177 [mEh]      -1.21244982 [kcal/mol]      -5.07289004 [kJ/mol]
      Disp20 (OS)                  -1.93216177 [mEh]      -1.21244982 [kcal/mol]      -5.07289004 [kJ/mol]
      Exch-Disp20 (SS)              0.08044834 [mEh]       0.05048209 [kcal/mol]       0.21121708 [kJ/mol]
      Exch-Disp20 (OS)              0.04312509 [mEh]       0.02706140 [kcal/mol]       0.11322490 [kJ/mol]

  Total HF                          1.38746168 [mEh]       0.87064535 [kcal/mol]       3.64278013 [kJ/mol]
  Total SAPT0                      -2.35328845 [mEh]      -1.47671080 [kcal/mol]      -6.17855798 [kJ/mol]

  Special recipe for scaled SAPT0 (see Manual):
    Electrostatics sSAPT0          11.43650758 [mEh]       7.17651685 [kcal/mol]      30.02654651 [kJ/mol]
    Exchange sSAPT0                 0.56557398 [mEh]       0.35490303 [kcal/mol]       1.48491429 [kJ/mol]
    Induction sSAPT0              -10.61462100 [mEh]      -6.66077524 [kcal/mol]     -27.86868361 [kJ/mol]
    Dispersion sSAPT0              -3.74075133 [mEh]      -2.34735690 [kcal/mol]      -9.82134127 [kJ/mol]
  Total sSAPT0                     -2.35329078 [mEh]      -1.47671226 [kcal/mol]      -6.17856408 [kJ/mol]
  --------------------------------------------------------------------------------------------------------

*** tstop() called on n2cn0952 at Thu Jan 25 16:06:28 2024
Module time:
	user time   =   74809.29 seconds =    1246.82 minutes
	system time =    3339.44 seconds =      55.66 minutes
	total time  =      51778 seconds =     862.97 minutes
Total time:
	user time   =  123636.49 seconds =    2060.61 minutes
	system time =    7089.55 seconds =     118.16 minutes
	total time  =      73546 seconds =    1225.77 minutes

    Psi4 stopped on: Thursday, 25 January 2024 04:06PM
    Psi4 wall time for execution: 20:25:47.36

*** Psi4 exiting successfully. Buy a developer a beer!
