
    -----------------------------------------------------------------------
          Psi4: An Open-Source Ab Initio Electronic Structure Package
                               Psi4 1.9 release

                         Git: Rev {} zzzzzzz 


    D. G. A. Smith, L. A. Burns, A. C. Simmonett, R. M. Parrish,
    M. C. Schieber, R. Galvelis, P. Kraus, H. Kruse, R. Di Remigio,
    A. Alenaizan, A. M. James, S. Lehtola, J. P. Misiewicz, M. Scheurer,
    R. A. Shaw, J. B. Schriber, Y. Xie, Z. L. Glick, D. A. Sirianni,
    J. S. O'Brien, J. M. Waldrop, A. Kumar, E. G. Hohenstein,
    B. P. Pritchard, B. R. Brooks, H. F. Schaefer III, A. Yu. Sokolov,
    K. Patkowski, A. E. DePrince III, U. Bozkaya, R. A. King,
    F. A. Evangelista, J. M. Turney, T. D. Crawford, C. D. Sherrill,
    J. Chem. Phys. 152(18) 184108 (2020). https://doi.org/10.1063/5.0006002

                            Additional Code Authors
    E. T. Seidl, C. L. Janssen, E. F. Valeev, M. L. Leininger,
    J. F. Gonthier, R. M. Richard, H. R. McAlexander, M. Saitow, X. Wang,
    P. Verma, M. H. Lechner, A. Jiang, S. Behnle, A. G. Heide,
    M. F. Herbst, and D. L. Poole

             Previous Authors, Complete List of Code Contributors,
                       and Citations for Specific Modules
    https://github.com/psi4/psi4/blob/master/codemeta.json
    https://github.com/psi4/psi4/graphs/contributors
    http://psicode.org/psi4manual/master/introduction.html#citing-psifour

    -----------------------------------------------------------------------


    Psi4 started on: Saturday, 27 January 2024 10:41AM

    Process ID: 2680975
    Host:       n2cn0572
    PSIDATADIR: /opt/software/pc2/EB-SW/software/PSI4/1.9-foss-2022a/share/psi4
    Memory:     500.0 MiB
    Threads:    16
    
  ==> Input File <==

--------------------------------------------------------------------------
memory 64 GB # how much memory is available ! Depends on the nodes/cores !

molecule dimer {
# monomer A
-1 1    # Charge and multiplicity
B -1.977592e-04  2.742729e-04 -2.599966
F  1.123153e-16  1.430594e-17 -1.187181
F  1.147860e+00  6.757812e-01 -3.071107
F  1.191806e-02 -1.332011e+00 -3.070905
F -1.159666e+00  6.560735e-01 -3.070826
--
# monomer B
0 1     # Charge and multiplicity
C   -3.66844126402057      7.80375217008252      0.00190004133558
C   -4.84759871934653      7.13124183134024     -0.00046653359696
C   -4.89495929917518      5.69633040353158     -0.00103944469517
C   -3.65374067877320      4.98073034095895      0.00662099703436
C   -2.40942512149445      7.11398103667468      0.00209438359570
C   -2.42547734410473      5.68112195090346     -0.00491050527438
C   -1.19474401643570      7.78614419430947      0.00356656413763
C   0.03795902893699      7.09942164575698      0.00139585983271
C   0.03033258741920      5.66948955970466     -0.00408752508301
C   -1.20098450790502      4.96927034791531      0.00488220885047
C   1.27795782581485      7.77285944319479      0.00277170839332
C   2.48535808472416      7.08769688523756      0.00049722048857
C   2.48612868491717      5.65477081024076     -0.00644052849921
C   1.25408291964399      4.95607811366431      0.00518741308898
C   3.75171459140595      7.76391215098033      0.00062407186893
C   4.92356605618520      7.07878077698995     -0.00143240883900
C   4.95560727132542      5.64344746336949     -0.00159282164606
C   3.70680153420475      4.94121020833308      0.00349873852374
H   -3.65852113775815      8.89082741913536      0.00358502958574
H   -1.18921332975660      8.87412108735996      0.00753844057883
H   1.28429423888630      8.86083343548850      0.00693053253426
H   3.75354208679975      8.85103527897216      0.00214659618464
H   5.86995870320703      7.61379483465560     -0.00235777588134
H   -5.78823170750226      7.67630221293400     -0.00202638095293
C   -6.09197395869619      4.99326001364347     -0.00291168518608
C   -6.12866148031747      3.58258016879823     -0.00171050815740
C   -3.66457974004527      3.56418217974434     -0.00463560277484
C   -4.89429820469869      2.86108077590057      0.00453338221034
C   -2.43733499489796      2.84761165708481      0.00719617576166
C   -1.20922785759670      3.54788693497833     -0.00648285103018
C   1.24714157216223      3.53468075142962     -0.00729145743546
C   0.01517603956900      2.83311183930540      0.00439272578912
C   2.46764517244071      2.82128997725533      0.00449278391269
C   3.70254947457969      3.52466015442405     -0.00899517692985
C   6.14498038638375      4.92757236613191     -0.00282626685777
C   6.16658835886151      3.51658447594213     -0.00065971342101
C   4.92460995845939      2.80840792535402      0.00587903281610
H   7.08990550964105      5.46688776622306     -0.00658814770723
H   -7.03104175110130      5.54268795285765     -0.00714490013730
C   -7.33969804112295      2.85841153457957     -0.00333767559888
C   -7.36488195805880      1.47032337158330     -0.00157213747140
C   -4.90350460894690      1.44442681216000     -0.00628840166334
C   -6.13225715261081      0.73993935705394      0.00600164231964
C   -3.67687480051673      0.72669714267312      0.00433931473643
C   -2.44565658606518      1.42964113326212     -0.00597039546461
C   -1.22360068130162      0.71532450163492      0.00545886906656
C   0.00763786931376      1.41738314923765      0.00392452278437
C   1.23121980774686      0.70211669058719     -0.01490206287210
C   2.46082110053113      1.40329203612573      0.00460244601878
C   3.68443025419614      0.68719842821222      0.00377365974158
C   4.91870890153864      1.39173456118907     -0.00862816189375
C   7.36980207796101      2.77948220318441     -0.00242013321349
C   7.38016266612146      1.39121750785509     -0.00087345036788
C   6.13979953912259      0.67411862320065      0.00545489144369
H   -8.27919079934664      3.40711804112415     -0.00763522772059
H   8.31511347147953      3.31811809662368     -0.00663070901292
C   -8.59175593758115      0.72483255304480     -0.00123170985383
C   -8.59902460370342     -0.63263980622873      0.00089141472904
C   -6.13981313911873     -0.67413663715361     -0.00609792660607
C   -7.38018411213749     -1.39126618958160      0.00131813493501
C   -4.91868448025621     -1.39175501803000      0.00624257154343
C   -3.68443829568458     -0.68723731573599     -0.00478966852105
C   -2.46081704024768     -1.40334517882457      0.00575341766833
C   -1.23116201232071     -0.70217386488055     -0.00636696112346
C   -0.00756962538737     -1.41741884941102      0.00108956317991
C   1.22364771588843     -0.71527537726392      0.01109518512883
C   2.44567064933149     -1.42964328900682     -0.00065482763106
C   3.67686670284649     -0.72670743155550     -0.00479541202602
C   6.13224884641929     -0.73997883984993     -0.00632338623858
C   4.90351914550401     -1.44445752054090      0.00751768830159
C   8.59901484869081      0.63260386666793     -0.00101133422380
C   8.59174548810050     -0.72485086719319      0.00072504603735
C   7.36486276438985     -1.47033266560598      0.00049486934466
H   -9.52830597181814      1.27684744919284     -0.00270163681798
H   9.54141097460619      1.17457248844457     -0.00206336648518
C   -7.36983790976868     -2.77954514593389      0.00312634335708
C   -4.92459910905015     -2.80843725734101     -0.00460528907921
C   -6.16662249566744     -3.51665219282533      0.00169655107992
C   -3.70251035970491     -3.52468154912026      0.00571878010666
C   -2.46764698511392     -2.82132596280400     -0.00632585824990
C   -0.01513347410770     -2.83314164539971     -0.00604426974092
C   -1.24712184122656     -3.53473217556300      0.00551968366725
C   1.20924506964357     -3.54791467864352      0.00805871345849
C   2.43733602215464     -2.84764173817541     -0.00608104485234
C   4.89430234377080     -2.86112296828604     -0.00526030478103
C   3.66461525504104     -3.56421984553201      0.00761911515957
C   6.12863901474565     -3.58258405771778      0.00096495711699
C   7.33967266469532     -2.85841330737039      0.00248018319869
H   -9.54144911125902     -1.17456346666430      0.00226083090216
H   9.52826186807155     -1.27691907390448      0.00197485379837
H   -8.31516504384864     -3.31814985321231      0.00729857188773
H   8.27915514249207     -3.40714078989363      0.00681973918158
C   -6.14499418870218     -4.92764727278338      0.00302254913999
C   -3.70678334799751     -4.94126171411716     -0.00679841894792
C   -4.95559005800169     -5.64349397349412      0.00116871569699
C   -2.48612132622665     -5.65478557440947      0.00614125209662
C   -1.25405833548005     -4.95612205000132     -0.00503435388927
C   1.20101257386816     -4.96928038819302     -0.00385322963129
C   -0.03033667441341     -5.66952030313900      0.00398997003238
C   3.65375010132847     -4.98074377541453     -0.00309522988330
C   2.42549269587528     -5.68117463552727      0.00628170066869
C   6.09196561781097     -4.99325796338655      0.00325918379042
C   4.89497644461045     -5.69634842095790      0.00202298796027
H   -7.08989238804069     -5.46699984223871      0.00742531082125
H   7.03105520920009     -5.54265853633254      0.00683896355417
C   -4.92354532219813     -7.07882109967734      0.00061394679214
C   -2.48534208823777     -7.08772807792913     -0.00189594564379
C   -3.75168589177895     -7.76394715763627     -0.00170126671874
C   -0.03794895698805     -7.09946487446944     -0.00168022049625
C   -1.27795610040136     -7.77290438466689     -0.00366491325785
C   2.40944432072629     -7.11402201200282     -0.00081701968533
C   1.19474993715296     -7.78618536556242     -0.00296931056689
C   4.84762105249800     -7.13126211057943      0.00168979497423
C   3.66847160587561     -7.80378799294376     -0.00065863938960
H   -5.86994035041618     -7.61383059804164      0.00215798365757
H   5.78824962538815     -7.67633218931421      0.00281691445618
H   -3.75352693944918     -8.85107156923607     -0.00353718114765
H   -1.28430440589466     -8.86087539249706     -0.00809229711623
H   1.18922157469537     -8.87416062058945     -0.00706194725726
H   3.65854661482387     -8.89086063405326     -0.00231318081200

    units angstrom      # Angstroms are the default
    no_reorient         # Geometry fixed, default
    symmetry c1         # C1 symmetry, default
}

set {
    scf_type DF         # Density fitting, faster than exact integrals
    freeze_core True    # Freeze core electrons
    basis jun-cc-pVDZ   # Jun-cc-pVDZ basis set, recommended for sSAPT0 in https://doi.org/10.1063/1.4867135
}

energy('ssapt0')        # Compute sSAPT0 energy, includes also SAPT0
--------------------------------------------------------------------------

  Memory set to  59.605 GiB by Python driver.

Scratch directory: /tmp/
   => Loading Basis Set <=

    Name: JUN-CC-PVDZ
    Role: ORBITAL
    Keyword: BASIS
    atoms 1                                                   entry B          line   130 file /opt/software/pc2/EB-SW/software/PSI4/1.9-foss-2022a/share/psi4/basis/jun-cc-pvdz.gbs 
    atoms 2-5                                                 entry F          line   266 file /opt/software/pc2/EB-SW/software/PSI4/1.9-foss-2022a/share/psi4/basis/jun-cc-pvdz.gbs 
    atoms 6-23, 30-42, 45-59, 62-78, 81-93, 98-108, 111-119   entry C          line   164 file /opt/software/pc2/EB-SW/software/PSI4/1.9-foss-2022a/share/psi4/basis/jun-cc-pvdz.gbs 
    atoms 24-29, 43-44, 60-61, 79-80, 94-97, 109-110, 120-125 entry H          line    36 file /opt/software/pc2/EB-SW/software/PSI4/1.9-foss-2022a/share/psi4/basis/jun-cc-pvdz.gbs 

   => Loading Basis Set <=

    Name: JUN-CC-PVDZ
    Role: ORBITAL
    Keyword: BASIS
    atoms 1                                                   entry B          line   130 file /opt/software/pc2/EB-SW/software/PSI4/1.9-foss-2022a/share/psi4/basis/jun-cc-pvdz.gbs 
    atoms 2-5                                                 entry F          line   266 file /opt/software/pc2/EB-SW/software/PSI4/1.9-foss-2022a/share/psi4/basis/jun-cc-pvdz.gbs 
    atoms 6-23, 30-42, 45-59, 62-78, 81-93, 98-108, 111-119   entry C          line   164 file /opt/software/pc2/EB-SW/software/PSI4/1.9-foss-2022a/share/psi4/basis/jun-cc-pvdz.gbs 
    atoms 24-29, 43-44, 60-61, 79-80, 94-97, 109-110, 120-125 entry H          line    36 file /opt/software/pc2/EB-SW/software/PSI4/1.9-foss-2022a/share/psi4/basis/jun-cc-pvdz.gbs 


  //>>>>>>>>>>>>>>>>>>>>>>>>>>>>>>>>>>>//
  //              Dimer HF             //
  //<<<<<<<<<<<<<<<<<<<<<<<<<<<<<<<<<<<//

   => Libint2 <=

    Primary   basis highest AM E, G, H:  5, 4, 3
    Auxiliary basis highest AM E, G, H:  6, 5, 4
    Onebody   basis highest AM E, G, H:  6, 5, 4
    Solid Harmonics ordering:            gaussian

*** tstart() called on n2cn0572
*** at Sat Jan 27 10:41:54 2024

   => Loading Basis Set <=

    Name: JUN-CC-PVDZ
    Role: ORBITAL
    Keyword: BASIS
    atoms 1                                                   entry B          line   130 file /opt/software/pc2/EB-SW/software/PSI4/1.9-foss-2022a/share/psi4/basis/jun-cc-pvdz.gbs 
    atoms 2-5                                                 entry F          line   266 file /opt/software/pc2/EB-SW/software/PSI4/1.9-foss-2022a/share/psi4/basis/jun-cc-pvdz.gbs 
    atoms 6-23, 30-42, 45-59, 62-78, 81-93, 98-108, 111-119   entry C          line   164 file /opt/software/pc2/EB-SW/software/PSI4/1.9-foss-2022a/share/psi4/basis/jun-cc-pvdz.gbs 
    atoms 24-29, 43-44, 60-61, 79-80, 94-97, 109-110, 120-125 entry H          line    36 file /opt/software/pc2/EB-SW/software/PSI4/1.9-foss-2022a/share/psi4/basis/jun-cc-pvdz.gbs 


         ---------------------------------------------------------
                                   SCF
               by Justin Turney, Rob Parrish, Andy Simmonett
                          and Daniel G. A. Smith
                              RHF Reference
                       16 Threads,  61035 MiB Core
         ---------------------------------------------------------

  ==> Geometry <==

    Molecular point group: c1
    Full point group: C1

    Geometry (in Angstrom), charge = -1, multiplicity = 1:

       Center              X                  Y                   Z               Mass       
    ------------   -----------------  -----------------  -----------------  -----------------
         B           -0.000201921932     0.000288800891    -2.420892781598    11.009305360000
         F           -0.000004162732     0.000014527991    -1.008107781598    18.998403162730
         F            1.147855837268     0.675795727991    -2.892033781598    18.998403162730
         F            0.011913897268    -1.331996472009    -2.891831781598    18.998403162730
         F           -1.159670162732     0.656088027991    -2.891752781598    18.998403162730
         C           -3.668445426752     7.803766698073     0.180973259737    12.000000000000
         C           -4.847602882078     7.131256359331     0.178606684805    12.000000000000
         C           -4.894963461907     5.696344931522     0.178033773706    12.000000000000
         C           -3.653744841505     4.980744868950     0.185694215436    12.000000000000
         C           -2.409429284226     7.113995564665     0.181167601997    12.000000000000
         C           -2.425481506836     5.681136478894     0.174162713127    12.000000000000
         C           -1.194748179167     7.786158722300     0.182639782539    12.000000000000
         C            0.037954866205     7.099436173748     0.180469078234    12.000000000000
         C            0.030328424687     5.669504087695     0.174985693319    12.000000000000
         C           -1.200988670637     4.969284875906     0.183955427252    12.000000000000
         C            1.277953663083     7.772873971185     0.181844926795    12.000000000000
         C            2.485353921992     7.087711413228     0.179570438890    12.000000000000
         C            2.486124522185     5.654785338231     0.172632689902    12.000000000000
         C            1.254078756912     4.956092641655     0.184260631491    12.000000000000
         C            3.751710428674     7.763926678971     0.179697290271    12.000000000000
         C            4.923561893453     7.078795304981     0.177640809563    12.000000000000
         C            4.955603108594     5.643461991360     0.177480396756    12.000000000000
         C            3.706797371473     4.941224736324     0.182571956925    12.000000000000
         H           -3.658525300490     8.890841947126     0.182658247987     1.007825032230
         H           -1.189217492488     8.874135615351     0.186611658980     1.007825032230
         H            1.284290076155     8.860847963479     0.186003750936     1.007825032230
         H            3.753537924068     8.851049806963     0.181219814586     1.007825032230
         H            5.869954540475     7.613809362646     0.176715442520     1.007825032230
         H           -5.788235870234     7.676316740925     0.177046837449     1.007825032230
         C           -6.091978121428     4.993274541634     0.176161533216    12.000000000000
         C           -6.128665643049     3.582594696789     0.177362710244    12.000000000000
         C           -3.664583902777     3.564196707735     0.174437615627    12.000000000000
         C           -4.894302367430     2.861095303891     0.183606600612    12.000000000000
         C           -2.437339157630     2.847626185075     0.186269394163    12.000000000000
         C           -1.209232020328     3.547901462969     0.172590367371    12.000000000000
         C            1.247137409430     3.534695279420     0.171781760966    12.000000000000
         C            0.015171876837     2.833126367296     0.183465944191    12.000000000000
         C            2.467641009709     2.821304505246     0.183566002314    12.000000000000
         C            3.702545311848     3.524674682415     0.170078041472    12.000000000000
         C            6.144976223652     4.927586894122     0.176246951544    12.000000000000
         C            6.166584196130     3.516599003933     0.178413504981    12.000000000000
         C            4.924605795728     2.808422453345     0.184952251218    12.000000000000
         H            7.089901346909     5.466902294214     0.172485070694     1.007825032230
         H           -7.031045913833     5.542702480848     0.171928318264     1.007825032230
         C           -7.339702203855     2.858426062570     0.175735542803    12.000000000000
         C           -7.364886120791     1.470337899574     0.177501080930    12.000000000000
         C           -4.903508771679     1.444441340151     0.172784816738    12.000000000000
         C           -6.132261315343     0.739953885044     0.185074860721    12.000000000000
         C           -3.676878963248     0.726711670664     0.183412533138    12.000000000000
         C           -2.445660748797     1.429655661253     0.173102822937    12.000000000000
         C           -1.223604844033     0.715339029625     0.184532087468    12.000000000000
         C            0.007633706582     1.417397677228     0.182997741186    12.000000000000
         C            1.231215645015     0.702131218578     0.164171155530    12.000000000000
         C            2.460816937799     1.403306564116     0.183675664420    12.000000000000
         C            3.684426091464     0.687212956203     0.182846878143    12.000000000000
         C            4.918704738807     1.391749089180     0.170445056508    12.000000000000
         C            7.369797915229     2.779496731175     0.176653085188    12.000000000000
         C            7.380158503390     1.391232035846     0.178199768034    12.000000000000
         C            6.139795376391     0.674133151191     0.184528109845    12.000000000000
         H           -8.279194962078     3.407132569115     0.171437990681     1.007825032230
         H            8.315109308748     3.318132624614     0.172442509389     1.007825032230
         C           -8.591760100313     0.724847081035     0.177841508548    12.000000000000
         C           -8.599028766435    -0.632625278238     0.179964633131    12.000000000000
         C           -6.139817301850    -0.674122109163     0.172975291796    12.000000000000
         C           -7.380188274869    -1.391251661591     0.180391353337    12.000000000000
         C           -4.918688642988    -1.391740490039     0.185315789945    12.000000000000
         C           -3.684442458416    -0.687222787745     0.174283549881    12.000000000000
         C           -2.460821202979    -1.403330650834     0.184826636070    12.000000000000
         C           -1.231166175052    -0.702159336890     0.172706257278    12.000000000000
         C           -0.007573788119    -1.417404321420     0.180162781582    12.000000000000
         C            1.223643553157    -0.715260849273     0.190168403530    12.000000000000
         C            2.445666486600    -1.429628761016     0.178418390771    12.000000000000
         C            3.676862540115    -0.726692903565     0.174277806376    12.000000000000
         C            6.132244683688    -0.739964311859     0.172749832163    12.000000000000
         C            4.903514982772    -1.444442992550     0.186590906703    12.000000000000
         C            8.599010685959     0.632618394658     0.178061884178    12.000000000000
         C            8.591741325369    -0.724836339203     0.179798264439    12.000000000000
         C            7.364858601658    -1.470318137615     0.179568087746    12.000000000000
         H           -9.528310134550     1.276861977183     0.176371581584     1.007825032230
         H            9.541406811874     1.174587016435     0.177009851916     1.007825032230
         C           -7.369842072500    -2.779530617943     0.182199561759    12.000000000000
         C           -4.924603271782    -2.808422729350     0.174467929322    12.000000000000
         C           -6.166626658399    -3.516637664835     0.180769769482    12.000000000000
         C           -3.702514522437    -3.524667021130     0.184791998508    12.000000000000
         C           -2.467651147846    -2.821311434813     0.172747360152    12.000000000000
         C           -0.015137636839    -2.833127117409     0.173028948661    12.000000000000
         C           -1.247126003958    -3.534717647572     0.184592902069    12.000000000000
         C            1.209240906912    -3.547900150653     0.187131931860    12.000000000000
         C            2.437331859423    -2.847627210185     0.172992173549    12.000000000000
         C            4.894298181039    -2.861108440295     0.173812913621    12.000000000000
         C            3.664611092309    -3.564205317541     0.186692333561    12.000000000000
         C            6.128634852014    -3.582569529727     0.180038175519    12.000000000000
         C            7.339668501964    -2.858398779380     0.181553401600    12.000000000000
         H           -9.541453273991    -1.174548938674     0.181334049304     1.007825032230
         H            9.528257705340    -1.276904545914     0.181048072200     1.007825032230
         H           -8.315169206580    -3.318135325222     0.186371790289     1.007825032230
         H            8.279150979760    -3.407126261903     0.185892957583     1.007825032230
         C           -6.144998351434    -4.927632744793     0.182095767542    12.000000000000
         C           -3.706787510729    -4.941247186127     0.172274799454    12.000000000000
         C           -4.955594220733    -5.643479445504     0.180241934099    12.000000000000
         C           -2.486125488958    -5.654771046419     0.185214470498    12.000000000000
         C           -1.254062498212    -4.956107522011     0.174038864512    12.000000000000
         C            1.201008411136    -4.969265860202     0.175219988770    12.000000000000
         C           -0.030340837145    -5.669505775148     0.183063188434    12.000000000000
         C            3.653745938597    -4.980729247424     0.175977988518    12.000000000000
         C            2.425488533144    -5.681160107537     0.185354919070    12.000000000000
         C            6.091961455079    -4.993243435396     0.182332402192    12.000000000000
         C            4.894972281879    -5.696333892967     0.181096206362    12.000000000000
         H           -7.089896550772    -5.466985314248     0.186498529223     1.007825032230
         H            7.031051046468    -5.542644008342     0.185912181956     1.007825032230
         C           -4.923549484930    -7.078806571687     0.179687165194    12.000000000000
         C           -2.485346250970    -7.087713549939     0.177177272758    12.000000000000
         C           -3.751690054511    -7.763932629646     0.177371951683    12.000000000000
         C           -0.037953119720    -7.099450346479     0.177392997905    12.000000000000
         C           -1.277960263133    -7.772889856676     0.175408305144    12.000000000000
         C            2.409440157995    -7.114007484012     0.178256198716    12.000000000000
         C            1.194745774421    -7.786170837572     0.176103907835    12.000000000000
         C            4.847616889766    -7.131247582589     0.180763013376    12.000000000000
         C            3.668467443144    -7.803773464953     0.178414579012    12.000000000000
         H           -5.869944513148    -7.613816070051     0.181231202059     1.007825032230
         H            5.788245462656    -7.676317661324     0.181890132858     1.007825032230
         H           -3.753531102181    -8.851057041246     0.175536037254     1.007825032230
         H           -1.284308568626    -8.860860864507     0.170980921285     1.007825032230
         H            1.189217411964    -8.874146092599     0.172011271144     1.007825032230
         H            3.658542452092    -8.890846106063     0.176760037590     1.007825032230

  Running in c1 symmetry.

  Rotational constants: A =      0.00069  B =      0.00069  C =      0.00035 [cm^-1]
  Rotational constants: A =     20.58987  B =     20.58627  C =     10.55117 [MHz]
  Nuclear repulsion = 17944.809029209511209

  Charge       = -1
  Multiplicity = 1
  Electrons    = 642
  Nalpha       = 321
  Nbeta        = 321

  ==> Algorithm <==

  SCF Algorithm Type is DF.
  DIIS enabled.
  MOM disabled.
  Fractional occupation disabled.
  Guess Type is SAD.
  Energy threshold   = 1.00e-08
  Density threshold  = 1.00e-08
  Integral threshold = 1.00e-12

  ==> Primary Basis <==

  Basis Set: JUN-CC-PVDZ
    Blend: JUN-CC-PVDZ
    Number of shells: 880
    Number of basis functions: 1938
    Number of Cartesian functions: 2039
    Spherical Harmonics?: true
    Max angular momentum: 2

   => Loading Basis Set <=

    Name: (JUN-CC-PVDZ AUX)
    Role: JKFIT
    Keyword: DF_BASIS_SCF
    atoms 1                                                   entry B          line    90 file /opt/software/pc2/EB-SW/software/PSI4/1.9-foss-2022a/share/psi4/basis/jun-cc-pvdz-jkfit.gbs 
    atoms 2-5                                                 entry F          line   314 file /opt/software/pc2/EB-SW/software/PSI4/1.9-foss-2022a/share/psi4/basis/jun-cc-pvdz-jkfit.gbs 
    atoms 6-23, 30-42, 45-59, 62-78, 81-93, 98-108, 111-119   entry C          line   146 file /opt/software/pc2/EB-SW/software/PSI4/1.9-foss-2022a/share/psi4/basis/jun-cc-pvdz-jkfit.gbs 
    atoms 24-29, 43-44, 60-61, 79-80, 94-97, 109-110, 120-125 entry H          line    70 file /opt/software/pc2/EB-SW/software/PSI4/1.9-foss-2022a/share/psi4/basis/jun-cc-pvdz-jkfit.gbs 

  ==> Integral Setup <==

  ==> DiskDFJK: Density-Fitted J/K Matrices <==

    J tasked:                  Yes
    K tasked:                  Yes
    wK tasked:                  No
    OpenMP threads:             16
    Integrals threads:          16
    Memory [MiB]:            45776
    Algorithm:                Disk
    Integral Cache:           SAVE
    Schwarz Cutoff:          1E-12
    Fitting Condition:       1E-10

   => Auxiliary Basis Set <=

  Basis Set: (JUN-CC-PVDZ AUX)
    Blend: JUN-CC-PVDZ-JKFIT
    Number of shells: 2943
    Number of basis functions: 8531
    Number of Cartesian functions: 9791
    Spherical Harmonics?: true
    Max angular momentum: 3

  Minimum eigenvalue in the overlap matrix is 6.0263163941E-11.
  Reciprocal condition number of the overlap matrix is 2.4120010509E-12.
    Using canonical orthogonalization.
  Overall, 39 of 1938 possible MOs eliminated.


  ==> Pre-Iterations <==

  SCF Guess: Superposition of Atomic Densities via on-the-fly atomic UHF (no occupation information).

   -------------------------
    Irrep   Nso     Nmo    
   -------------------------
     A       1938    1899 
   -------------------------
    Total    1938    1899
   -------------------------

  ==> Iterations <==

                           Total Energy        Delta E     RMS |[F,P]|

   @DF-RHF iter SAD: -4086.64862918633071   -4.08665e+03   0.00000e+00 
   @DF-RHF iter   1: -4071.17076278984723    1.54779e+01   7.91871e-04 DIIS/ADIIS
   @DF-RHF iter   2: -4072.59064486647731   -1.41988e+00   3.06933e-04 DIIS/ADIIS
   @DF-RHF iter   3: -4072.75895218442110   -1.68307e-01   1.15135e-04 DIIS/ADIIS
   @DF-RHF iter   4: -4072.78447962764858   -2.55274e-02   5.44536e-05 DIIS
   @DF-RHF iter   5: -4072.79103343651877   -6.55381e-03   1.73719e-05 DIIS
   @DF-RHF iter   6: -4072.79186562002451   -8.32184e-04   6.06329e-06 DIIS
   @DF-RHF iter   7: -4072.79210346083892   -2.37841e-04   3.19264e-06 DIIS
   @DF-RHF iter   8: -4072.79220141713176   -9.79563e-05   1.43701e-06 DIIS
   @DF-RHF iter   9: -4072.79222890819074   -2.74911e-05   6.07058e-07 DIIS
   @DF-RHF iter  10: -4072.79223122343319   -2.31524e-06   1.95802e-07 DIIS
   @DF-RHF iter  11: -4072.79223148611663   -2.62683e-07   7.25877e-08 DIIS
   @DF-RHF iter  12: -4072.79223152429540   -3.81788e-08   3.82191e-08 DIIS
   @DF-RHF iter  13: -4072.79223153717885   -1.28834e-08   1.49103e-08 DIIS
   @DF-RHF iter  14: -4072.79223153894509   -1.76624e-09   8.01687e-09 DIIS
  Energy and wave function converged.


  ==> Post-Iterations <==

    Orbital Energies [Eh]
    ---------------------

    Doubly Occupied:                                                      

       1A    -26.162305     2A    -26.130788     3A    -26.130776  
       4A    -26.130621     5A    -11.192215     6A    -11.192207  
       7A    -11.192194     8A    -11.192188     9A    -11.192188  
      10A    -11.192172    11A    -11.192168    12A    -11.192151  
      13A    -11.192139    14A    -11.192138    15A    -11.192131  
      16A    -11.192109    17A    -11.190864    18A    -11.190852  
      19A    -11.190836    20A    -11.190804    21A    -11.190785  
      22A    -11.190757    23A    -11.189812    24A    -11.189808  
      25A    -11.189788    26A    -11.189787    27A    -11.189784  
      28A    -11.189779    29A    -11.188373    30A    -11.188369  
      31A    -11.188348    32A    -11.188348    33A    -11.188345  
      34A    -11.188339    35A    -11.187290    36A    -11.187278  
      37A    -11.187259    38A    -11.187158    39A    -11.187149  
      40A    -11.187121    41A    -11.187025    42A    -11.186987  
      43A    -11.186971    44A    -11.186856    45A    -11.186838  
      46A    -11.186813    47A    -11.186060    48A    -11.186021  
      49A    -11.186008    50A    -11.185933    51A    -11.185893  
      52A    -11.185853    53A    -11.185407    54A    -11.185354  
      55A    -11.185350    56A    -11.185230    57A    -11.185222  
      58A    -11.185167    59A    -11.184975    60A    -11.184951  
      61A    -11.184915    62A    -11.184884    63A    -11.184870  
      64A    -11.184856    65A    -11.183544    66A    -11.183508  
      67A    -11.183456    68A    -11.183452    69A    -11.183441  
      70A    -11.183412    71A    -11.183374    72A    -11.183365  
      73A    -11.183358    74A    -11.183340    75A    -11.183270  
      76A    -11.183249    77A    -11.182508    78A    -11.182024  
      79A    -11.181372    80A    -11.180778    81A    -11.180757  
      82A    -11.180731    83A    -11.180668    84A    -11.180654  
      85A    -11.180617    86A    -11.180587    87A    -11.180171  
      88A    -11.179888    89A    -11.179675    90A    -11.179666  
      91A    -11.179569    92A    -11.179554    93A    -11.179528  
      94A    -11.179504    95A    -11.175060    96A    -11.174859  
      97A    -11.174548    98A    -11.174341    99A    -11.174213  
     100A    -11.173736   101A     -7.618902   102A     -1.581363  
     103A     -1.456429   104A     -1.414939   105A     -1.414777  
     106A     -1.172770   107A     -1.162949   108A     -1.162930  
     109A     -1.146413   110A     -1.146384   111A     -1.135541  
     112A     -1.128855   113A     -1.122503   114A     -1.112847  
     115A     -1.112822   116A     -1.102139   117A     -1.102131  
     118A     -1.079376   119A     -1.079351   120A     -1.077188  
     121A     -1.073825   122A     -1.073815   123A     -1.054317  
     124A     -1.042262   125A     -1.041977   126A     -1.041850  
     127A     -1.041014   128A     -1.039042   129A     -1.014791  
     130A     -1.014775   131A     -1.007025   132A     -1.007003  
     133A     -0.992953   134A     -0.992923   135A     -0.992795  
     136A     -0.975595   137A     -0.975544   138A     -0.967693  
     139A     -0.967688   140A     -0.967049   141A     -0.952542  
     142A     -0.952351   143A     -0.949860   144A     -0.936989  
     145A     -0.932699   146A     -0.929942   147A     -0.925891  
     148A     -0.925844   149A     -0.920613   150A     -0.901582  
     151A     -0.901491   152A     -0.883875   153A     -0.883821  
     154A     -0.842248   155A     -0.836112   156A     -0.836070  
     157A     -0.829913   158A     -0.829869   159A     -0.820422  
     160A     -0.820288   161A     -0.815492   162A     -0.815434  
     163A     -0.814849   164A     -0.804156   165A     -0.800835  
     166A     -0.780737   167A     -0.779742   168A     -0.779518  
     169A     -0.769590   170A     -0.768682   171A     -0.762240  
     172A     -0.762225   173A     -0.760427   174A     -0.760381  
     175A     -0.738889   176A     -0.714870   177A     -0.714852  
     178A     -0.714475   179A     -0.714297   180A     -0.709912  
     181A     -0.709835   182A     -0.695925   183A     -0.694521  
     184A     -0.676491   185A     -0.671969   186A     -0.671386  
     187A     -0.667285   188A     -0.663502   189A     -0.651780  
     190A     -0.651757   191A     -0.651585   192A     -0.651186  
     193A     -0.651144   194A     -0.642416   195A     -0.628846  
     196A     -0.628103   197A     -0.628079   198A     -0.621179  
     199A     -0.621155   200A     -0.614916   201A     -0.614900  
     202A     -0.609529   203A     -0.609519   204A     -0.607569  
     205A     -0.591493   206A     -0.583233   207A     -0.579211  
     208A     -0.579197   209A     -0.577151   210A     -0.577086  
     211A     -0.574954   212A     -0.571324   213A     -0.571287  
     214A     -0.568402   215A     -0.568117   216A     -0.563187  
     217A     -0.563154   218A     -0.555696   219A     -0.549903  
     220A     -0.549896   221A     -0.544419   222A     -0.544393  
     223A     -0.536600   224A     -0.536575   225A     -0.535957  
     226A     -0.526132   227A     -0.524927   228A     -0.524916  
     229A     -0.524075   230A     -0.524056   231A     -0.522969  
     232A     -0.522943   233A     -0.522200   234A     -0.522126  
     235A     -0.519041   236A     -0.515383   237A     -0.515354  
     238A     -0.511189   239A     -0.508951   240A     -0.508937  
     241A     -0.502852   242A     -0.502502   243A     -0.502487  
     244A     -0.501947   245A     -0.496062   246A     -0.496050  
     247A     -0.494507   248A     -0.494473   249A     -0.491919  
     250A     -0.488856   251A     -0.484856   252A     -0.484834  
     253A     -0.481212   254A     -0.481186   255A     -0.480422  
     256A     -0.479468   257A     -0.479439   258A     -0.471939  
     259A     -0.463044   260A     -0.463026   261A     -0.460335  
     262A     -0.460276   263A     -0.458612   264A     -0.455110  
     265A     -0.454998   266A     -0.453031   267A     -0.446645  
     268A     -0.446513   269A     -0.446249   270A     -0.446162  
     271A     -0.446024   272A     -0.444685   273A     -0.444667  
     274A     -0.437748   275A     -0.437577   276A     -0.424941  
     277A     -0.423891   278A     -0.423816   279A     -0.418259  
     280A     -0.418189   281A     -0.410598   282A     -0.407010  
     283A     -0.407006   284A     -0.401964   285A     -0.394441  
     286A     -0.392150   287A     -0.392139   288A     -0.386773  
     289A     -0.386035   290A     -0.370984   291A     -0.370879  
     292A     -0.365551   293A     -0.365513   294A     -0.358639  
     295A     -0.353294   296A     -0.352895   297A     -0.334542  
     298A     -0.334497   299A     -0.314960   300A     -0.314911  
     301A     -0.311957   302A     -0.311906   303A     -0.288164  
     304A     -0.280565   305A     -0.280550   306A     -0.278553  
     307A     -0.263698   308A     -0.263694   309A     -0.259933  
     310A     -0.237461   311A     -0.236849   312A     -0.231837  
     313A     -0.228588   314A     -0.228486   315A     -0.223149  
     316A     -0.214870   317A     -0.189720   318A     -0.163447  
     319A     -0.162662   320A     -0.136018   321A     -0.135909  

    Virtual:                                                              

     322A      0.065731   323A      0.065915   324A      0.096348  
     325A      0.096364   326A      0.097094   327A      0.098674  
     328A      0.098697   329A      0.104014   330A      0.106341  
     331A      0.106499   332A      0.107529   333A      0.107590  
     334A      0.112022   335A      0.112028   336A      0.123388  
     337A      0.123390   338A      0.132303   339A      0.133241  
     340A      0.138996   341A      0.139050   342A      0.139444  
     343A      0.140666   344A      0.141747   345A      0.142742  
     346A      0.143386   347A      0.144190   348A      0.144212  
     349A      0.146364   350A      0.148750   351A      0.148907  
     352A      0.149283   353A      0.150802   354A      0.151054  
     355A      0.151275   356A      0.151462   357A      0.151491  
     358A      0.153106   359A      0.158758   360A      0.163759  
     361A      0.163767   362A      0.163927   363A      0.165272  
     364A      0.165299   365A      0.166309   366A      0.171122  
     367A      0.171235   368A      0.174040   369A      0.174078  
     370A      0.174194   371A      0.175039   372A      0.177923  
     373A      0.178272   374A      0.178407   375A      0.180473  
     376A      0.180537   377A      0.181504   378A      0.181543  
     379A      0.182535   380A      0.190372   381A      0.190379  
     382A      0.191822   383A      0.198112   384A      0.198319  
     385A      0.198682   386A      0.200154   387A      0.200186  
     388A      0.205264   389A      0.205403   390A      0.206380  
     391A      0.206663   392A      0.206866   393A      0.215848  
     394A      0.216135   395A      0.216418   396A      0.216934  
     397A      0.217819   398A      0.219934   399A      0.221911  
     400A      0.223244   401A      0.223365   402A      0.223511  
     403A      0.225073   404A      0.225096   405A      0.225664  
     406A      0.227914   407A      0.227927   408A      0.229107  
     409A      0.229266   410A      0.232564   411A      0.232650  
     412A      0.233913   413A      0.236209   414A      0.241861  
     415A      0.242008   416A      0.242066   417A      0.244255  
     418A      0.244767   419A      0.244838   420A      0.245557  
     421A      0.245585   422A      0.251780   423A      0.252930  
     424A      0.254017   425A      0.254413   426A      0.255286  
     427A      0.258653   428A      0.259358   429A      0.259551  
     430A      0.261652   431A      0.261849   432A      0.262691  
     433A      0.263803   434A      0.264607   435A      0.265551  
     436A      0.270435   437A      0.271061   438A      0.273401  
     439A      0.273713   440A      0.273934   441A      0.273972  
     442A      0.274953   443A      0.274998   444A      0.275182  
     445A      0.276064   446A      0.277108   447A      0.277536  
     448A      0.277869   449A      0.278207   450A      0.279911  
     451A      0.280235   452A      0.281396   453A      0.281488  
     454A      0.286169   455A      0.286747   456A      0.289866  
     457A      0.290222   458A      0.292926   459A      0.293642  
     460A      0.293680   461A      0.294668   462A      0.294922  
     463A      0.295434   464A      0.296251   465A      0.296265  
     466A      0.298478   467A      0.301422   468A      0.301426  
     469A      0.302053   470A      0.305301   471A      0.307219  
     472A      0.309639   473A      0.310092   474A      0.311306  
     475A      0.311705   476A      0.316618   477A      0.317651  
     478A      0.317671   479A      0.320482   480A      0.321379  
     481A      0.322474   482A      0.322586   483A      0.323869  
     484A      0.324113   485A      0.325229   486A      0.326298  
     487A      0.326370   488A      0.328531   489A      0.329214  
     490A      0.330054   491A      0.331798   492A      0.331855  
     493A      0.339062   494A      0.340484   495A      0.340634  
     496A      0.340690   497A      0.340750   498A      0.342650  
     499A      0.342892   500A      0.344618   501A      0.344666  
     502A      0.344751   503A      0.346530   504A      0.347552  
     505A      0.347701   506A      0.349150   507A      0.350174  
     508A      0.351975   509A      0.354765   510A      0.354823  
     511A      0.361133   512A      0.361199   513A      0.361757  
     514A      0.362224   515A      0.362542   516A      0.367905  
     517A      0.368044   518A      0.368262   519A      0.368519  
     520A      0.368663   521A      0.370430   522A      0.371973  
     523A      0.372108   524A      0.373927   525A      0.374331  
     526A      0.375136   527A      0.375388   528A      0.376396  
     529A      0.376415   530A      0.376913   531A      0.379011  
     532A      0.380121   533A      0.380153   534A      0.380420  
     535A      0.383294   536A      0.383758   537A      0.386335  
     538A      0.386465   539A      0.388354   540A      0.388586  
     541A      0.390893   542A      0.391271   543A      0.391397  
     544A      0.392229   545A      0.393089   546A      0.394583  
     547A      0.394819   548A      0.396570   549A      0.398081  
     550A      0.399303   551A      0.399475   552A      0.399740  
     553A      0.399776   554A      0.403175   555A      0.404647  
     556A      0.404669   557A      0.405752   558A      0.408417  
     559A      0.409822   560A      0.409960   561A      0.410056  
     562A      0.413148   563A      0.417389   564A      0.417661  
     565A      0.417820   566A      0.419395   567A      0.423339  
     568A      0.424570   569A      0.425226   570A      0.425737  
     571A      0.426245   572A      0.427432   573A      0.427846  
     574A      0.430942   575A      0.433363   576A      0.433504  
     577A      0.436141   578A      0.437361   579A      0.437485  
     580A      0.438574   581A      0.438607   582A      0.439965  
     583A      0.441289   584A      0.441389   585A      0.445911  
     586A      0.446085   587A      0.446440   588A      0.447393  
     589A      0.448937   590A      0.451182   591A      0.451237  
     592A      0.452921   593A      0.453182   594A      0.456675  
     595A      0.458241   596A      0.458806   597A      0.460058  
     598A      0.460216   599A      0.460784   600A      0.462458  
     601A      0.462637   602A      0.463369   603A      0.464628  
     604A      0.465838   605A      0.465879   606A      0.466859  
     607A      0.466924   608A      0.468708   609A      0.469072  
     610A      0.469233   611A      0.470426   612A      0.470761  
     613A      0.472215   614A      0.472383   615A      0.473132  
     616A      0.473532   617A      0.474699   618A      0.476302  
     619A      0.477386   620A      0.477406   621A      0.478254  
     622A      0.479053   623A      0.479253   624A      0.479680  
     625A      0.479722   626A      0.482384   627A      0.482590  
     628A      0.482621   629A      0.483168   630A      0.485136  
     631A      0.486927   632A      0.487816   633A      0.488304  
     634A      0.489148   635A      0.489197   636A      0.493247  
     637A      0.494775   638A      0.494950   639A      0.496380  
     640A      0.496781   641A      0.500594   642A      0.500807  
     643A      0.502803   644A      0.502826   645A      0.503654  
     646A      0.503741   647A      0.506275   648A      0.506473  
     649A      0.507172   650A      0.507279   651A      0.507337  
     652A      0.507405   653A      0.507412   654A      0.510116  
     655A      0.510734   656A      0.512146   657A      0.513790  
     658A      0.513922   659A      0.518119   660A      0.519459  
     661A      0.519540   662A      0.520044   663A      0.521376  
     664A      0.521528   665A      0.522211   666A      0.523090  
     667A      0.523631   668A      0.524798   669A      0.524875  
     670A      0.525026   671A      0.527783   672A      0.528097  
     673A      0.528746   674A      0.529725   675A      0.530508  
     676A      0.530843   677A      0.534541   678A      0.534623  
     679A      0.537058   680A      0.537150   681A      0.539405  
     682A      0.539489   683A      0.540749   684A      0.542070  
     685A      0.542732   686A      0.542817   687A      0.543707  
     688A      0.545195   689A      0.546419   690A      0.547055  
     691A      0.550012   692A      0.550103   693A      0.550647  
     694A      0.552926   695A      0.553112   696A      0.553157  
     697A      0.555283   698A      0.555304   699A      0.557427  
     700A      0.557667   701A      0.559552   702A      0.560670  
     703A      0.560873   704A      0.563530   705A      0.564226  
     706A      0.564800   707A      0.566228   708A      0.566363  
     709A      0.567458   710A      0.569443   711A      0.569860  
     712A      0.569996   713A      0.571181   714A      0.571825  
     715A      0.573895   716A      0.575796   717A      0.576966  
     718A      0.577222   719A      0.578678   720A      0.579310  
     721A      0.581757   722A      0.582618   723A      0.584004  
     724A      0.586041   725A      0.586497   726A      0.586634  
     727A      0.587126   728A      0.587926   729A      0.590809  
     730A      0.593761   731A      0.593784   732A      0.594678  
     733A      0.597321   734A      0.599977   735A      0.600187  
     736A      0.601310   737A      0.602571   738A      0.605590  
     739A      0.605632   740A      0.610617   741A      0.611645  
     742A      0.616669   743A      0.617586   744A      0.618637  
     745A      0.618851   746A      0.620226   747A      0.624999  
     748A      0.626064   749A      0.628361   750A      0.628684  
     751A      0.629675   752A      0.631941   753A      0.632775  
     754A      0.634168   755A      0.634360   756A      0.634811  
     757A      0.635068   758A      0.637075   759A      0.637291  
     760A      0.637992   761A      0.639335   762A      0.641310  
     763A      0.642208   764A      0.643622   765A      0.646349  
     766A      0.648615   767A      0.650317   768A      0.651379  
     769A      0.653437   770A      0.654170   771A      0.655627  
     772A      0.659576   773A      0.660854   774A      0.661578  
     775A      0.666008   776A      0.669298   777A      0.670762  
     778A      0.671739   779A      0.672891   780A      0.674681  
     781A      0.675106   782A      0.676376   783A      0.676685  
     784A      0.678998   785A      0.680537   786A      0.681308  
     787A      0.682229   788A      0.683259   789A      0.688711  
     790A      0.688943   791A      0.690674   792A      0.696672  
     793A      0.697266   794A      0.698490   795A      0.700135  
     796A      0.703414   797A      0.704016   798A      0.704883  
     799A      0.712317   800A      0.715092   801A      0.715604  
     802A      0.716668   803A      0.718582   804A      0.719053  
     805A      0.730299   806A      0.730829   807A      0.730873  
     808A      0.734330   809A      0.734381   810A      0.737763  
     811A      0.738285   812A      0.739581   813A      0.745938  
     814A      0.746501   815A      0.751626   816A      0.751774  
     817A      0.755829   818A      0.755945   819A      0.761450  
     820A      0.761513   821A      0.762448   822A      0.762820  
     823A      0.763314   824A      0.767991   825A      0.769264  
     826A      0.775088   827A      0.776333   828A      0.777171  
     829A      0.784500   830A      0.785146   831A      0.788415  
     832A      0.792566   833A      0.795514   834A      0.799438  
     835A      0.800761   836A      0.804189   837A      0.804883  
     838A      0.807457   839A      0.811485   840A      0.812823  
     841A      0.814333   842A      0.818008   843A      0.821640  
     844A      0.824880   845A      0.826590   846A      0.827616  
     847A      0.833553   848A      0.837516   849A      0.841767  
     850A      0.847379   851A      0.851338   852A      0.859134  
     853A      0.859286   854A      0.859591   855A      0.865203  
     856A      0.866798   857A      0.868766   858A      0.869424  
     859A      0.870877   860A      0.873629   861A      0.875089  
     862A      0.876062   863A      0.877052   864A      0.878267  
     865A      0.883892   866A      0.884397   867A      0.885067  
     868A      0.885714   869A      0.886152   870A      0.887699  
     871A      0.889531   872A      0.889782   873A      0.890942  
     874A      0.897436   875A      0.897618   876A      0.899370  
     877A      0.909316   878A      0.909955   879A      0.911607  
     880A      0.912917   881A      0.913428   882A      0.916298  
     883A      0.916515   884A      0.919804   885A      0.921893  
     886A      0.923297   887A      0.924416   888A      0.925163  
     889A      0.926166   890A      0.934216   891A      0.934427  
     892A      0.935297   893A      0.935531   894A      0.938011  
     895A      0.938587   896A      0.942012   897A      0.942529  
     898A      0.943316   899A      0.946611   900A      0.946858  
     901A      0.951244   902A      0.954154   903A      0.955263  
     904A      0.956199   905A      0.957074   906A      0.957442  
     907A      0.957934   908A      0.959548   909A      0.960245  
     910A      0.964567   911A      0.965655   912A      0.969170  
     913A      0.969208   914A      0.975088   915A      0.975355  
     916A      0.978333   917A      0.978763   918A      0.979707  
     919A      0.981730   920A      0.982809   921A      0.984497  
     922A      0.985895   923A      0.987755   924A      0.988815  
     925A      0.989914   926A      0.990314   927A      0.990890  
     928A      0.994042   929A      0.994736   930A      0.996899  
     931A      0.998616   932A      0.999987   933A      1.000087  
     934A      1.004636   935A      1.004721   936A      1.004954  
     937A      1.012902   938A      1.013235   939A      1.014274  
     940A      1.014767   941A      1.016671   942A      1.016887  
     943A      1.018438   944A      1.019943   945A      1.021127  
     946A      1.021346   947A      1.023230   948A      1.023478  
     949A      1.024254   950A      1.024408   951A      1.025465  
     952A      1.029932   953A      1.030805   954A      1.032279  
     955A      1.033327   956A      1.033829   957A      1.038910  
     958A      1.040833   959A      1.044955   960A      1.046398  
     961A      1.048777   962A      1.056225   963A      1.056353  
     964A      1.060422   965A      1.062197   966A      1.062898  
     967A      1.065057   968A      1.065547   969A      1.067358  
     970A      1.068864   971A      1.073738   972A      1.074388  
     973A      1.074506   974A      1.074710   975A      1.076077  
     976A      1.076658   977A      1.080882   978A      1.084586  
     979A      1.084895   980A      1.085232   981A      1.086508  
     982A      1.087016   983A      1.091614   984A      1.095268  
     985A      1.096308   986A      1.096618   987A      1.099871  
     988A      1.100709   989A      1.104895   990A      1.109389  
     991A      1.109799   992A      1.116324   993A      1.116365  
     994A      1.117311   995A      1.118585   996A      1.118861  
     997A      1.119457   998A      1.119973   999A      1.122591  
    1000A      1.122887  1001A      1.125030  1002A      1.125561  
    1003A      1.125821  1004A      1.126096  1005A      1.128442  
    1006A      1.132036  1007A      1.132569  1008A      1.133436  
    1009A      1.133881  1010A      1.134312  1011A      1.135050  
    1012A      1.136415  1013A      1.139429  1014A      1.140935  
    1015A      1.141071  1016A      1.141953  1017A      1.142257  
    1018A      1.144043  1019A      1.144383  1020A      1.144664  
    1021A      1.146876  1022A      1.148211  1023A      1.148690  
    1024A      1.148881  1025A      1.149500  1026A      1.150182  
    1027A      1.151404  1028A      1.151890  1029A      1.152536  
    1030A      1.152663  1031A      1.153019  1032A      1.153926  
    1033A      1.155767  1034A      1.156291  1035A      1.156764  
    1036A      1.157407  1037A      1.157739  1038A      1.159095  
    1039A      1.159513  1040A      1.160899  1041A      1.161210  
    1042A      1.163739  1043A      1.165776  1044A      1.167178  
    1045A      1.170892  1046A      1.172982  1047A      1.175641  
    1048A      1.176952  1049A      1.177190  1050A      1.180658  
    1051A      1.180980  1052A      1.182118  1053A      1.182327  
    1054A      1.182829  1055A      1.187232  1056A      1.187328  
    1057A      1.191884  1058A      1.193688  1059A      1.194111  
    1060A      1.195784  1061A      1.196265  1062A      1.198634  
    1063A      1.198737  1064A      1.199390  1065A      1.204038  
    1066A      1.207300  1067A      1.207684  1068A      1.209633  
    1069A      1.212043  1070A      1.212162  1071A      1.214781  
    1072A      1.216866  1073A      1.219368  1074A      1.221618  
    1075A      1.224248  1076A      1.224576  1077A      1.224992  
    1078A      1.227969  1079A      1.228443  1080A      1.230465  
    1081A      1.230943  1082A      1.231598  1083A      1.232876  
    1084A      1.237288  1085A      1.238293  1086A      1.238970  
    1087A      1.241724  1088A      1.242657  1089A      1.243990  
    1090A      1.246240  1091A      1.247097  1092A      1.247938  
    1093A      1.249906  1094A      1.254137  1095A      1.254557  
    1096A      1.255304  1097A      1.256708  1098A      1.259731  
    1099A      1.260761  1100A      1.261509  1101A      1.267778  
    1102A      1.268947  1103A      1.271662  1104A      1.277529  
    1105A      1.278306  1106A      1.278952  1107A      1.280685  
    1108A      1.281526  1109A      1.283439  1110A      1.283950  
    1111A      1.284064  1112A      1.285856  1113A      1.290280  
    1114A      1.291159  1115A      1.291786  1116A      1.292318  
    1117A      1.293805  1118A      1.298460  1119A      1.304038  
    1120A      1.305312  1121A      1.317001  1122A      1.318756  
    1123A      1.318816  1124A      1.323098  1125A      1.323852  
    1126A      1.323931  1127A      1.329500  1128A      1.332082  
    1129A      1.332609  1130A      1.337247  1131A      1.337918  
    1132A      1.338184  1133A      1.343699  1134A      1.344014  
    1135A      1.348647  1136A      1.350416  1137A      1.350846  
    1138A      1.354195  1139A      1.354996  1140A      1.356886  
    1141A      1.362269  1142A      1.363241  1143A      1.363362  
    1144A      1.365676  1145A      1.366366  1146A      1.370632  
    1147A      1.373154  1148A      1.374485  1149A      1.379440  
    1150A      1.379612  1151A      1.384031  1152A      1.384925  
    1153A      1.385659  1154A      1.388077  1155A      1.389085  
    1156A      1.389299  1157A      1.390703  1158A      1.392720  
    1159A      1.398503  1160A      1.398864  1161A      1.398910  
    1162A      1.399665  1163A      1.399786  1164A      1.403316  
    1165A      1.404422  1166A      1.404986  1167A      1.406357  
    1168A      1.409349  1169A      1.412583  1170A      1.412722  
    1171A      1.419866  1172A      1.427615  1173A      1.427684  
    1174A      1.429087  1175A      1.429732  1176A      1.431891  
    1177A      1.432415  1178A      1.432498  1179A      1.432631  
    1180A      1.433771  1181A      1.436020  1182A      1.436577  
    1183A      1.437509  1184A      1.445102  1185A      1.446370  
    1186A      1.452709  1187A      1.453516  1188A      1.454278  
    1189A      1.458450  1190A      1.458978  1191A      1.459406  
    1192A      1.462669  1193A      1.462710  1194A      1.473835  
    1195A      1.476981  1196A      1.477910  1197A      1.478289  
    1198A      1.480378  1199A      1.480411  1200A      1.480546  
    1201A      1.481749  1202A      1.481820  1203A      1.482700  
    1204A      1.492762  1205A      1.492858  1206A      1.492966  
    1207A      1.493369  1208A      1.493572  1209A      1.500501  
    1210A      1.501246  1211A      1.503446  1212A      1.503699  
    1213A      1.504035  1214A      1.504453  1215A      1.509910  
    1216A      1.510824  1217A      1.510898  1218A      1.512415  
    1219A      1.513482  1220A      1.518076  1221A      1.519859  
    1222A      1.520988  1223A      1.522761  1224A      1.529703  
    1225A      1.530442  1226A      1.531969  1227A      1.536404  
    1228A      1.538626  1229A      1.540838  1230A      1.541100  
    1231A      1.542699  1232A      1.545100  1233A      1.545756  
    1234A      1.546341  1235A      1.550348  1236A      1.551114  
    1237A      1.557760  1238A      1.558182  1239A      1.559427  
    1240A      1.561906  1241A      1.565148  1242A      1.570375  
    1243A      1.570516  1244A      1.576774  1245A      1.586027  
    1246A      1.586728  1247A      1.592103  1248A      1.593268  
    1249A      1.593532  1250A      1.613942  1251A      1.614774  
    1252A      1.615005  1253A      1.621793  1254A      1.625196  
    1255A      1.639943  1256A      1.640332  1257A      1.660110  
    1258A      1.663327  1259A      1.663966  1260A      1.664594  
    1261A      1.672097  1262A      1.676690  1263A      1.681768  
    1264A      1.682203  1265A      1.683655  1266A      1.684464  
    1267A      1.685179  1268A      1.686304  1269A      1.687648  
    1270A      1.690575  1271A      1.690820  1272A      1.691236  
    1273A      1.692574  1274A      1.693663  1275A      1.694800  
    1276A      1.698996  1277A      1.699313  1278A      1.701701  
    1279A      1.702121  1280A      1.703448  1281A      1.707079  
    1282A      1.708811  1283A      1.708923  1284A      1.711294  
    1285A      1.712366  1286A      1.713255  1287A      1.713827  
    1288A      1.714249  1289A      1.714919  1290A      1.716051  
    1291A      1.717814  1292A      1.718493  1293A      1.719591  
    1294A      1.720898  1295A      1.725490  1296A      1.726458  
    1297A      1.727866  1298A      1.728138  1299A      1.729297  
    1300A      1.729729  1301A      1.739439  1302A      1.739589  
    1303A      1.743149  1304A      1.744036  1305A      1.744415  
    1306A      1.744663  1307A      1.746354  1308A      1.747795  
    1309A      1.749329  1310A      1.753420  1311A      1.753531  
    1312A      1.758802  1313A      1.759779  1314A      1.760481  
    1315A      1.760862  1316A      1.763058  1317A      1.765675  
    1318A      1.770541  1319A      1.771753  1320A      1.774544  
    1321A      1.774743  1322A      1.779707  1323A      1.779938  
    1324A      1.781840  1325A      1.786112  1326A      1.786269  
    1327A      1.788128  1328A      1.789782  1329A      1.791022  
    1330A      1.797009  1331A      1.797284  1332A      1.799631  
    1333A      1.799744  1334A      1.800393  1335A      1.810174  
    1336A      1.819200  1337A      1.819759  1338A      1.822627  
    1339A      1.823038  1340A      1.829296  1341A      1.831930  
    1342A      1.833998  1343A      1.839154  1344A      1.844986  
    1345A      1.847551  1346A      1.848121  1347A      1.851887  
    1348A      1.858791  1349A      1.860272  1350A      1.861213  
    1351A      1.861810  1352A      1.874055  1353A      1.874721  
    1354A      1.887715  1355A      1.895539  1356A      1.898176  
    1357A      1.898415  1358A      1.900022  1359A      1.901275  
    1360A      1.902148  1361A      1.903464  1362A      1.904425  
    1363A      1.904728  1364A      1.905789  1365A      1.910028  
    1366A      1.917507  1367A      1.920792  1368A      1.924776  
    1369A      1.924899  1370A      1.925752  1371A      1.927133  
    1372A      1.931391  1373A      1.933216  1374A      1.933919  
    1375A      1.934448  1376A      1.935311  1377A      1.939369  
    1378A      1.939683  1379A      1.941005  1380A      1.942241  
    1381A      1.943450  1382A      1.946864  1383A      1.947535  
    1384A      1.950692  1385A      1.951061  1386A      1.953707  
    1387A      1.956412  1388A      1.956836  1389A      1.957698  
    1390A      1.963506  1391A      1.964339  1392A      1.964758  
    1393A      1.965837  1394A      1.972825  1395A      1.973097  
    1396A      1.978370  1397A      1.978462  1398A      1.980130  
    1399A      1.987958  1400A      1.988569  1401A      1.990569  
    1402A      1.996052  1403A      1.996539  1404A      1.997437  
    1405A      1.999837  1406A      2.004623  1407A      2.004636  
    1408A      2.005809  1409A      2.006101  1410A      2.008088  
    1411A      2.010541  1412A      2.013095  1413A      2.015078  
    1414A      2.015503  1415A      2.017142  1416A      2.017536  
    1417A      2.017908  1418A      2.021094  1419A      2.025499  
    1420A      2.028208  1421A      2.030156  1422A      2.030325  
    1423A      2.031636  1424A      2.033861  1425A      2.035857  
    1426A      2.037484  1427A      2.037611  1428A      2.039724  
    1429A      2.044484  1430A      2.045497  1431A      2.046645  
    1432A      2.047787  1433A      2.057514  1434A      2.058456  
    1435A      2.060558  1436A      2.061035  1437A      2.066331  
    1438A      2.068532  1439A      2.069612  1440A      2.071627  
    1441A      2.071873  1442A      2.074312  1443A      2.076126  
    1444A      2.081507  1445A      2.086474  1446A      2.086883  
    1447A      2.090372  1448A      2.090864  1449A      2.091819  
    1450A      2.093770  1451A      2.093880  1452A      2.095866  
    1453A      2.096593  1454A      2.100766  1455A      2.100993  
    1456A      2.102407  1457A      2.104088  1458A      2.105576  
    1459A      2.107789  1460A      2.109520  1461A      2.109668  
    1462A      2.110059  1463A      2.113736  1464A      2.116945  
    1465A      2.122385  1466A      2.123656  1467A      2.125792  
    1468A      2.126569  1469A      2.131667  1470A      2.132280  
    1471A      2.132718  1472A      2.135048  1473A      2.136930  
    1474A      2.138192  1475A      2.138872  1476A      2.139582  
    1477A      2.144441  1478A      2.148296  1479A      2.149667  
    1480A      2.149972  1481A      2.153604  1482A      2.154490  
    1483A      2.154606  1484A      2.155345  1485A      2.155866  
    1486A      2.156701  1487A      2.159748  1488A      2.159964  
    1489A      2.160402  1490A      2.161094  1491A      2.161495  
    1492A      2.162479  1493A      2.162631  1494A      2.163505  
    1495A      2.165960  1496A      2.166925  1497A      2.168930  
    1498A      2.171477  1499A      2.172233  1500A      2.172489  
    1501A      2.173508  1502A      2.175291  1503A      2.181846  
    1504A      2.182249  1505A      2.183263  1506A      2.186503  
    1507A      2.187188  1508A      2.187486  1509A      2.189108  
    1510A      2.191363  1511A      2.191807  1512A      2.195019  
    1513A      2.195161  1514A      2.195766  1515A      2.197468  
    1516A      2.198358  1517A      2.198778  1518A      2.201074  
    1519A      2.202858  1520A      2.204566  1521A      2.205029  
    1522A      2.205844  1523A      2.211731  1524A      2.213119  
    1525A      2.215343  1526A      2.216670  1527A      2.218169  
    1528A      2.218805  1529A      2.219831  1530A      2.221907  
    1531A      2.223761  1532A      2.224314  1533A      2.226465  
    1534A      2.233538  1535A      2.233946  1536A      2.234583  
    1537A      2.236479  1538A      2.240797  1539A      2.241098  
    1540A      2.242518  1541A      2.242918  1542A      2.243150  
    1543A      2.245975  1544A      2.247022  1545A      2.251326  
    1546A      2.251808  1547A      2.255330  1548A      2.256424  
    1549A      2.258438  1550A      2.264741  1551A      2.265160  
    1552A      2.268725  1553A      2.269602  1554A      2.271035  
    1555A      2.273124  1556A      2.273573  1557A      2.273798  
    1558A      2.277861  1559A      2.278002  1560A      2.279465  
    1561A      2.279845  1562A      2.284366  1563A      2.285518  
    1564A      2.286187  1565A      2.287569  1566A      2.291472  
    1567A      2.292869  1568A      2.294949  1569A      2.298073  
    1570A      2.298389  1571A      2.298933  1572A      2.299985  
    1573A      2.302204  1574A      2.303793  1575A      2.304179  
    1576A      2.305304  1577A      2.312609  1578A      2.313533  
    1579A      2.316099  1580A      2.316208  1581A      2.319160  
    1582A      2.321360  1583A      2.324071  1584A      2.328929  
    1585A      2.331627  1586A      2.333240  1587A      2.334174  
    1588A      2.337026  1589A      2.343149  1590A      2.345463  
    1591A      2.345672  1592A      2.348956  1593A      2.350701  
    1594A      2.356172  1595A      2.356557  1596A      2.360225  
    1597A      2.365384  1598A      2.366254  1599A      2.369001  
    1600A      2.371394  1601A      2.374043  1602A      2.374983  
    1603A      2.379309  1604A      2.394541  1605A      2.396247  
    1606A      2.397436  1607A      2.398734  1608A      2.399076  
    1609A      2.400156  1610A      2.403001  1611A      2.405218  
    1612A      2.407108  1613A      2.408312  1614A      2.409258  
    1615A      2.409885  1616A      2.412966  1617A      2.414889  
    1618A      2.415602  1619A      2.416269  1620A      2.417735  
    1621A      2.418548  1622A      2.419208  1623A      2.423019  
    1624A      2.430445  1625A      2.430987  1626A      2.453898  
    1627A      2.459632  1628A      2.460430  1629A      2.465663  
    1630A      2.467787  1631A      2.474532  1632A      2.476443  
    1633A      2.479109  1634A      2.488351  1635A      2.490264  
    1636A      2.491941  1637A      2.494920  1638A      2.500591  
    1639A      2.502014  1640A      2.510772  1641A      2.521904  
    1642A      2.522366  1643A      2.526480  1644A      2.535728  
    1645A      2.537669  1646A      2.538570  1647A      2.539890  
    1648A      2.542561  1649A      2.543159  1650A      2.546530  
    1651A      2.561404  1652A      2.562131  1653A      2.572929  
    1654A      2.577433  1655A      2.577622  1656A      2.580566  
    1657A      2.584931  1658A      2.588888  1659A      2.605492  
    1660A      2.608284  1661A      2.612058  1662A      2.615985  
    1663A      2.616518  1664A      2.616839  1665A      2.617671  
    1666A      2.618289  1667A      2.620717  1668A      2.621589  
    1669A      2.627106  1670A      2.628172  1671A      2.637314  
    1672A      2.640209  1673A      2.644295  1674A      2.648620  
    1675A      2.652677  1676A      2.652973  1677A      2.656570  
    1678A      2.656728  1679A      2.657031  1680A      2.660281  
    1681A      2.660525  1682A      2.664868  1683A      2.671123  
    1684A      2.673263  1685A      2.679671  1686A      2.684846  
    1687A      2.685507  1688A      2.685889  1689A      2.689332  
    1690A      2.691444  1691A      2.692544  1692A      2.695170  
    1693A      2.705134  1694A      2.717203  1695A      2.717901  
    1696A      2.720039  1697A      2.721855  1698A      2.722839  
    1699A      2.723377  1700A      2.726711  1701A      2.727190  
    1702A      2.727741  1703A      2.733833  1704A      2.736015  
    1705A      2.738097  1706A      2.740893  1707A      2.743525  
    1708A      2.745051  1709A      2.747640  1710A      2.749860  
    1711A      2.750372  1712A      2.762155  1713A      2.763511  
    1714A      2.764934  1715A      2.765317  1716A      2.766246  
    1717A      2.770157  1718A      2.773246  1719A      2.774820  
    1720A      2.775837  1721A      2.783710  1722A      2.800385  
    1723A      2.800618  1724A      2.801356  1725A      2.801809  
    1726A      2.811043  1727A      2.812972  1728A      2.825494  
    1729A      2.843393  1730A      2.845096  1731A      2.846525  
    1732A      2.856245  1733A      2.863924  1734A      2.867007  
    1735A      2.873319  1736A      2.873974  1737A      2.877095  
    1738A      2.878380  1739A      2.885997  1740A      2.886926  
    1741A      2.891628  1742A      2.894009  1743A      2.894843  
    1744A      2.898856  1745A      2.900330  1746A      2.911213  
    1747A      2.914354  1748A      2.917296  1749A      2.918807  
    1750A      2.920344  1751A      2.920868  1752A      2.924800  
    1753A      2.933327  1754A      2.939930  1755A      2.939994  
    1756A      2.946834  1757A      2.947911  1758A      2.948487  
    1759A      2.972212  1760A      2.974515  1761A      2.988014  
    1762A      2.988239  1763A      2.996176  1764A      2.999159  
    1765A      3.000257  1766A      3.003388  1767A      3.003508  
    1768A      3.035706  1769A      3.037412  1770A      3.037797  
    1771A      3.047099  1772A      3.065613  1773A      3.065890  
    1774A      3.100488  1775A      3.100895  1776A      3.110654  
    1777A      3.113129  1778A      3.118229  1779A      3.118342  
    1780A      3.119184  1781A      3.132146  1782A      3.132386  
    1783A      3.134126  1784A      3.145993  1785A      3.174967  
    1786A      3.176331  1787A      3.180186  1788A      3.184836  
    1789A      3.185634  1790A      3.197037  1791A      3.203038  
    1792A      3.203225  1793A      3.212117  1794A      3.213326  
    1795A      3.217919  1796A      3.218369  1797A      3.221446  
    1798A      3.222914  1799A      3.223061  1800A      3.230568  
    1801A      3.237963  1802A      3.238152  1803A      3.241684  
    1804A      3.242729  1805A      3.258493  1806A      3.259880  
    1807A      3.265075  1808A      3.265226  1809A      3.272761  
    1810A      3.294988  1811A      3.319620  1812A      3.329127  
    1813A      3.331975  1814A      3.332317  1815A      3.336401  
    1816A      3.340488  1817A      3.344945  1818A      3.347151  
    1819A      3.348094  1820A      3.349233  1821A      3.375525  
    1822A      3.376408  1823A      3.396345  1824A      3.401409  
    1825A      3.416052  1826A      3.438360  1827A      3.439208  
    1828A      3.479152  1829A      3.489887  1830A      3.520389  
    1831A      3.536412  1832A      3.537175  1833A      3.539540  
    1834A      3.544866  1835A      3.553685  1836A      3.555991  
    1837A      3.561636  1838A      3.567478  1839A      3.568624  
    1840A      3.574824  1841A      3.585132  1842A      3.600332  
    1843A      3.619273  1844A      3.625295  1845A      3.657093  
    1846A      3.659558  1847A      3.672630  1848A      3.687742  
    1849A      3.715625  1850A      3.730555  1851A      3.736101  
    1852A      3.744351  1853A      3.747457  1854A      3.782508  
    1855A      3.831219  1856A      3.834136  1857A      3.842592  
    1858A      3.850103  1859A      3.854505  1860A      3.890240  
    1861A      3.915990  1862A      3.925626  1863A      3.948500  
    1864A      3.951977  1865A      3.992823  1866A      3.995075  
    1867A      4.022763  1868A      4.023300  1869A      4.028673  
    1870A      4.042947  1871A      4.048446  1872A      4.055312  
    1873A      4.099626  1874A      4.105306  1875A      4.117848  
    1876A      4.120786  1877A      4.145683  1878A      4.162671  
    1879A      4.176627  1880A      4.181922  1881A      4.187573  
    1882A      4.198251  1883A      4.243275  1884A      4.261771  
    1885A      4.276735  1886A      4.351602  1887A      4.412261  
    1888A      4.427194  1889A      4.505702  1890A      4.515616  
    1891A      4.548482  1892A      4.563850  1893A      4.576374  
    1894A      4.623319  1895A      4.636645  1896A      4.669297  
    1897A      4.712658  1898A      4.720597  1899A      4.731033  

    Final Occupation by Irrep:
              A 
    DOCC [   321 ]
    NA   [   321 ]
    NB   [   321 ]

  @DF-RHF Final Energy: -4072.79223153894509

   => Energetics <=

    Nuclear Repulsion Energy =          17944.8090292095112090
    One-Electron Energy =              -41378.9207316006577457
    Two-Electron Energy =               19361.3194708522023575
    Total Energy =                      -4072.7922315389441792

Computation Completed


Properties will be evaluated at   0.000000,   0.000000,   0.000000 [a0]

Properties computed using the SCF density matrix


 Multipole Moments:

 ------------------------------------------------------------------------------------
     Multipole            Electronic (a.u.)      Nuclear  (a.u.)        Total (a.u.)
 ------------------------------------------------------------------------------------

 L = 1.  Multiply by 2.5417464519 to convert [e a0] to [Debye]
 Dipole X            :          0.0003675           -0.0000548            0.0003128
 Dipole Y            :         -0.0001369           -0.0002464           -0.0003833
 Dipole Z            :        -12.8907117           15.4725615            2.5818498
 Magnitude           :                                                    2.5818498

 ------------------------------------------------------------------------------------

*** tstop() called on n2cn0572 at Sat Jan 27 13:29:29 2024
Module time:
	user time   =   23849.54 seconds =     397.49 minutes
	system time =    1371.00 seconds =      22.85 minutes
	total time  =      10055 seconds =     167.58 minutes
Total time:
	user time   =   23849.54 seconds =     397.49 minutes
	system time =    1371.00 seconds =      22.85 minutes
	total time  =      10055 seconds =     167.58 minutes

  //>>>>>>>>>>>>>>>>>>>>>>>>>>>>>>>>>>>//
  //            Monomer A HF           //
  //<<<<<<<<<<<<<<<<<<<<<<<<<<<<<<<<<<<//

   => Libint2 <=

    Primary   basis highest AM E, G, H:  5, 4, 3
    Auxiliary basis highest AM E, G, H:  6, 5, 4
    Onebody   basis highest AM E, G, H:  6, 5, 4
    Solid Harmonics ordering:            gaussian

*** tstart() called on n2cn0572
*** at Sat Jan 27 13:29:30 2024

   => Loading Basis Set <=

    Name: JUN-CC-PVDZ
    Role: ORBITAL
    Keyword: BASIS
    atoms 1                                                   entry B          line   130 file /opt/software/pc2/EB-SW/software/PSI4/1.9-foss-2022a/share/psi4/basis/jun-cc-pvdz.gbs 
    atoms 2-5                                                 entry F          line   266 file /opt/software/pc2/EB-SW/software/PSI4/1.9-foss-2022a/share/psi4/basis/jun-cc-pvdz.gbs 
    atoms 6-23, 30-42, 45-59, 62-78, 81-93, 98-108, 111-119   entry C          line   164 file /opt/software/pc2/EB-SW/software/PSI4/1.9-foss-2022a/share/psi4/basis/jun-cc-pvdz.gbs 
    atoms 24-29, 43-44, 60-61, 79-80, 94-97, 109-110, 120-125 entry H          line    36 file /opt/software/pc2/EB-SW/software/PSI4/1.9-foss-2022a/share/psi4/basis/jun-cc-pvdz.gbs 


         ---------------------------------------------------------
                                   SCF
               by Justin Turney, Rob Parrish, Andy Simmonett
                          and Daniel G. A. Smith
                              RHF Reference
                       16 Threads,  61035 MiB Core
         ---------------------------------------------------------

  ==> Geometry <==

    Molecular point group: c1
    Full point group: C1

    Geometry (in Angstrom), charge = -1, multiplicity = 1:

       Center              X                  Y                   Z               Mass       
    ------------   -----------------  -----------------  -----------------  -----------------
         B           -0.000201921932     0.000288800891    -2.420892781598    11.009305360000
         F           -0.000004162732     0.000014527991    -1.008107781598    18.998403162730
         F            1.147855837268     0.675795727991    -2.892033781598    18.998403162730
         F            0.011913897268    -1.331996472009    -2.891831781598    18.998403162730
         F           -1.159670162732     0.656088027991    -2.891752781598    18.998403162730
      Gh(C)          -3.668445426752     7.803766698073     0.180973259737    12.000000000000
      Gh(C)          -4.847602882078     7.131256359331     0.178606684805    12.000000000000
      Gh(C)          -4.894963461907     5.696344931522     0.178033773706    12.000000000000
      Gh(C)          -3.653744841505     4.980744868950     0.185694215436    12.000000000000
      Gh(C)          -2.409429284226     7.113995564665     0.181167601997    12.000000000000
      Gh(C)          -2.425481506836     5.681136478894     0.174162713127    12.000000000000
      Gh(C)          -1.194748179167     7.786158722300     0.182639782539    12.000000000000
      Gh(C)           0.037954866205     7.099436173748     0.180469078234    12.000000000000
      Gh(C)           0.030328424687     5.669504087695     0.174985693319    12.000000000000
      Gh(C)          -1.200988670637     4.969284875906     0.183955427252    12.000000000000
      Gh(C)           1.277953663083     7.772873971185     0.181844926795    12.000000000000
      Gh(C)           2.485353921992     7.087711413228     0.179570438890    12.000000000000
      Gh(C)           2.486124522185     5.654785338231     0.172632689902    12.000000000000
      Gh(C)           1.254078756912     4.956092641655     0.184260631491    12.000000000000
      Gh(C)           3.751710428674     7.763926678971     0.179697290271    12.000000000000
      Gh(C)           4.923561893453     7.078795304981     0.177640809563    12.000000000000
      Gh(C)           4.955603108594     5.643461991360     0.177480396756    12.000000000000
      Gh(C)           3.706797371473     4.941224736324     0.182571956925    12.000000000000
      Gh(H)          -3.658525300490     8.890841947126     0.182658247987     1.007825032230
      Gh(H)          -1.189217492488     8.874135615351     0.186611658980     1.007825032230
      Gh(H)           1.284290076155     8.860847963479     0.186003750936     1.007825032230
      Gh(H)           3.753537924068     8.851049806963     0.181219814586     1.007825032230
      Gh(H)           5.869954540475     7.613809362646     0.176715442520     1.007825032230
      Gh(H)          -5.788235870234     7.676316740925     0.177046837449     1.007825032230
      Gh(C)          -6.091978121428     4.993274541634     0.176161533216    12.000000000000
[...]
    1522A      2.165936  1523A      2.166179  1524A      2.167135  
    1525A      2.167615  1526A      2.168038  1527A      2.172453  
    1528A      2.176998  1529A      2.177623  1530A      2.180680  
    1531A      2.180996  1532A      2.182633  1533A      2.183947  
    1534A      2.183991  1535A      2.193164  1536A      2.193556  
    1537A      2.193637  1538A      2.196144  1539A      2.200575  
    1540A      2.201266  1541A      2.201641  1542A      2.203698  
    1543A      2.204083  1544A      2.205856  1545A      2.206198  
    1546A      2.211808  1547A      2.212199  1548A      2.216852  
    1549A      2.220347  1550A      2.222919  1551A      2.223886  
    1552A      2.228011  1553A      2.230043  1554A      2.230969  
    1555A      2.231956  1556A      2.232080  1557A      2.233050  
    1558A      2.233528  1559A      2.235501  1560A      2.236713  
    1561A      2.236994  1562A      2.240224  1563A      2.240303  
    1564A      2.245524  1565A      2.248392  1566A      2.248439  
    1567A      2.258547  1568A      2.264286  1569A      2.267603  
    1570A      2.268968  1571A      2.269499  1572A      2.276440  
    1573A      2.279006  1574A      2.281025  1575A      2.281542  
    1576A      2.283198  1577A      2.287740  1578A      2.292084  
    1579A      2.294131  1580A      2.294458  1581A      2.296995  
    1582A      2.299750  1583A      2.308020  1584A      2.308749  
    1585A      2.314013  1586A      2.322874  1587A      2.324871  
    1588A      2.325400  1589A      2.326409  1590A      2.327991  
    1591A      2.330361  1592A      2.333181  1593A      2.335218  
    1594A      2.336832  1595A      2.336933  1596A      2.339910  
    1597A      2.341916  1598A      2.342220  1599A      2.342273  
    1600A      2.344843  1601A      2.346632  1602A      2.346677  
    1603A      2.347876  1604A      2.348628  1605A      2.354575  
    1606A      2.355457  1607A      2.357855  1608A      2.378398  
    1609A      2.384801  1610A      2.388453  1611A      2.393302  
    1612A      2.394536  1613A      2.402539  1614A      2.404628  
    1615A      2.407005  1616A      2.416906  1617A      2.418988  
    1618A      2.421130  1619A      2.423729  1620A      2.434814  
    1621A      2.440430  1622A      2.441266  1623A      2.453272  
    1624A      2.454428  1625A      2.465065  1626A      2.465852  
    1627A      2.468535  1628A      2.469273  1629A      2.472015  
    1630A      2.472233  1631A      2.491503  1632A      2.491898  
    1633A      2.498374  1634A      2.501974  1635A      2.504015  
    1636A      2.507808  1637A      2.508219  1638A      2.512215  
    1639A      2.516920  1640A      2.523898  1641A      2.540725  
    1642A      2.544739  1643A      2.545470  1644A      2.545623  
    1645A      2.547325  1646A      2.548620  1647A      2.551234  
    1648A      2.551787  1649A      2.555682  1650A      2.555952  
    1651A      2.564370  1652A      2.568390  1653A      2.571567  
    1654A      2.572440  1655A      2.573636  1656A      2.584509  
    1657A      2.585245  1658A      2.586444  1659A      2.586576  
    1660A      2.589454  1661A      2.589551  1662A      2.592985  
    1663A      2.593362  1664A      2.593951  1665A      2.603924  
    1666A      2.605497  1667A      2.608963  1668A      2.614662  
    1669A      2.614845  1670A      2.615366  1671A      2.615682  
    1672A      2.620517  1673A      2.621091  1674A      2.633080  
    1675A      2.644772  1676A      2.646237  1677A      2.650194  
    1678A      2.650733  1679A      2.652073  1680A      2.654103  
    1681A      2.656451  1682A      2.657030  1683A      2.657981  
    1684A      2.658282  1685A      2.666279  1686A      2.669040  
    1687A      2.674111  1688A      2.675351  1689A      2.677886  
    1690A      2.680994  1691A      2.681178  1692A      2.684946  
    1693A      2.689276  1694A      2.690316  1695A      2.691827  
    1696A      2.692284  1697A      2.693838  1698A      2.698776  
    1699A      2.700659  1700A      2.703512  1701A      2.703994  
    1702A      2.711310  1703A      2.728745  1704A      2.731042  
    1705A      2.732389  1706A      2.732735  1707A      2.735801  
    1708A      2.736263  1709A      2.761256  1710A      2.767175  
    1711A      2.769109  1712A      2.778825  1713A      2.792525  
    1714A      2.795314  1715A      2.801840  1716A      2.801908  
    1717A      2.802488  1718A      2.804404  1719A      2.814723  
    1720A      2.815014  1721A      2.815275  1722A      2.817408  
    1723A      2.820036  1724A      2.820956  1725A      2.825893  
    1726A      2.827110  1727A      2.840423  1728A      2.842940  
    1729A      2.843723  1730A      2.846185  1731A      2.846826  
    1732A      2.850866  1733A      2.857352  1734A      2.865916  
    1735A      2.865955  1736A      2.875207  1737A      2.875544  
    1738A      2.876631  1739A      2.896176  1740A      2.897073  
    1741A      2.919176  1742A      2.919405  1743A      2.921155  
    1744A      2.925904  1745A      2.926938  1746A      2.927869  
    1747A      2.928617  1748A      2.940553  1749A      2.941517  
    1750A      2.964178  1751A      2.968306  1752A      2.968681  
    1753A      2.976492  1754A      2.993454  1755A      2.994323  
    1756A      2.996192  1757A      3.030857  1758A      3.031187  
    1759A      3.042191  1760A      3.044756  1761A      3.049200  
    1762A      3.049675  1763A      3.050118  1764A      3.058112  
    1765A      3.058347  1766A      3.069255  1767A      3.073295  
    1768A      3.112141  1769A      3.114757  1770A      3.115300  
    1771A      3.126320  1772A      3.130840  1773A      3.131190  
    1774A      3.143579  1775A      3.144282  1776A      3.149889  
    1777A      3.150169  1778A      3.152505  1779A      3.152844  
    1780A      3.153378  1781A      3.153782  1782A      3.155136  
    1783A      3.162235  1784A      3.168850  1785A      3.173348  
    1786A      3.185501  1787A      3.186124  1788A      3.194227  
    1789A      3.194972  1790A      3.208311  1791A      3.222128  
    1792A      3.260340  1793A      3.261529  1794A      3.263209  
    1795A      3.263443  1796A      3.265751  1797A      3.270166  
    1798A      3.272999  1799A      3.275545  1800A      3.276670  
    1801A      3.277340  1802A      3.301096  1803A      3.302547  
    1804A      3.323746  1805A      3.329631  1806A      3.363190  
    1807A      3.364162  1808A      3.401684  1809A      3.420044  
    1810A      3.445774  1811A      3.447005  1812A      3.459356  
    1813A      3.460399  1814A      3.463668  1815A      3.468754  
    1816A      3.477791  1817A      3.479650  1818A      3.484119  
    1819A      3.490451  1820A      3.492353  1821A      3.510052  
    1822A      3.537628  1823A      3.546189  1824A      3.566498  
    1825A      3.583185  1826A      3.585496  1827A      3.592210  
    1828A      3.602584  1829A      3.658389  1830A      3.662185  
    1831A      3.670941  1832A      3.673662  1833A      3.707703  
    1834A      3.760162  1835A      3.762886  1836A      3.773622  
    1837A      3.778747  1838A      3.784111  1839A      3.811091  
    1840A      3.844546  1841A      3.854802  1842A      3.875690  
    1843A      3.879315  1844A      3.923105  1845A      3.923921  
    1846A      3.950357  1847A      3.950906  1848A      3.969278  
    1849A      3.971560  1850A      3.974733  1851A      3.978346  
    1852A      3.997489  1853A      4.024893  1854A      4.027735  
    1855A      4.087742  1856A      4.277957  1857A      4.429017  
    1858A      4.472242  1859A      4.491550  1860A      4.496840  
    1861A      4.596447  1862A      4.843113  1863A      5.764443  
    1864A      5.770568  1865A      5.784591  1866A      5.784857  
    1867A      5.806000  1868A      5.806921  1869A      5.868712  
    1870A      5.871426  1871A      5.878144  1872A      6.040108  
    1873A      6.087791  1874A      6.092115  1875A      6.115354  
    1876A      6.130484  1877A      6.215383  1878A      6.346461  
    1879A      6.348250  1880A      6.388138  1881A      6.408738  
    1882A      6.409337  1883A      7.371957  1884A      7.396908  
    1885A      7.408062  1886A      7.492606  1887A      7.497567  
    1888A      7.567509  1889A      7.710353  1890A      7.711940  
    1891A      7.815584  1892A      7.956579  1893A      7.984150  
    1894A      8.471136  1895A     13.001184  1896A     42.964514  
    1897A     42.964624  1898A     42.978502  1899A     42.998473  

    Final Occupation by Irrep:
              A 
    DOCC [   300 ]
    NA   [   300 ]
    NB   [   300 ]

  @DF-RHF Final Energy: -3650.34119661716704

   => Energetics <=

    Nuclear Repulsion Energy =          15611.4211649754324753
    One-Electron Energy =              -36072.1746307680368773
    Two-Electron Energy =               16810.4122691754382686
    Total Energy =                      -3650.3411966171661334

Computation Completed


Properties will be evaluated at   0.000000,   0.000000,   0.000000 [a0]

Properties computed using the SCF density matrix


 Multipole Moments:

 ------------------------------------------------------------------------------------
     Multipole            Electronic (a.u.)      Nuclear  (a.u.)        Total (a.u.)
 ------------------------------------------------------------------------------------

 L = 1.  Multiply by 2.5417464519 to convert [e a0] to [Debye]
 Dipole X            :          0.0004290            0.0002304            0.0006594
 Dipole Y            :          0.0013930           -0.0013052            0.0000878
 Dipole Z            :       -203.0443153          203.0429954           -0.0013199
 Magnitude           :                                                    0.0014781

 ------------------------------------------------------------------------------------

*** tstop() called on n2cn0572 at Sat Jan 27 16:06:20 2024
Module time:
	user time   =   16572.17 seconds =     276.20 minutes
	system time =    1045.01 seconds =      17.42 minutes
	total time  =       5946 seconds =      99.10 minutes
Total time:
	user time   =   44866.58 seconds =     747.78 minutes
	system time =    2859.06 seconds =      47.65 minutes
	total time  =      19466 seconds =     324.43 minutes
  Constructing Basis Sets for SAPT...

   => Loading Basis Set <=

    Name: (JUN-CC-PVDZ AUX)
    Role: RIFIT
    Keyword: DF_BASIS_SAPT
    atoms 1                                                   entry B          line    56 file /opt/software/pc2/EB-SW/software/PSI4/1.9-foss-2022a/share/psi4/basis/jun-cc-pvdz-ri.gbs 
    atoms 2-5                                                 entry F          line   232 file /opt/software/pc2/EB-SW/software/PSI4/1.9-foss-2022a/share/psi4/basis/jun-cc-pvdz-ri.gbs 
    atoms 6-23, 30-42, 45-59, 62-78, 81-93, 98-108, 111-119   entry C          line   100 file /opt/software/pc2/EB-SW/software/PSI4/1.9-foss-2022a/share/psi4/basis/jun-cc-pvdz-ri.gbs 
    atoms 24-29, 43-44, 60-61, 79-80, 94-97, 109-110, 120-125 entry H          line    30 file /opt/software/pc2/EB-SW/software/PSI4/1.9-foss-2022a/share/psi4/basis/jun-cc-pvdz-ri.gbs 

   => Loading Basis Set <=

    Name: (JUN-CC-PVDZ AUX)
    Role: JKFIT
    Keyword: DF_BASIS_ELST
    atoms 1                                                   entry B          line    90 file /opt/software/pc2/EB-SW/software/PSI4/1.9-foss-2022a/share/psi4/basis/jun-cc-pvdz-jkfit.gbs 
    atoms 2-5                                                 entry F          line   314 file /opt/software/pc2/EB-SW/software/PSI4/1.9-foss-2022a/share/psi4/basis/jun-cc-pvdz-jkfit.gbs 
    atoms 6-23, 30-42, 45-59, 62-78, 81-93, 98-108, 111-119   entry C          line   146 file /opt/software/pc2/EB-SW/software/PSI4/1.9-foss-2022a/share/psi4/basis/jun-cc-pvdz-jkfit.gbs 
    atoms 24-29, 43-44, 60-61, 79-80, 94-97, 109-110, 120-125 entry H          line    70 file /opt/software/pc2/EB-SW/software/PSI4/1.9-foss-2022a/share/psi4/basis/jun-cc-pvdz-jkfit.gbs 


  //>>>>>>>>>>>>>>>>>>>>>>>>>>>>>>>>>>>//
  //               SSAPT0              //
  //<<<<<<<<<<<<<<<<<<<<<<<<<<<<<<<<<<<//


*** tstart() called on n2cn0572
*** at Sat Jan 27 16:06:21 2024

        SAPT0  
    Ed Hohenstein
     6 June 2009

      Orbital Information
  --------------------------
    NSO        =      1938
    NMO        =      1899
    NRI        =      6901
    NRI (Elst) =      8531
    NOCC A     =        21
    NOCC B     =       300
    FOCC A     =         5
    FOCC B     =        96
    NVIR A     =      1878
    NVIR B     =      1599

    Elst10,r            =    -0.262963221603 [Eh]
    Exch10              =     0.632647230663 [Eh]
    Exch10 (S^2)        =     0.595853808370 [Eh]

    Iter     Energy [mEh]          dE [mEh]         Residual      Time [s]
       1    -125.41261418     125.412614185     100.735768637           711
       2    -141.22006126      15.807447070      39.078108759          1277
       3    -154.10560907      12.885547819       6.794375628          1942
       4    -154.03754074      -0.068068335       1.937048930          2578
       5    -153.81259151      -0.224949226       0.474801674          3404
       6    -153.80683151      -0.005760002       0.143017004          3944
       7    -153.81997640       0.013144893       0.026881929          4524
       8    -153.81907896      -0.000897442       0.006003773          5171
       9    -153.81891796      -0.000161003       0.000844994          5849
      10    -153.81896271       0.000044750       0.000147433          6571
      11    -153.81895802      -0.000004687       0.000031443          7202
      12    -153.81895800      -0.000000025       0.000007605          7798
      13    -153.81895812       0.000000127       0.000002439          8280
      14    -153.81895817       0.000000045       0.000000499          9101

    CHF Iterations converged


    Iter     Energy [mEh]          dE [mEh]         Residual      Time [s]
       1    -200.87812018     200.878120180     141.094436461           727
       2    -192.56027202      -8.317848162      39.173737013          1478
       3    -211.68309805      19.122826036      11.142973671          2048
       4    -213.25672963       1.573631581       3.522183009          2781
       5    -212.71384231      -0.542887329       1.383961508          3556
       6    -212.58213703      -0.131705281       0.654360523          4201
       7    -212.63660515       0.054468123       0.281466748          4842
       8    -212.67115501       0.034549866       0.129589128          5481
       9    -212.66655634      -0.004598670       0.058095047          6161
      10    -212.66007828      -0.006478065       0.024007192          6950
      11    -212.66118113       0.001102851       0.016017087          7707
      12    -212.66253534       0.001354206       0.013140119          8385
      13    -212.66207222      -0.000463116       0.007735133          9103
      14    -212.66157352      -0.000498704       0.003800313          9683
      15    -212.66165365       0.000080134       0.001846819         10352
      16    -212.66174354       0.000089890       0.000780579         11059
      17    -212.66174818       0.000004641       0.000253939         11578
      18    -212.66173594      -0.000012241       0.000112279         12172
      19    -212.66173338      -0.000002564       0.000057053         12742
      20    -212.66173516       0.000001786       0.000029943         13446
      21    -212.66173632       0.000001160       0.000014525         14007
      22    -212.66173577      -0.000000549       0.000007479         14968
      23    -212.66173557      -0.000000208       0.000004470         15650
      24    -212.66173574       0.000000170       0.000002236         16187
      25    -212.66173576       0.000000027       0.000001146         16812
      26    -212.66173573      -0.000000028       0.000000513         17568

    CHF Iterations converged

    Ind20,r (A<-B)      =    -0.153818958168 [Eh]
    Ind20,r (B<-A)      =    -0.212661735735 [Eh]
    Ind20,r             =    -0.366480693903 [Eh]
    Exch-Ind20,r (A<-B) =     0.113979227781 [Eh]
    Exch-Ind20,r (B<-A) =     0.149470276506 [Eh]
    Exch-Ind20,r        =     0.263449504287 [Eh]
    Disp20              =    -0.100939762162 [Eh]
    Disp20 (SS)         =    -0.050469881081 [Eh]
    Disp20 (OS)         =    -0.050469881081 [Eh]
    Exch-Disp20         =     0.037321833661 [Eh]
    Exch-Disp20 (SS)    =     0.018098415086 [Eh]
    Exch-Disp20 (OS)    =     0.019223418575 [Eh]

    SAPT Results 
  --------------------------------------------------------------------------------------------------------
    Electrostatics               -262.96322160 [mEh]    -165.01191281 [kcal/mol]    -690.40984320 [kJ/mol]
      Elst10,r                   -262.96322160 [mEh]    -165.01191281 [kcal/mol]    -690.40984320 [kJ/mol]

    Exchange                      632.64723066 [mEh]     396.99213080 [kcal/mol]    1661.01507527 [kJ/mol]
      Exch10                      632.64723066 [mEh]     396.99213080 [kcal/mol]    1661.01507527 [kJ/mol]
      Exch10(S^2)                 595.85380837 [mEh]     373.90390974 [kcal/mol]    1564.41395835 [kJ/mol]

    Induction                     -43.35246377 [mEh]     -27.20408173 [kcal/mol]    -113.82187794 [kJ/mol]
      Ind20,r                    -366.48069390 [mEh]    -229.97010738 [kcal/mol]    -962.19492928 [kJ/mol]
      Exch-Ind20,r                263.44950429 [mEh]     165.31705980 [kcal/mol]     691.68657821 [kJ/mol]
      delta HF,r (2)               59.67872585 [mEh]      37.44896585 [kcal/mol]     156.68647313 [kJ/mol]

    Dispersion                    -63.61792850 [mEh]     -39.92085284 [kcal/mol]    -167.02884827 [kJ/mol]
      Disp20                     -100.93976216 [mEh]     -63.34065704 [kcal/mol]    -265.01730904 [kJ/mol]
      Exch-Disp20                  37.32183366 [mEh]      23.41980420 [kcal/mol]      97.98846078 [kJ/mol]
      Disp20 (SS)                 -50.46988108 [mEh]     -31.67032852 [kcal/mol]    -132.50865452 [kJ/mol]
      Disp20 (OS)                 -50.46988108 [mEh]     -31.67032852 [kcal/mol]    -132.50865452 [kJ/mol]
      Exch-Disp20 (SS)             18.09841509 [mEh]      11.35692693 [kcal/mol]      47.51738226 [kJ/mol]
      Exch-Disp20 (OS)             19.22341858 [mEh]      12.06287727 [kcal/mol]      50.47107852 [kJ/mol]

  Total HF                        326.33154529 [mEh]     204.77613626 [kcal/mol]     856.78335412 [kJ/mol]
  Total SAPT0                     262.71361679 [mEh]     164.85528343 [kcal/mol]     689.75450586 [kJ/mol]

  Special recipe for scaled SAPT0 (see Manual):
    Electrostatics sSAPT0        -262.96322160 [mEh]    -165.01191281 [kcal/mol]    -690.40984320 [kJ/mol]
    Exchange sSAPT0               632.64723066 [mEh]     396.99213080 [kcal/mol]    1661.01507527 [kJ/mol]
    Induction sSAPT0                8.52641314 [mEh]       5.35040502 [kcal/mol]      22.38609462 [kJ/mol]
    Dispersion sSAPT0             -56.26845628 [mEh]     -35.30898939 [kcal/mol]    -147.73281160 [kJ/mol]
  Total sSAPT0                    321.94196592 [mEh]     202.02163362 [kcal/mol]     845.25851508 [kJ/mol]
  --------------------------------------------------------------------------------------------------------

*** tstop() called on n2cn0572 at Mon Jan 29 00:36:04 2024
Module time:
	user time   =   68844.75 seconds =    1147.41 minutes
	system time =    3311.65 seconds =      55.19 minutes
	total time  =     116983 seconds =    1949.72 minutes
Total time:
	user time   =  113712.65 seconds =    1895.21 minutes
	system time =    6170.72 seconds =     102.85 minutes
	total time  =     136450 seconds =    2274.17 minutes

    Psi4 stopped on: Monday, 29 January 2024 12:36AM
    Psi4 wall time for execution: 1 day, 13:54:11.71

*** Psi4 exiting successfully. Buy a developer a beer!
