
    -----------------------------------------------------------------------
          Psi4: An Open-Source Ab Initio Electronic Structure Package
                               Psi4 1.9 release

                         Git: Rev {} zzzzzzz 


    D. G. A. Smith, L. A. Burns, A. C. Simmonett, R. M. Parrish,
    M. C. Schieber, R. Galvelis, P. Kraus, H. Kruse, R. Di Remigio,
    A. Alenaizan, A. M. James, S. Lehtola, J. P. Misiewicz, M. Scheurer,
    R. A. Shaw, J. B. Schriber, Y. Xie, Z. L. Glick, D. A. Sirianni,
    J. S. O'Brien, J. M. Waldrop, A. Kumar, E. G. Hohenstein,
    B. P. Pritchard, B. R. Brooks, H. F. Schaefer III, A. Yu. Sokolov,
    K. Patkowski, A. E. DePrince III, U. Bozkaya, R. A. King,
    F. A. Evangelista, J. M. Turney, T. D. Crawford, C. D. Sherrill,
    J. Chem. Phys. 152(18) 184108 (2020). https://doi.org/10.1063/5.0006002

                            Additional Code Authors
    E. T. Seidl, C. L. Janssen, E. F. Valeev, M. L. Leininger,
    J. F. Gonthier, R. M. Richard, H. R. McAlexander, M. Saitow, X. Wang,
    P. Verma, M. H. Lechner, A. Jiang, S. Behnle, A. G. Heide,
    M. F. Herbst, and D. L. Poole

             Previous Authors, Complete List of Code Contributors,
                       and Citations for Specific Modules
    https://github.com/psi4/psi4/blob/master/codemeta.json
    https://github.com/psi4/psi4/graphs/contributors
    http://psicode.org/psi4manual/master/introduction.html#citing-psifour

    -----------------------------------------------------------------------


    Psi4 started on: Monday, 22 January 2024 04:44PM

    Process ID: 1877586
    Host:       d-16-7-4
    PSIDATADIR: /home/gridsan/tfroembgen/.conda/envs/psi4test/share/psi4
    Memory:     500.0 MiB
    Threads:    12
    
  ==> Input File <==

--------------------------------------------------------------------------
memory 32 GB # how much memory is available ! Depends on the nodes/cores !

molecule dimer {
# monomer A
+1 1    # Charge and multiplicity
C  0.680067 -1.215929 4.008042
C -0.680504 -1.215545 4.006014
N -1.085635  0.102779 4.005016
C  0.000108  0.884180 4.001740
C -2.477365  0.570758 3.955610
N  1.085222  0.102779 4.005016
H  1.385146 -2.033368 4.015870
H -1.385302 -2.033214 4.006204
H -0.000009  1.965269 3.999993
C  2.478117  0.567877 4.021908
H  2.490592  1.658130 3.994563
H  2.967028  0.220701 4.935354
H  3.001428  0.176405 3.146425
H -2.857359  0.490799 2.933539
H -3.082679 -0.042306 4.625694
H -2.518128  1.610706 4.282594
--
# monomer B
0 1     # Charge and multiplicity
C   1.22531237526482      0.70753866091955      0.00613762728373
C   1.22532433589282     -0.70753852257020     -0.00619318228664
C   -0.00000567409046      1.41496628609039     -0.00672680580738
C   2.45644923379077      1.41832825917820      0.00902448468363
C   0.00001130712078     -1.41497612663474      0.00347275151708
C   -1.22530046906674      0.70754574598412      0.00838914760619
C   2.45643823516184     -1.41832293188077     -0.00843833914343
C   -0.00000085313587      2.83680140328112     -0.00913035594137
C   3.68182717731192      0.70931832800114     -0.00808954934571
C   2.45512052870677      2.83422403348893     -0.00819210630633
C   3.68182158506039     -0.70933346742900      0.00798293467272
C   -1.22531311884624     -0.70752714354401     -0.00512042085974
C   1.22670006104402      3.54346985599427      0.00816696660346
C   0.00000526469929     -2.83678176723568      0.00832091913869
C   -2.45643555300670      1.41831729028492      0.00842454345199
C   2.45512389762097     -2.83422965658853      0.00783102630520
C   -1.22671388474763      3.54346943575023      0.00827029982280
C   4.91451777504333      1.42717324448953     -0.00160886631602
C   3.69315067131765      3.54279566454522     -0.00155906667985
C   -2.45643712022637     -1.41831290883911     -0.00846337726810
C   1.22670532178455     -3.54347386990643     -0.00780316414624
C   -2.45512491866593      2.83421703463423     -0.00818572995999
C   4.91452486062398     -1.42718653794377      0.00136387641845
C   1.22142509354026      4.97013443726031      0.00150231067809
C   4.89300870916237      2.82518837202648     -0.00039219795739
C   -1.22669652864725     -3.54347062507680     -0.00753595973677
C   -3.68181849668397      0.70932533873199     -0.00807686886569
C   3.69314758099218     -3.54280096939050      0.00148176697923
C   -1.22143177215231      4.97012866986289      0.00168580605083
C   6.13477145276790      0.68054831910577     -0.00083909176631
C   3.65678936045204      4.97295361556775     -0.00065042889723
C   -2.45512642789169     -2.83421472106065      0.00758666850712
C   -3.68181869921921     -0.70932533146830      0.00810055625144
C   4.89301309775526     -2.82519973363176      0.00021895393805
C   -0.00000059327114      5.65044773803267      0.00045449734393
C   6.13477559217374     -0.68055448207492      0.00042622874941
C   2.47813196269732      5.65357712333155      0.00063835075260
C   1.22142288457925     -4.97012668293268     -0.00129718634452
C   -3.69316190412301      3.54279732619245     -0.00139355922051
C   -1.22142804110313     -4.97011793159564     -0.00140994817719
C   -4.91452132810043      1.42717581899491     -0.00153192130862
C   3.65678749952045     -4.97295485423912      0.00080007163680
C   -2.47813805026426      5.65357479452875      0.00092287576113
C   -3.69314125872231     -3.54278984697859      0.00136564082345
C   -4.91451200321153     -1.42718062802730      0.00139857359209
C   -0.00000552908399     -5.65043791501335      0.00005899322272
C   -4.89302000425900      2.82518897091939     -0.00040227981744
C   2.47812647313991     -5.65357317188818     -0.00029052915548
C   -3.65679823041642      4.97295655404175     -0.00047374852278
C   -4.89299899901461     -2.82519139505969      0.00006491824035
C   -2.47812801824129     -5.65356579800621     -0.00056571680280
C   -6.13477002348955      0.68054913825639     -0.00086464346868
C   -3.65678835334731     -4.97294365097028      0.00058578382008
C   -6.13476456307132     -0.68055354348201      0.00040575295444
H   5.83528897565761      3.36927626695423      0.00396712770529
H   7.07385965258860      1.22821762089947     -0.00037744837300
H   4.60066374401555      5.51238117445323     -0.00014522814529
H   5.83528386714679     -3.36930568472863     -0.00423551337640
H   -0.00001167146422      6.73853104613662     -0.00389474766392
H   7.07386165167227     -1.22822657074368     -0.00008250934481
H   2.47331421164041      6.74068466339473      0.00017162982210
H   4.60066897122302     -5.51237575717576      0.00039007446835
H   -2.47331820069565      6.74068209160650      0.00047297644710
H   -0.00000978838621     -6.73852780445195      0.00458867820736
H   -5.83530143450167      3.36927132229595      0.00410314985360
H   2.47330840367253     -6.74068500242887      0.00027980126949
H   -4.60067436136587      5.51237839860371      0.00002010017831
H   -5.83527902699321     -3.36928859177951     -0.00451481925734
H   -2.47329986759855     -6.74067870613986     -0.00016951527498
H   -7.07385728692578      1.22822084484047     -0.00046143985387
H   -4.60067330624313     -5.51236229778631      0.00021776644566
H   -7.07385645456741     -1.22822025997701     -0.00017736581114

    units angstrom      # Angstroms are the default
    no_reorient         # Geometry fixed, default
    symmetry c1         # C1 symmetry, default
}

set {
    scf_type DF         # Density fitting, faster than exact integrals
    freeze_core True    # Freeze core electrons
    basis jun-cc-pVDZ   # Jun-cc-pVDZ basis set, recommended for sSAPT0 in https://doi.org/10.1063/1.4867135
}

energy('ssapt0')        # Compute sSAPT0 energy, includes also SAPT0
--------------------------------------------------------------------------

  Memory set to  29.802 GiB by Python driver.

Scratch directory: /state/partition1/slurm_tmp/24798240.4294967291.0/
   => Loading Basis Set <=

    Name: JUN-CC-PVDZ
    Role: ORBITAL
    Keyword: BASIS
    atoms 1-2, 4-5, 10, 17-70 entry C          line   164 file /home/gridsan/tfroembgen/.conda/envs/psi4test/share/psi4/basis/jun-cc-pvdz.gbs 
    atoms 3, 6                entry N          line   198 file /home/gridsan/tfroembgen/.conda/envs/psi4test/share/psi4/basis/jun-cc-pvdz.gbs 
    atoms 7-9, 11-16, 71-88   entry H          line    36 file /home/gridsan/tfroembgen/.conda/envs/psi4test/share/psi4/basis/jun-cc-pvdz.gbs 

   => Loading Basis Set <=

    Name: JUN-CC-PVDZ
    Role: ORBITAL
    Keyword: BASIS
    atoms 1-2, 4-5, 10, 17-70 entry C          line   164 file /home/gridsan/tfroembgen/.conda/envs/psi4test/share/psi4/basis/jun-cc-pvdz.gbs 
    atoms 3, 6                entry N          line   198 file /home/gridsan/tfroembgen/.conda/envs/psi4test/share/psi4/basis/jun-cc-pvdz.gbs 
    atoms 7-9, 11-16, 71-88   entry H          line    36 file /home/gridsan/tfroembgen/.conda/envs/psi4test/share/psi4/basis/jun-cc-pvdz.gbs 


  //>>>>>>>>>>>>>>>>>>>>>>>>>>>>>>>>>>>//
  //              Dimer HF             //
  //<<<<<<<<<<<<<<<<<<<<<<<<<<<<<<<<<<<//

   => Libint2 <=

    Primary   basis highest AM E, G, H:  7, 7, 4
    Auxiliary basis highest AM E, G, H:  7, 7, 5
    Onebody   basis highest AM E, G, H:  7, 7, 5
    Solid Harmonics ordering:            gaussian

*** tstart() called on d-16-7-4
*** at Mon Jan 22 16:44:24 2024

   => Loading Basis Set <=

    Name: JUN-CC-PVDZ
    Role: ORBITAL
    Keyword: BASIS
    atoms 1-2, 4-5, 10, 17-70 entry C          line   164 file /home/gridsan/tfroembgen/.conda/envs/psi4test/share/psi4/basis/jun-cc-pvdz.gbs 
    atoms 3, 6                entry N          line   198 file /home/gridsan/tfroembgen/.conda/envs/psi4test/share/psi4/basis/jun-cc-pvdz.gbs 
    atoms 7-9, 11-16, 71-88   entry H          line    36 file /home/gridsan/tfroembgen/.conda/envs/psi4test/share/psi4/basis/jun-cc-pvdz.gbs 


         ---------------------------------------------------------
                                   SCF
               by Justin Turney, Rob Parrish, Andy Simmonett
                          and Daniel G. A. Smith
                              RHF Reference
                       12 Threads,  30517 MiB Core
         ---------------------------------------------------------

  ==> Geometry <==

    Molecular point group: c1
    Full point group: C1

    Geometry (in Angstrom), charge = 1, multiplicity = 1:

       Center              X                  Y                   Z               Mass       
    ------------   -----------------  -----------------  -----------------  -----------------
         C            0.680066520158    -1.215933861162     3.499268723166    12.000000000000
         C           -0.680504479842    -1.215549861162     3.497240723166    12.000000000000
         N           -1.085635479842     0.102774138838     3.496242723166    14.003074004430
         C            0.000107520158     0.884175138838     3.492966723166    12.000000000000
         C           -2.477365479842     0.570753138838     3.446836723166    12.000000000000
         N            1.085221520158     0.102774138838     3.496242723166    14.003074004430
         H            1.385145520158    -2.033372861162     3.507096723166     1.007825032230
         H           -1.385302479842    -2.033218861162     3.497430723166     1.007825032230
         H           -0.000009479842     1.965264138838     3.491219723166     1.007825032230
         C            2.478116520158     0.567872138838     3.513134723166    12.000000000000
         H            2.490591520158     1.658125138838     3.485789723166     1.007825032230
         H            2.967027520158     0.220696138838     4.426580723166     1.007825032230
         H            3.001427520158     0.176400138838     2.637651723166     1.007825032230
         H           -2.857359479842     0.490794138838     2.424765723166     1.007825032230
         H           -3.082679479842    -0.042310861162     4.116920723166     1.007825032230
         H           -2.518128479842     1.610701138838     3.773820723166     1.007825032230
         C            1.225311895423     0.707533799757    -0.502635649550    12.000000000000
         C            1.225323856051    -0.707543383733    -0.514966459121    12.000000000000
         C           -0.000006153932     1.414961424928    -0.515500082641    12.000000000000
         C            2.456448753949     1.418323398016    -0.499748792150    12.000000000000
         C            0.000010827279    -1.414980987797    -0.505300525317    12.000000000000
         C           -1.225300948908     0.707540884822    -0.500384129228    12.000000000000
         C            2.456437755320    -1.418327793043    -0.517211615977    12.000000000000
         C           -0.000001332978     2.836796542119    -0.517903632775    12.000000000000
         C            3.681826697470     0.709313466839    -0.516862826180    12.000000000000
         C            2.455120048865     2.834219172327    -0.516965383140    12.000000000000
         C            3.681821105219    -0.709338328591    -0.500790342161    12.000000000000
         C           -1.225313598688    -0.707532004706    -0.513893697694    12.000000000000
         C            1.226699581202     3.543464994832    -0.500606310230    12.000000000000
         C            0.000004784858    -2.836786628398    -0.500452357695    12.000000000000
         C           -2.456436032848     1.418312429123    -0.500348733382    12.000000000000
         C            2.455123417779    -2.834234517751    -0.500942250529    12.000000000000
         C           -1.226714364589     3.543464574588    -0.500502977011    12.000000000000
         C            4.914517295202     1.427168383327    -0.510382143150    12.000000000000
         C            3.693150191476     3.542790803383    -0.510332343514    12.000000000000
         C           -2.456437600068    -1.418317770001    -0.517236654102    12.000000000000
         C            1.226704841943    -3.543478731069    -0.516576440980    12.000000000000
         C           -2.455125398508     2.834212173472    -0.516959006794    12.000000000000
         C            4.914524380782    -1.427191399106    -0.507409400415    12.000000000000
         C            1.221424613699     4.970129576098    -0.507270966156    12.000000000000
         C            4.893008229321     2.825183510864    -0.509165474791    12.000000000000
         C           -1.226697008489    -3.543475486239    -0.516309236571    12.000000000000
         C           -3.681818976526     0.709320477570    -0.516850145700    12.000000000000
         C            3.693147101150    -3.542805830553    -0.507291509855    12.000000000000
         C           -1.221432251994     4.970123808701    -0.507087470783    12.000000000000
         C            6.134770972926     0.680543457943    -0.509612368600    12.000000000000
         C            3.656788880610     4.972948754405    -0.509423705731    12.000000000000
         C           -2.455126907733    -2.834219582223    -0.501186608327    12.000000000000
         C           -3.681819179061    -0.709330192631    -0.500672720582    12.000000000000
         C            4.893012617914    -2.825204594794    -0.508554322896    12.000000000000
         C           -0.000001073113     5.650442876870    -0.508318779490    12.000000000000
         C            6.134775112332    -0.680559343237    -0.508347048084    12.000000000000
         C            2.478131482856     5.653572262169    -0.508134926081    12.000000000000
         C            1.221422404738    -4.970131544095    -0.510070463178    12.000000000000
         C           -3.693162383965     3.542792465030    -0.510166836054    12.000000000000
         C           -1.221428520945    -4.970122792758    -0.510183225011    12.000000000000
         C           -4.914521807942     1.427170957833    -0.510305198142    12.000000000000
         C            3.656787019679    -4.972959715401    -0.507973205197    12.000000000000
         C           -2.478138530106     5.653569933366    -0.507850401073    12.000000000000
         C           -3.693141738564    -3.542794708141    -0.507407636010    12.000000000000
         C           -4.914512483053    -1.427185489190    -0.507374703242    12.000000000000
         C           -0.000006008926    -5.650442776176    -0.508714283611    12.000000000000
         C           -4.893020484101     2.825184109757    -0.509175556651    12.000000000000
         C            2.478125993298    -5.653578033051    -0.509063805989    12.000000000000
         C           -3.656798710258     4.972951692879    -0.509247025357    12.000000000000
         C           -4.892999478856    -2.825196256222    -0.508708358594    12.000000000000
         C           -2.478128498083    -5.653570659169    -0.509338993637    12.000000000000
         C           -6.134770503331     0.680544277094    -0.509637920303    12.000000000000
         C           -3.656788833189    -4.972948512133    -0.508187493014    12.000000000000
         C           -6.134765042913    -0.680558404644    -0.508367523879    12.000000000000
         H            5.835288495816     3.369271405792    -0.504806149129     1.007825032230
         H            7.073859172747     1.228212759737    -0.509150725207     1.007825032230
         H            4.600663264174     5.512376313291    -0.508918504979     1.007825032230
         H            5.835283387305    -3.369310545891    -0.513008790210     1.007825032230
         H           -0.000012151306     6.738526184974    -0.512668024498     1.007825032230
         H            7.073861171831    -1.228231431906    -0.508855786179     1.007825032230
         H            2.473313731799     6.740679802232    -0.508601647012     1.007825032230
         H            4.600668491381    -5.512380618338    -0.508383202366     1.007825032230
         H           -2.473318680537     6.740677230444    -0.508300300387     1.007825032230
         H           -0.000010268228    -6.738532665614    -0.504184598627     1.007825032230
         H           -5.835301914343     3.369266461134    -0.504670126980     1.007825032230
         H            2.473307923831    -6.740689863591    -0.508493475564     1.007825032230
         H           -4.600674841208     5.512373537441    -0.508753176656     1.007825032230
         H           -5.835279506835    -3.369293452942    -0.513288096091     1.007825032230
         H           -2.473300347440    -6.740683567302    -0.508942792109     1.007825032230
         H           -7.073857766768     1.228215983678    -0.509234716688     1.007825032230
         H           -4.600673786085    -5.512367158949    -0.508555510388     1.007825032230
         H           -7.073856934409    -1.228225121139    -0.508950642645     1.007825032230

  Running in c1 symmetry.

  Rotational constants: A =      0.00187  B =      0.00183  C =      0.00109 [cm^-1]
  Rotational constants: A =     55.95504  B =     54.91142  C =     32.56832 [MHz]
  Nuclear repulsion = 8332.159554619142000

  Charge       = 1
  Multiplicity = 1
  Electrons    = 394
  Nalpha       = 197
  Nbeta        = 197

  ==> Algorithm <==

  SCF Algorithm Type is DF.
  DIIS enabled.
  MOM disabled.
  Fractional occupation disabled.
  Guess Type is SAD.
  Energy threshold   = 1.00e-08
  Density threshold  = 1.00e-08
  Integral threshold = 1.00e-12

  ==> Primary Basis <==

  Basis Set: JUN-CC-PVDZ
    Blend: JUN-CC-PVDZ
    Number of shells: 569
    Number of basis functions: 1233
    Number of Cartesian functions: 1294
    Spherical Harmonics?: true
    Max angular momentum: 2

   => Loading Basis Set <=

    Name: (JUN-CC-PVDZ AUX)
    Role: JKFIT
    Keyword: DF_BASIS_SCF
    atoms 1-2, 4-5, 10, 17-70 entry C          line   146 file /home/gridsan/tfroembgen/.conda/envs/psi4test/share/psi4/basis/jun-cc-pvdz-jkfit.gbs 
    atoms 3, 6                entry N          line   202 file /home/gridsan/tfroembgen/.conda/envs/psi4test/share/psi4/basis/jun-cc-pvdz-jkfit.gbs 
    atoms 7-9, 11-16, 71-88   entry H          line    70 file /home/gridsan/tfroembgen/.conda/envs/psi4test/share/psi4/basis/jun-cc-pvdz-jkfit.gbs 

  ==> Integral Setup <==

  ==> DiskDFJK: Density-Fitted J/K Matrices <==

    J tasked:                  Yes
    K tasked:                  Yes
    wK tasked:                  No
    OpenMP threads:             12
    Integrals threads:          12
    Memory [MiB]:            22888
    Algorithm:                Disk
    Integral Cache:           SAVE
    Schwarz Cutoff:          1E-12
    Fitting Condition:       1E-10

   => Auxiliary Basis Set <=

  Basis Set: (JUN-CC-PVDZ AUX)
    Blend: JUN-CC-PVDZ-JKFIT
    Number of shells: 1890
    Number of basis functions: 5440
    Number of Cartesian functions: 6226
    Spherical Harmonics?: true
    Max angular momentum: 3

  Minimum eigenvalue in the overlap matrix is 7.2767908814E-10.
  Reciprocal condition number of the overlap matrix is 3.0016407853E-11.
    Using canonical orthogonalization.
  Overall, 14 of 1233 possible MOs eliminated.


  ==> Pre-Iterations <==

  SCF Guess: Superposition of Atomic Densities via on-the-fly atomic UHF (no occupation information).

   -------------------------
    Irrep   Nso     Nmo    
   -------------------------
     A       1233    1219 
   -------------------------
    Total    1233    1219
   -------------------------

  ==> Iterations <==

                           Total Energy        Delta E     RMS |[F,P]|

   @DF-RHF iter SAD: -2365.56618888021103   -2.36557e+03   0.00000e+00 
   @DF-RHF iter   1: -2358.21471407215722    7.35147e+00   9.44472e-04 ADIIS/DIIS
   @DF-RHF iter   2: -2359.10655935452860   -8.91845e-01   3.21942e-04 ADIIS/DIIS
   @DF-RHF iter   3: -2359.19699780129440   -9.04384e-02   1.20146e-04 ADIIS/DIIS
   @DF-RHF iter   4: -2359.21035239905177   -1.33546e-02   4.47553e-05 DIIS
   @DF-RHF iter   5: -2359.21229164824535   -1.93925e-03   1.11361e-05 DIIS
   @DF-RHF iter   6: -2359.21248292951350   -1.91281e-04   5.34791e-06 DIIS
   @DF-RHF iter   7: -2359.21255646753843   -7.35380e-05   2.34613e-06 DIIS
   @DF-RHF iter   8: -2359.21257806839185   -2.16009e-05   1.13359e-06 DIIS
   @DF-RHF iter   9: -2359.21258350434528   -5.43595e-06   2.82831e-07 DIIS
   @DF-RHF iter  10: -2359.21258377604499   -2.71700e-07   1.04382e-07 DIIS
   @DF-RHF iter  11: -2359.21258379675373   -2.07087e-08   4.62359e-08 DIIS
   @DF-RHF iter  12: -2359.21258380109202   -4.33829e-09   2.45485e-08 DIIS
   @DF-RHF iter  13: -2359.21258380240761   -1.31558e-09   7.06528e-09 DIIS
  Energy and wave function converged.


  ==> Post-Iterations <==

    Orbital Energies [Eh]
    ---------------------

    Doubly Occupied:                                                      

       1A    -15.803553     2A    -15.802959     3A    -11.498728  
       4A    -11.429292     5A    -11.427741     6A    -11.419953  
       7A    -11.418906     8A    -11.343797     9A    -11.343262  
      10A    -11.342908    11A    -11.342155    12A    -11.342063  
      13A    -11.341211    14A    -11.340243    15A    -11.339942  
      16A    -11.339877    17A    -11.339398    18A    -11.339294  
      19A    -11.337937    20A    -11.337572    21A    -11.337352  
      22A    -11.337324    23A    -11.337154    24A    -11.336489  
      25A    -11.336380    26A    -11.336337    27A    -11.336236  
      28A    -11.335969    29A    -11.335905    30A    -11.335548  
      31A    -11.335314    32A    -11.335309    33A    -11.335139  
      34A    -11.334974    35A    -11.334966    36A    -11.334907  
      37A    -11.334869    38A    -11.334837    39A    -11.334810  
      40A    -11.334199    41A    -11.334181    42A    -11.333439  
      43A    -11.333371    44A    -11.328029    45A    -11.327835  
      46A    -11.327459    47A    -11.327066    48A    -11.327064  
      49A    -11.326167    50A    -11.325872    51A    -11.325793  
      52A    -11.325694    53A    -11.325638    54A    -11.324430  
      55A    -11.324389    56A    -11.324372    57A    -11.324353  
      58A    -11.324256    59A    -11.324201    60A    -11.322932  
      61A    -11.322917    62A     -1.546693    63A     -1.402489  
      64A     -1.325276    65A     -1.299380    66A     -1.298652  
      67A     -1.267515    68A     -1.267399    69A     -1.260296  
      70A     -1.234119    71A     -1.226517    72A     -1.214557  
      73A     -1.214011    74A     -1.207600    75A     -1.189510  
      76A     -1.189495    77A     -1.160735    78A     -1.160632  
      79A     -1.158521    80A     -1.156761    81A     -1.141880  
      82A     -1.141873    83A     -1.116255    84A     -1.103480  
      85A     -1.101086    86A     -1.100676    87A     -1.093839  
      88A     -1.088550    89A     -1.088227    90A     -1.064867  
      91A     -1.064727    92A     -1.038144    93A     -1.038087  
      94A     -0.991595    95A     -0.971124    96A     -0.971024  
      97A     -0.966905    98A     -0.966187    99A     -0.964781  
     100A     -0.964518   101A     -0.959286   102A     -0.959226  
     103A     -0.938094   104A     -0.911898   105A     -0.894850  
     106A     -0.894820   107A     -0.889801   108A     -0.889550  
     109A     -0.886597   110A     -0.870191   111A     -0.870138  
     112A     -0.824909   113A     -0.822650   114A     -0.819673  
     115A     -0.811203   116A     -0.810916   117A     -0.807813  
     118A     -0.807747   119A     -0.793442   120A     -0.785968  
     121A     -0.782383   122A     -0.775369   123A     -0.775030  
     124A     -0.770559   125A     -0.770224   126A     -0.759589  
     127A     -0.756219   128A     -0.751474   129A     -0.736613  
     130A     -0.730140   131A     -0.729017   132A     -0.725453  
     133A     -0.725405   134A     -0.715363   135A     -0.715152  
     136A     -0.706634   137A     -0.704572   138A     -0.704505  
     139A     -0.699943   140A     -0.696222   141A     -0.690602  
     142A     -0.685516   143A     -0.679134   144A     -0.678476  
     145A     -0.675619   146A     -0.675217   147A     -0.670943  
     148A     -0.669542   149A     -0.669229   150A     -0.659198  
     151A     -0.656728   152A     -0.655948   153A     -0.643496  
     154A     -0.643225   155A     -0.642111   156A     -0.641999  
     157A     -0.635872   158A     -0.629898   159A     -0.629680  
     160A     -0.616505   161A     -0.616465   162A     -0.613783  
     163A     -0.613772   164A     -0.608315   165A     -0.605939  
     166A     -0.599092   167A     -0.598769   168A     -0.575420  
     169A     -0.572434   170A     -0.568646   171A     -0.565627  
     172A     -0.564747   173A     -0.562250   174A     -0.558169  
     175A     -0.558062   176A     -0.550190   177A     -0.549853  
     178A     -0.529325   179A     -0.529051   180A     -0.515114  
     181A     -0.515072   182A     -0.492601   183A     -0.483747  
     184A     -0.483612   185A     -0.482121   186A     -0.450835  
     187A     -0.450671   188A     -0.426495   189A     -0.418960  
     190A     -0.417956   191A     -0.417072   192A     -0.387543  
     193A     -0.372334   194A     -0.363715   195A     -0.363643  
     196A     -0.301897   197A     -0.301732  

    Virtual:                                                              

     198A     -0.063106   199A     -0.062993   200A     -0.049744  
     201A     -0.034278   202A     -0.030174   203A     -0.024940  
     204A     -0.016138   205A     -0.014130   206A     -0.014108  
     207A     -0.013279   208A     -0.008797   209A     -0.006793  
     210A     -0.006150   211A     -0.000080   212A      0.001357  
     213A      0.001416   214A      0.003232   215A      0.004364  
     216A      0.006096   217A      0.009744   218A      0.011420  
     219A      0.011817   220A      0.014016   221A      0.014700  
     222A      0.017733   223A      0.017763   224A      0.017977  
     225A      0.021113   226A      0.023809   227A      0.024802  
     228A      0.027512   229A      0.029081   230A      0.030199  
     231A      0.033680   232A      0.033768   233A      0.042083  
     234A      0.045130   235A      0.045784   236A      0.046119  
     237A      0.049423   238A      0.050004   239A      0.050727  
     240A      0.052109   241A      0.053853   242A      0.054353  
     243A      0.054703   244A      0.058639   245A      0.060137  
     246A      0.061035   247A      0.065274   248A      0.070577  
     249A      0.071421   250A      0.071542   251A      0.075967  
     252A      0.076179   253A      0.077361   254A      0.080804  
     255A      0.081191   256A      0.083892   257A      0.085538  
     258A      0.087198   259A      0.089170   260A      0.092497  
     261A      0.093179   262A      0.094517   263A      0.097544  
     264A      0.100026   265A      0.102062   266A      0.105916  
     267A      0.107182   268A      0.107593   269A      0.111586  
     270A      0.112314   271A      0.113016   272A      0.113420  
     273A      0.115771   274A      0.119270   275A      0.120276  
     276A      0.120810   277A      0.121255   278A      0.123354  
     279A      0.125793   280A      0.127034   281A      0.129168  
     282A      0.132830   283A      0.135403   284A      0.137965  
     285A      0.138561   286A      0.143566   287A      0.143996  
     288A      0.144931   289A      0.145447   290A      0.147498  
     291A      0.149898   292A      0.150307   293A      0.150450  
     294A      0.151109   295A      0.151211   296A      0.151829  
     297A      0.153870   298A      0.154403   299A      0.158294  
     300A      0.158581   301A      0.161055   302A      0.162241  
     303A      0.162854   304A      0.164097   305A      0.167412  
     306A      0.168464   307A      0.169145   308A      0.170002  
     309A      0.170570   310A      0.173619   311A      0.174425  
     312A      0.176050   313A      0.178778   314A      0.181117  
     315A      0.182930   316A      0.186300   317A      0.187927  
     318A      0.189044   319A      0.189686   320A      0.190169  
     321A      0.190797   322A      0.192867   323A      0.195761  
     324A      0.196555   325A      0.198020   326A      0.198448  
     327A      0.200085   328A      0.203017   329A      0.204333  
     330A      0.205625   331A      0.206544   332A      0.206962  
     333A      0.208539   334A      0.209309   335A      0.213599  
     336A      0.215141   337A      0.216505   338A      0.218035  
     339A      0.222565   340A      0.226970   341A      0.229106  
     342A      0.230039   343A      0.230667   344A      0.231671  
     345A      0.232460   346A      0.234585   347A      0.235304  
     348A      0.236760   349A      0.239088   350A      0.240314  
     351A      0.240981   352A      0.241543   353A      0.242050  
     354A      0.243742   355A      0.245442   356A      0.246959  
     357A      0.248104   358A      0.249309   359A      0.250209  
     360A      0.250707   361A      0.252568   362A      0.253490  
     363A      0.253628   364A      0.254977   365A      0.257695  
     366A      0.260410   367A      0.262872   368A      0.263915  
     369A      0.265167   370A      0.267315   371A      0.268329  
     372A      0.269094   373A      0.270999   374A      0.272759  
     375A      0.276844   376A      0.278078   377A      0.280086  
     378A      0.282281   379A      0.283408   380A      0.284493  
     381A      0.284767   382A      0.286784   383A      0.287023  
     384A      0.287868   385A      0.288666   386A      0.290782  
     387A      0.292708   388A      0.296596   389A      0.297791  
     390A      0.299309   391A      0.299615   392A      0.301655  
     393A      0.302576   394A      0.303927   395A      0.306361  
     396A      0.307521   397A      0.308895   398A      0.312202  
     399A      0.314446   400A      0.315638   401A      0.316452  
     402A      0.317514   403A      0.318498   404A      0.320168  
     405A      0.321263   406A      0.324146   407A      0.325087  
     408A      0.327853   409A      0.328007   410A      0.330630  
     411A      0.332854   412A      0.333385   413A      0.334101  
     414A      0.335848   415A      0.337323   416A      0.337684  
     417A      0.337972   418A      0.338650   419A      0.339978  
     420A      0.341225   421A      0.342248   422A      0.343071  
     423A      0.344542   424A      0.345345   425A      0.345879  
     426A      0.346788   427A      0.349126   428A      0.351588  
     429A      0.352686   430A      0.353105   431A      0.353869  
     432A      0.360940   433A      0.363388   434A      0.366075  
     435A      0.368776   436A      0.369355   437A      0.370311  
     438A      0.372266   439A      0.373139   440A      0.374526  
     441A      0.376766   442A      0.379367   443A      0.380777  
     444A      0.381629   445A      0.382682   446A      0.384399  
     447A      0.385688   448A      0.386858   449A      0.387856  
     450A      0.388251   451A      0.392116   452A      0.393807  
     453A      0.396302   454A      0.399130   455A      0.400103  
     456A      0.401130   457A      0.405675   458A      0.407298  
     459A      0.408568   460A      0.410105   461A      0.410798  
     462A      0.413739   463A      0.414909   464A      0.416045  
     465A      0.419498   466A      0.422232   467A      0.422660  
     468A      0.423784   469A      0.424331   470A      0.425102  
     471A      0.425464   472A      0.430918   473A      0.431728  
     474A      0.433374   475A      0.435613   476A      0.439055  
     477A      0.440254   478A      0.443173   479A      0.447351  
     480A      0.448308   481A      0.450085   482A      0.450815  
     483A      0.453409   484A      0.455959   485A      0.457444  
     486A      0.461285   487A      0.462900   488A      0.463730  
     489A      0.466354   490A      0.472831   491A      0.475293  
     492A      0.476259   493A      0.477411   494A      0.479294  
     495A      0.481040   496A      0.482166   497A      0.482660  
     498A      0.483136   499A      0.484827   500A      0.484946  
     501A      0.488391   502A      0.489514   503A      0.491514  
     504A      0.495882   505A      0.497509   506A      0.501426  
     507A      0.506849   508A      0.517501   509A      0.518271  
     510A      0.522199   511A      0.522428   512A      0.523967  
     513A      0.528983   514A      0.530625   515A      0.541939  
     516A      0.546328   517A      0.546531   518A      0.548811  
     519A      0.551716   520A      0.553041   521A      0.553834  
     522A      0.566562   523A      0.578140   524A      0.578232  
     525A      0.580660   526A      0.589166   527A      0.594053  
     528A      0.594874   529A      0.598463   530A      0.602199  
     531A      0.602323   532A      0.610306   533A      0.640607  
     534A      0.640793   535A      0.664604   536A      0.665880  
     537A      0.669060   538A      0.669980   539A      0.670665  
     540A      0.670807   541A      0.681649   542A      0.682181  
     543A      0.682433   544A      0.696885   545A      0.716048  
     546A      0.718989   547A      0.721936   548A      0.723629  
     549A      0.726427   550A      0.729061   551A      0.731799  
     552A      0.734769   553A      0.738899   554A      0.741556  
     555A      0.750086   556A      0.752265   557A      0.752632  
     558A      0.753272   559A      0.758189   560A      0.760808  
     561A      0.763845   562A      0.770055   563A      0.771611  
     564A      0.774269   565A      0.780084   566A      0.781306  
     567A      0.783376   568A      0.788457   569A      0.789341  
     570A      0.790552   571A      0.791213   572A      0.793490  
     573A      0.796005   574A      0.802107   575A      0.803981  
     576A      0.805085   577A      0.807166   578A      0.812075  
     579A      0.815762   580A      0.817322   581A      0.818522  
     582A      0.819215   583A      0.823798   584A      0.825912  
     585A      0.828280   586A      0.828925   587A      0.833142  
     588A      0.834868   589A      0.836887   590A      0.839386  
     591A      0.840637   592A      0.844303   593A      0.845100  
     594A      0.846207   595A      0.847853   596A      0.850424  
     597A      0.853163   598A      0.855130   599A      0.856037  
     600A      0.857676   601A      0.858979   602A      0.860100  
     603A      0.864745   604A      0.867250   605A      0.868993  
     606A      0.872620   607A      0.873553   608A      0.876399  
     609A      0.879336   610A      0.879798   611A      0.882273  
     612A      0.883560   613A      0.893478   614A      0.896252  
     615A      0.898134   616A      0.898483   617A      0.899743  
     618A      0.901314   619A      0.903333   620A      0.904135  
     621A      0.905654   622A      0.907501   623A      0.909210  
     624A      0.911111   625A      0.914402   626A      0.917997  
     627A      0.923504   628A      0.926245   629A      0.928006  
     630A      0.929039   631A      0.931508   632A      0.934056  
     633A      0.936395   634A      0.942138   635A      0.943507  
     636A      0.943808   637A      0.947516   638A      0.949366  
     639A      0.950521   640A      0.954487   641A      0.955684  
     642A      0.958334   643A      0.960320   644A      0.965355  
     645A      0.967618   646A      0.968401   647A      0.969681  
     648A      0.971195   649A      0.972446   650A      0.973261  
     651A      0.974711   652A      0.975716   653A      0.978053  
     654A      0.980606   655A      0.982128   656A      0.983334  
     657A      0.984518   658A      0.987318   659A      0.989739  
     660A      0.993752   661A      0.994276   662A      0.998640  
     663A      1.000867   664A      1.002308   665A      1.004566  
     666A      1.005506   667A      1.007798   668A      1.011286  
     669A      1.012562   670A      1.013487   671A      1.018730  
     672A      1.019199   673A      1.019488   674A      1.022663  
     675A      1.024694   676A      1.026527   677A      1.029342  
     678A      1.030996   679A      1.033769   680A      1.036391  
     681A      1.037225   682A      1.040218   683A      1.041042  
     684A      1.042124   685A      1.045991   686A      1.046452  
     687A      1.051435   688A      1.053155   689A      1.055085  
     690A      1.055535   691A      1.058899   692A      1.062870  
     693A      1.064995   694A      1.066880   695A      1.069880  
     696A      1.070699   697A      1.073195   698A      1.073325  
     699A      1.079764   700A      1.081078   701A      1.087992  
     702A      1.093785   703A      1.094403   704A      1.095462  
     705A      1.097509   706A      1.098575   707A      1.104253  
     708A      1.105117   709A      1.113987   710A      1.116105  
     711A      1.119478   712A      1.124162   713A      1.127446  
     714A      1.129824   715A      1.132761   716A      1.134061  
     717A      1.139833   718A      1.144254   719A      1.144566  
     720A      1.148499   721A      1.149360   722A      1.149960  
     723A      1.153977   724A      1.164611   725A      1.167078  
     726A      1.169082   727A      1.171395   728A      1.171656  
     729A      1.183672   730A      1.185680   731A      1.187354  
     732A      1.190083   733A      1.190350   734A      1.192256  
     735A      1.193637   736A      1.195580   737A      1.196306  
     738A      1.198201   739A      1.201897   740A      1.206779  
     741A      1.208985   742A      1.213290   743A      1.214810  
     744A      1.221074   745A      1.223670   746A      1.225555  
     747A      1.229046   748A      1.229518   749A      1.231962  
     750A      1.238119   751A      1.241606   752A      1.244117  
     753A      1.244939   754A      1.251794   755A      1.253893  
     756A      1.253981   757A      1.255744   758A      1.257873  
     759A      1.263018   760A      1.264621   761A      1.265421  
     762A      1.267892   763A      1.275054   764A      1.276412  
     765A      1.276985   766A      1.278521   767A      1.282865  
     768A      1.285399   769A      1.286032   770A      1.290635  
     771A      1.293096   772A      1.299365   773A      1.302901  
     774A      1.306397   775A      1.307051   776A      1.309677  
     777A      1.316535   778A      1.320982   779A      1.332310  
     780A      1.334145   781A      1.338722   782A      1.340305  
     783A      1.342240   784A      1.342991   785A      1.347205  
     786A      1.348625   787A      1.349790   788A      1.352995  
     789A      1.353728   790A      1.355194   791A      1.362600  
     792A      1.367440   793A      1.368677   794A      1.371535  
     795A      1.372234   796A      1.376145   797A      1.377866  
     798A      1.378098   799A      1.384070   800A      1.387551  
     801A      1.390658   802A      1.395454   803A      1.408092  
     804A      1.417929   805A      1.424646   806A      1.432925  
     807A      1.437533   808A      1.445380   809A      1.445730  
     810A      1.450075   811A      1.453720   812A      1.463101  
     813A      1.474082   814A      1.488097   815A      1.500318  
     816A      1.505017   817A      1.516828   818A      1.518354  
     819A      1.525791   820A      1.528110   821A      1.529984  
     822A      1.534003   823A      1.534621   824A      1.539477  
     825A      1.542562   826A      1.543063   827A      1.546541  
     828A      1.555719   829A      1.558467   830A      1.560031  
     831A      1.562516   832A      1.566805   833A      1.569010  
     834A      1.570160   835A      1.572824   836A      1.577181  
     837A      1.583473   838A      1.584781   839A      1.586734  
     840A      1.588986   841A      1.593616   842A      1.595559  
     843A      1.597778   844A      1.599658   845A      1.600927  
     846A      1.602136   847A      1.605314   848A      1.608769  
     849A      1.609869   850A      1.610933   851A      1.614662  
     852A      1.617017   853A      1.621085   854A      1.623524  
     855A      1.623836   856A      1.625881   857A      1.629212  
     858A      1.633934   859A      1.634717   860A      1.640983  
     861A      1.643923   862A      1.646349   863A      1.664534  
     864A      1.673530   865A      1.675360   866A      1.686629  
     867A      1.688252   868A      1.688411   869A      1.689753  
     870A      1.702090   871A      1.702744   872A      1.716413  
     873A      1.717081   874A      1.718801   875A      1.727605  
     876A      1.741427   877A      1.743052   878A      1.744839  
     879A      1.746116   880A      1.746453   881A      1.748140  
     882A      1.749697   883A      1.762695   884A      1.765837  
     885A      1.767534   886A      1.773754   887A      1.774913  
     888A      1.778538   889A      1.787446   890A      1.789167  
     891A      1.790104   892A      1.792099   893A      1.792923  
     894A      1.797140   895A      1.800433   896A      1.800499  
     897A      1.802022   898A      1.807044   899A      1.810818  
     900A      1.819440   901A      1.820313   902A      1.821223  
     903A      1.825520   904A      1.828713   905A      1.830246  
     906A      1.834227   907A      1.834710   908A      1.838379  
     909A      1.841135   910A      1.842283   911A      1.843006  
     912A      1.844623   913A      1.846442   914A      1.848036  
     915A      1.848616   916A      1.850569   917A      1.864342  
     918A      1.870640   919A      1.872036   920A      1.873194  
     921A      1.876020   922A      1.877699   923A      1.878595  
     924A      1.880482   925A      1.881121   926A      1.883036  
     927A      1.885362   928A      1.889187   929A      1.895377  
     930A      1.896818   931A      1.902420   932A      1.909407  
     933A      1.910548   934A      1.914985   935A      1.919764  
     936A      1.921809   937A      1.924964   938A      1.926584  
     939A      1.929298   940A      1.933989   941A      1.938483  
     942A      1.939162   943A      1.940766   944A      1.943550  
     945A      1.951301   946A      1.951599   947A      1.955344  
     948A      1.955938   949A      1.957096   950A      1.958445  
     951A      1.961581   952A      1.963889   953A      1.967488  
     954A      1.974727   955A      1.978344   956A      1.979270  
     957A      1.982329   958A      1.986579   959A      1.988040  
     960A      1.992815   961A      1.993306   962A      1.995532  
     963A      1.999130   964A      2.001286   965A      2.002362  
     966A      2.003194   967A      2.005759   968A      2.009672  
     969A      2.016008   970A      2.020719   971A      2.021396  
     972A      2.024603   973A      2.025151   974A      2.027420  
     975A      2.028374   976A      2.028868   977A      2.033760  
     978A      2.034705   979A      2.036414   980A      2.038799  
     981A      2.041460   982A      2.044124   983A      2.044999  
     984A      2.046210   985A      2.046438   986A      2.046831  
     987A      2.049187   988A      2.050482   989A      2.054811  
     990A      2.055948   991A      2.058785   992A      2.059773  
     993A      2.062317   994A      2.062593   995A      2.067900  
     996A      2.069155   997A      2.069761   998A      2.078095  
     999A      2.082930  1000A      2.087649  1001A      2.089182  
    1002A      2.089767  1003A      2.093881  1004A      2.095636  
    1005A      2.107863  1006A      2.109915  1007A      2.113517  
    1008A      2.114574  1009A      2.116840  1010A      2.119191  
    1011A      2.120499  1012A      2.122565  1013A      2.123866  
    1014A      2.140019  1015A      2.141593  1016A      2.143556  
    1017A      2.144157  1018A      2.148343  1019A      2.149357  
    1020A      2.160765  1021A      2.161363  1022A      2.168034  
    1023A      2.171163  1024A      2.172647  1025A      2.173369  
    1026A      2.174461  1027A      2.175977  1028A      2.179824  
    1029A      2.188354  1030A      2.188741  1031A      2.195087  
    1032A      2.195408  1033A      2.198648  1034A      2.199462  
    1035A      2.207991  1036A      2.209154  1037A      2.221801  
    1038A      2.227728  1039A      2.231632  1040A      2.240000  
    1041A      2.240210  1042A      2.249497  1043A      2.251091  
    1044A      2.252758  1045A      2.254899  1046A      2.256505  
    1047A      2.259019  1048A      2.265683  1049A      2.268564  
    1050A      2.275988  1051A      2.277871  1052A      2.278324  
    1053A      2.279739  1054A      2.286057  1055A      2.290996  
    1056A      2.296405  1057A      2.298736  1058A      2.309462  
    1059A      2.333451  1060A      2.341984  1061A      2.347448  
    1062A      2.348189  1063A      2.348505  1064A      2.358034  
    1065A      2.361349  1066A      2.365818  1067A      2.370332  
    1068A      2.382601  1069A      2.395179  1070A      2.400701  
    1071A      2.406898  1072A      2.408931  1073A      2.412700  
    1074A      2.416531  1075A      2.429267  1076A      2.445268  
    1077A      2.454713  1078A      2.458160  1079A      2.472888  
    1080A      2.474293  1081A      2.475298  1082A      2.476064  
    1083A      2.482630  1084A      2.483017  1085A      2.484272  
    1086A      2.484463  1087A      2.496391  1088A      2.496450  
    1089A      2.501993  1090A      2.503712  1091A      2.504663  
    1092A      2.509524  1093A      2.512397  1094A      2.513217  
    1095A      2.515231  1096A      2.521303  1097A      2.534883  
    1098A      2.537270  1099A      2.550818  1100A      2.551201  
    1101A      2.554875  1102A      2.557723  1103A      2.558479  
    1104A      2.561550  1105A      2.568941  1106A      2.570869  
    1107A      2.579817  1108A      2.580155  1109A      2.586286  
    1110A      2.609110  1111A      2.610215  1112A      2.611753  
    1113A      2.618308  1114A      2.623772  1115A      2.625428  
    1116A      2.635057  1117A      2.635794  1118A      2.636747  
    1119A      2.641176  1120A      2.641956  1121A      2.648625  
    1122A      2.650035  1123A      2.668235  1124A      2.678532  
    1125A      2.682656  1126A      2.690299  1127A      2.699092  
    1128A      2.708117  1129A      2.716443  1130A      2.718429  
    1131A      2.719408  1132A      2.732972  1133A      2.739721  
    1134A      2.746807  1135A      2.753949  1136A      2.754424  
    1137A      2.769675  1138A      2.776218  1139A      2.778143  
    1140A      2.778630  1141A      2.780059  1142A      2.781438  
    1143A      2.788216  1144A      2.793564  1145A      2.799428  
    1146A      2.821122  1147A      2.829971  1148A      2.846239  
    1149A      2.848865  1150A      2.849896  1151A      2.857198  
    1152A      2.863605  1153A      2.868163  1154A      2.879788  
    1155A      2.881054  1156A      2.890903  1157A      2.940501  
    1158A      2.940931  1159A      2.943145  1160A      2.958393  
    1161A      2.986371  1162A      2.986490  1163A      2.994369  
    1164A      2.997451  1165A      3.000154  1166A      3.035979  
    1167A      3.041629  1168A      3.045085  1169A      3.057136  
    1170A      3.057949  1171A      3.059598  1172A      3.065145  
    1173A      3.073209  1174A      3.073617  1175A      3.074002  
    1176A      3.077101  1177A      3.077493  1178A      3.084073  
    1179A      3.088978  1180A      3.093327  1181A      3.095225  
    1182A      3.099845  1183A      3.104968  1184A      3.119066  
    1185A      3.137593  1186A      3.144709  1187A      3.165582  
    1188A      3.198163  1189A      3.202086  1190A      3.202558  
    1191A      3.211070  1192A      3.214828  1193A      3.341464  
    1194A      3.342611  1195A      3.363704  1196A      3.409025  
    1197A      3.410642  1198A      3.474516  1199A      3.493757  
    1200A      3.504385  1201A      3.509285  1202A      3.534824  
    1203A      3.552068  1204A      3.554699  1205A      3.587078  
    1206A      3.588189  1207A      3.595981  1208A      3.700689  
    1209A      3.709738  1210A      3.714631  1211A      3.795972  
    1212A      3.796834  1213A      3.838286  1214A      3.838462  
    1215A      3.899803  1216A      3.932572  1217A      3.985711  
    1218A      3.993623  1219A      4.015618  

    Final Occupation by Irrep:
              A 
    DOCC [   197 ]
    NA   [   197 ]
    NB   [   197 ]

  @DF-RHF Final Energy: -2359.21258380240761

   => Energetics <=

    Nuclear Repulsion Energy =           8332.1595546191419999
    One-Electron Energy =              -19764.1945995315873006
    Two-Electron Energy =                9072.8224611100376933
    Total Energy =                      -2359.2125838024076074

Computation Completed


Properties will be evaluated at   0.000000,   0.000000,   0.000000 [a0]

Properties computed using the SCF density matrix


 Multipole Moments:

 ------------------------------------------------------------------------------------
     Multipole            Electronic (a.u.)      Nuclear  (a.u.)        Total (a.u.)
 ------------------------------------------------------------------------------------

 L = 1.  Multiply by 2.5417464519 to convert [e a0] to [Debye]
 Dipole X            :          0.0041115            0.0006313            0.0047428
 Dipole Y            :         -1.5815396            1.8864948            0.3049552
 Dipole Z            :        -15.6412842           20.7948034            5.1535192
 Magnitude           :                                                    5.1625362

 ------------------------------------------------------------------------------------

*** tstop() called on d-16-7-4 at Mon Jan 22 17:02:12 2024
Module time:
	user time   =    4399.86 seconds =      73.33 minutes
	system time =     255.81 seconds =       4.26 minutes
	total time  =       1068 seconds =      17.80 minutes
Total time:
	user time   =    4399.86 seconds =      73.33 minutes
	system time =     255.81 seconds =       4.26 minutes
	total time  =       1068 seconds =      17.80 minutes

  //>>>>>>>>>>>>>>>>>>>>>>>>>>>>>>>>>>>//
  //            Monomer A HF           //
  //<<<<<<<<<<<<<<<<<<<<<<<<<<<<<<<<<<<//

   => Libint2 <=

    Primary   basis highest AM E, G, H:  7, 7, 4
    Auxiliary basis highest AM E, G, H:  7, 7, 5
    Onebody   basis highest AM E, G, H:  7, 7, 5
    Solid Harmonics ordering:            gaussian

*** tstart() called on d-16-7-4
*** at Mon Jan 22 17:02:12 2024

   => Loading Basis Set <=

    Name: JUN-CC-PVDZ
    Role: ORBITAL
    Keyword: BASIS
    atoms 1-2, 4-5, 10, 17-70 entry C          line   164 file /home/gridsan/tfroembgen/.conda/envs/psi4test/share/psi4/basis/jun-cc-pvdz.gbs 
    atoms 3, 6                entry N          line   198 file /home/gridsan/tfroembgen/.conda/envs/psi4test/share/psi4/basis/jun-cc-pvdz.gbs 
    atoms 7-9, 11-16, 71-88   entry H          line    36 file /home/gridsan/tfroembgen/.conda/envs/psi4test/share/psi4/basis/jun-cc-pvdz.gbs 


         ---------------------------------------------------------
                                   SCF
               by Justin Turney, Rob Parrish, Andy Simmonett
                          and Daniel G. A. Smith
                              RHF Reference
                       12 Threads,  30517 MiB Core
         ---------------------------------------------------------

  ==> Geometry <==

    Molecular point group: c1
    Full point group: C1

    Geometry (in Angstrom), charge = 1, multiplicity = 1:

       Center              X                  Y                   Z               Mass       
    ------------   -----------------  -----------------  -----------------  -----------------
         C            0.680066520158    -1.215933861162     3.499268723166    12.000000000000
         C           -0.680504479842    -1.215549861162     3.497240723166    12.000000000000
         N           -1.085635479842     0.102774138838     3.496242723166    14.003074004430
         C            0.000107520158     0.884175138838     3.492966723166    12.000000000000
         C           -2.477365479842     0.570753138838     3.446836723166    12.000000000000
         N            1.085221520158     0.102774138838     3.496242723166    14.003074004430
         H            1.385145520158    -2.033372861162     3.507096723166     1.007825032230
         H           -1.385302479842    -2.033218861162     3.497430723166     1.007825032230
         H           -0.000009479842     1.965264138838     3.491219723166     1.007825032230
         C            2.478116520158     0.567872138838     3.513134723166    12.000000000000
         H            2.490591520158     1.658125138838     3.485789723166     1.007825032230
         H            2.967027520158     0.220696138838     4.426580723166     1.007825032230
         H            3.001427520158     0.176400138838     2.637651723166     1.007825032230
         H           -2.857359479842     0.490794138838     2.424765723166     1.007825032230
         H           -3.082679479842    -0.042310861162     4.116920723166     1.007825032230
         H           -2.518128479842     1.610701138838     3.773820723166     1.007825032230
      Gh(C)           1.225311895423     0.707533799757    -0.502635649550    12.000000000000
      Gh(C)           1.225323856051    -0.707543383733    -0.514966459121    12.000000000000
      Gh(C)          -0.000006153932     1.414961424928    -0.515500082641    12.000000000000
      Gh(C)           2.456448753949     1.418323398016    -0.499748792150    12.000000000000
      Gh(C)           0.000010827279    -1.414980987797    -0.505300525317    12.000000000000
      Gh(C)          -1.225300948908     0.707540884822    -0.500384129228    12.000000000000
      Gh(C)           2.456437755320    -1.418327793043    -0.517211615977    12.000000000000
      Gh(C)          -0.000001332978     2.836796542119    -0.517903632775    12.000000000000
      Gh(C)           3.681826697470     0.709313466839    -0.516862826180    12.000000000000
      Gh(C)           2.455120048865     2.834219172327    -0.516965383140    12.000000000000
      Gh(C)           3.681821105219    -0.709338328591    -0.500790342161    12.000000000000
      Gh(C)          -1.225313598688    -0.707532004706    -0.513893697694    12.000000000000
      Gh(C)           1.226699581202     3.543464994832    -0.500606310230    12.000000000000
      Gh(C)           0.000004784858    -2.836786628398    -0.500452357695    12.000000000000
      Gh(C)          -2.456436032848     1.418312429123    -0.500348733382    12.000000000000
      Gh(C)           2.455123417779    -2.834234517751    -0.500942250529    12.000000000000
      Gh(C)          -1.226714364589     3.543464574588    -0.500502977011    12.000000000000
      Gh(C)           4.914517295202     1.427168383327    -0.510382143150    12.000000000000
      Gh(C)           3.693150191476     3.542790803383    -0.510332343514    12.000000000000
      Gh(C)          -2.456437600068    -1.418317770001    -0.517236654102    12.000000000000
      Gh(C)           1.226704841943    -3.543478731069    -0.516576440980    12.000000000000
      Gh(C)          -2.455125398508     2.834212173472    -0.516959006794    12.000000000000
      Gh(C)           4.914524380782    -1.427191399106    -0.507409400415    12.000000000000
      Gh(C)           1.221424613699     4.970129576098    -0.507270966156    12.000000000000
      Gh(C)           4.893008229321     2.825183510864    -0.509165474791    12.000000000000
      Gh(C)          -1.226697008489    -3.543475486239    -0.516309236571    12.000000000000
      Gh(C)          -3.681818976526     0.709320477570    -0.516850145700    12.000000000000
      Gh(C)           3.693147101150    -3.542805830553    -0.507291509855    12.000000000000
      Gh(C)          -1.221432251994     4.970123808701    -0.507087470783    12.000000000000
      Gh(C)           6.134770972926     0.680543457943    -0.509612368600    12.000000000000
      Gh(C)           3.656788880610     4.972948754405    -0.509423705731    12.000000000000
      Gh(C)          -2.455126907733    -2.834219582223    -0.501186608327    12.000000000000
      Gh(C)          -3.681819179061    -0.709330192631    -0.500672720582    12.000000000000
      Gh(C)           4.893012617914    -2.825204594794    -0.508554322896    12.000000000000
      Gh(C)          -0.000001073113     5.650442876870    -0.508318779490    12.000000000000
      Gh(C)           6.134775112332    -0.680559343237    -0.508347048084    12.000000000000
      Gh(C)           2.478131482856     5.653572262169    -0.508134926081    12.000000000000
      Gh(C)           1.221422404738    -4.970131544095    -0.510070463178    12.000000000000
      Gh(C)          -3.693162383965     3.542792465030    -0.510166836054    12.000000000000
      Gh(C)          -1.221428520945    -4.970122792758    -0.510183225011    12.000000000000
      Gh(C)          -4.914521807942     1.427170957833    -0.510305198142    12.000000000000
      Gh(C)           3.656787019679    -4.972959715401    -0.507973205197    12.000000000000
      Gh(C)          -2.478138530106     5.653569933366    -0.507850401073    12.000000000000
      Gh(C)          -3.693141738564    -3.542794708141    -0.507407636010    12.000000000000
      Gh(C)          -4.914512483053    -1.427185489190    -0.507374703242    12.000000000000
      Gh(C)          -0.000006008926    -5.650442776176    -0.508714283611    12.000000000000
      Gh(C)          -4.893020484101     2.825184109757    -0.509175556651    12.000000000000
      Gh(C)           2.478125993298    -5.653578033051    -0.509063805989    12.000000000000
      Gh(C)          -3.656798710258     4.972951692879    -0.509247025357    12.000000000000
      Gh(C)          -4.892999478856    -2.825196256222    -0.508708358594    12.000000000000
      Gh(C)          -2.478128498083    -5.653570659169    -0.509338993637    12.000000000000
      Gh(C)          -6.134770503331     0.680544277094    -0.509637920303    12.000000000000
      Gh(C)          -3.656788833189    -4.972948512133    -0.508187493014    12.000000000000
      Gh(C)          -6.134765042913    -0.680558404644    -0.508367523879    12.000000000000
      Gh(H)           5.835288495816     3.369271405792    -0.504806149129     1.007825032230
      Gh(H)           7.073859172747     1.228212759737    -0.509150725207     1.007825032230
      Gh(H)           4.600663264174     5.512376313291    -0.508918504979     1.007825032230
      Gh(H)           5.835283387305    -3.369310545891    -0.513008790210     1.007825032230
      Gh(H)          -0.000012151306     6.738526184974    -0.512668024498     1.007825032230
      Gh(H)           7.073861171831    -1.228231431906    -0.508855786179     1.007825032230
      Gh(H)           2.473313731799     6.740679802232    -0.508601647012     1.007825032230
      Gh(H)           4.600668491381    -5.512380618338    -0.508383202366     1.007825032230
      Gh(H)          -2.473318680537     6.740677230444    -0.508300300387     1.007825032230
      Gh(H)          -0.000010268228    -6.738532665614    -0.504184598627     1.007825032230
      Gh(H)          -5.835301914343     3.369266461134    -0.504670126980     1.007825032230
      Gh(H)           2.473307923831    -6.740689863591    -0.508493475564     1.007825032230
      Gh(H)          -4.600674841208     5.512373537441    -0.508753176656     1.007825032230
      Gh(H)          -5.835279506835    -3.369293452942    -0.513288096091     1.007825032230
      Gh(H)          -2.473300347440    -6.740683567302    -0.508942792109     1.007825032230
      Gh(H)          -7.073857766768     1.228215983678    -0.509234716688     1.007825032230
      Gh(H)          -4.600673786085    -5.512367158949    -0.508555510388     1.007825032230
      Gh(H)          -7.073856934409    -1.228225121139    -0.508950642645     1.007825032230

  Running in c1 symmetry.

  Rotational constants: A =      0.00187  B =      0.00183  C =      0.00109 [cm^-1]
  Rotational constants: A =     55.95504  B =     54.91142  C =     32.56832 [MHz]
  Nuclear repulsion =  306.774908447733026

  Charge       = 1
  Multiplicity = 1
  Electrons    = 52
  Nalpha       = 26
  Nbeta        = 26

  ==> Algorithm <==

  SCF Algorithm Type is DF.
  DIIS enabled.
  MOM disabled.
  Fractional occupation disabled.
  Guess Type is SAD.
  Energy threshold   = 1.00e-08
  Density threshold  = 1.00e-08
  Integral threshold = 1.00e-12

  ==> Primary Basis <==

  Basis Set: JUN-CC-PVDZ
    Blend: JUN-CC-PVDZ
    Number of shells: 569
    Number of basis functions: 1233
    Number of Cartesian functions: 1294
    Spherical Harmonics?: true
    Max angular momentum: 2

   => Loading Basis Set <=

    Name: (JUN-CC-PVDZ AUX)
    Role: JKFIT
    Keyword: DF_BASIS_SCF
    atoms 1-2, 4-5, 10, 17-70 entry C          line   146 file /home/gridsan/tfroembgen/.conda/envs/psi4test/share/psi4/basis/jun-cc-pvdz-jkfit.gbs 
    atoms 3, 6                entry N          line   202 file /home/gridsan/tfroembgen/.conda/envs/psi4test/share/psi4/basis/jun-cc-pvdz-jkfit.gbs 
    atoms 7-9, 11-16, 71-88   entry H          line    70 file /home/gridsan/tfroembgen/.conda/envs/psi4test/share/psi4/basis/jun-cc-pvdz-jkfit.gbs 

  ==> Integral Setup <==

  ==> DiskDFJK: Density-Fitted J/K Matrices <==

    J tasked:                  Yes
    K tasked:                  Yes
    wK tasked:                  No
    OpenMP threads:             12
    Integrals threads:          12
    Memory [MiB]:            22888
    Algorithm:                Disk
    Integral Cache:           LOAD
    Schwarz Cutoff:          1E-12
    Fitting Condition:       1E-10

   => Auxiliary Basis Set <=

  Basis Set: (JUN-CC-PVDZ AUX)
    Blend: JUN-CC-PVDZ-JKFIT
    Number of shells: 1890
    Number of basis functions: 5440
    Number of Cartesian functions: 6226
    Spherical Harmonics?: true
    Max angular momentum: 3

  Minimum eigenvalue in the overlap matrix is 7.2767908814E-10.
  Reciprocal condition number of the overlap matrix is 3.0016407853E-11.
    Using canonical orthogonalization.
  Overall, 14 of 1233 possible MOs eliminated.


  ==> Pre-Iterations <==

  SCF Guess: Superposition of Atomic Densities via on-the-fly atomic UHF (no occupation information).

   -------------------------
    Irrep   Nso     Nmo    
   -------------------------
     A       1233    1219 
   -------------------------
    Total    1233    1219
   -------------------------

  ==> Iterations <==

                           Total Energy        Delta E     RMS |[F,P]|

   @DF-RHF iter SAD:  -303.36536284828452   -3.03365e+02   0.00000e+00 
   @DF-RHF iter   1:  -303.17055001247024    1.94813e-01   3.44839e-04 ADIIS/DIIS
   @DF-RHF iter   2:  -303.28494450974591   -1.14394e-01   1.16030e-04 ADIIS/DIIS
   @DF-RHF iter   3:  -303.29643783902998   -1.14933e-02   4.54598e-05 DIIS
   @DF-RHF iter   4:  -303.29835574404501   -1.91791e-03   9.95453e-06 DIIS
   @DF-RHF iter   5:  -303.29846335188705   -1.07608e-04   2.43840e-06 DIIS
   @DF-RHF iter   6:  -303.29847288688842   -9.53500e-06   6.60693e-07 DIIS
   @DF-RHF iter   7:  -303.29847398819544   -1.10131e-06   3.37848e-07 DIIS
   @DF-RHF iter   8:  -303.29847425137234   -2.63177e-07   1.36004e-07 DIIS
   @DF-RHF iter   9:  -303.29847430197577   -5.06034e-08   3.42280e-08 DIIS
   @DF-RHF iter  10:  -303.29847430487973   -2.90396e-09   1.28271e-08 DIIS
   @DF-RHF iter  11:  -303.29847430513064   -2.50907e-10   3.04672e-09 DIIS
  Energy and wave function converged.


  ==> Post-Iterations <==

    Orbital Energies [Eh]
    ---------------------

    Doubly Occupied:                                                      

       1A    -15.834473     2A    -15.833921     3A    -11.529267  
       4A    -11.459704     5A    -11.458148     6A    -11.449547  
       7A    -11.449406     8A     -1.577656     9A     -1.433301  
      10A     -1.238158    11A     -1.188917    12A     -1.118558  
      13A     -1.022030    14A     -0.996472    15A     -0.916636  
      16A     -0.850224    17A     -0.815834    18A     -0.812691  
      19A     -0.789695    20A     -0.786017    21A     -0.781361  
      22A     -0.729414    23A     -0.725525    24A     -0.716944  
      25A     -0.595882    26A     -0.523597  

    Virtual:                                                              

      27A     -0.078991    28A     -0.070208    29A     -0.062844  
      30A     -0.061686    31A     -0.043413    32A     -0.041912  
      33A     -0.040641    34A     -0.039142    35A     -0.034833  
      36A     -0.031958    37A     -0.021875    38A     -0.019247  
      39A     -0.019147    40A     -0.015133    41A     -0.013613  
      42A     -0.012838    43A     -0.010546    44A     -0.009936  
      45A     -0.000510    46A      0.001694    47A      0.003024  
      48A      0.005224    49A      0.005521    50A      0.007716  
      51A      0.009555    52A      0.010740    53A      0.015718  
      54A      0.017343    55A      0.022757    56A      0.023624  
      57A      0.028948    58A      0.029061    59A      0.029431  
      60A      0.033840    61A      0.037010    62A      0.038703  
      63A      0.038979    64A      0.039673    65A      0.040618  
      66A      0.043148    67A      0.046397    68A      0.050954  
      69A      0.051451    70A      0.052018    71A      0.053054  
      72A      0.055141    73A      0.057375    74A      0.060212  
      75A      0.060731    76A      0.061719    77A      0.064800  
      78A      0.067919    79A      0.068701    80A      0.069592  
      81A      0.072945    82A      0.073541    83A      0.077229  
      84A      0.078655    85A      0.079743    86A      0.080320  
      87A      0.081019    88A      0.082225    89A      0.083750  
      90A      0.085299    91A      0.085697    92A      0.087758  
      93A      0.090051    94A      0.090767    95A      0.092626  
      96A      0.096899    97A      0.098563    98A      0.102014  
      99A      0.102264   100A      0.103126   101A      0.104044  
     102A      0.108758   103A      0.109725   104A      0.110789  
     105A      0.111710   106A      0.112371   107A      0.114104  
     108A      0.114713   109A      0.115400   110A      0.117516  
     111A      0.118212   112A      0.120662   113A      0.120958  
     114A      0.123112   115A      0.123442   116A      0.125729  
     117A      0.127393   118A      0.127951   119A      0.130094  
     120A      0.134288   121A      0.135033   122A      0.137718  
     123A      0.139249   124A      0.139727   125A      0.141567  
     126A      0.143253   127A      0.144196   128A      0.146966  
     129A      0.150033   130A      0.150341   131A      0.153708  
     132A      0.153979   133A      0.155201   134A      0.156128  
     135A      0.156486   136A      0.157526   137A      0.163062  
     138A      0.164482   139A      0.165184   140A      0.166417  
     141A      0.167701   142A      0.169620   143A      0.170204  
     144A      0.172061   145A      0.173264   146A      0.174063  
     147A      0.174284   148A      0.176768   149A      0.178121  
     150A      0.179328   151A      0.179855   152A      0.182758  
     153A      0.183165   154A      0.183872   155A      0.188275  
     156A      0.189633   157A      0.193467   158A      0.193968  
     159A      0.197598   160A      0.198628   161A      0.201602  
     162A      0.203109   163A      0.203294   164A      0.206360  
     165A      0.208485   166A      0.208968   167A      0.211901  
     168A      0.212616   169A      0.212818   170A      0.215846  
     171A      0.217055   172A      0.219462   173A      0.220397  
     174A      0.220882   175A      0.222543   176A      0.223538  
     177A      0.223589   178A      0.225295   179A      0.227145  
     180A      0.228570   181A      0.229570   182A      0.231234  
     183A      0.235392   184A      0.236226   185A      0.236579  
     186A      0.236741   187A      0.237244   188A      0.241167  
     189A      0.246559   190A      0.248287   191A      0.252933  
     192A      0.254736   193A      0.256692   194A      0.259950  
     195A      0.260586   196A      0.263554   197A      0.264254  
     198A      0.264850   199A      0.266519   200A      0.269282  
     201A      0.269547   202A      0.271181   203A      0.273052  
     204A      0.278529   205A      0.278890   206A      0.279391  
     207A      0.279714   208A      0.279895   209A      0.282341  
     210A      0.283974   211A      0.285726   212A      0.286262  
     213A      0.288589   214A      0.289802   215A      0.291950  
     216A      0.293135   217A      0.295099   218A      0.298252  
     219A      0.301230   220A      0.301728   221A      0.303028  
     222A      0.307258   223A      0.307451   224A      0.310628  
     225A      0.312981   226A      0.313706   227A      0.315342  
     228A      0.320058   229A      0.323129   230A      0.324001  
     231A      0.326033   232A      0.328161   233A      0.332374  
     234A      0.334475   235A      0.340460   236A      0.343323  
     237A      0.343854   238A      0.346113   239A      0.349381  
     240A      0.351123   241A      0.353122   242A      0.355137  
     243A      0.356141   244A      0.358593   245A      0.359524  
     246A      0.360354   247A      0.363651   248A      0.365260  
     249A      0.369165   250A      0.371300   251A      0.372955  
     252A      0.374570   253A      0.375899   254A      0.377702  
     255A      0.380081   256A      0.380329   257A      0.382576  
     258A      0.382900   259A      0.383653   260A      0.384898  
     261A      0.387596   262A      0.388102   263A      0.390646  
     264A      0.394340   265A      0.395216   266A      0.396992  
     267A      0.398641   268A      0.399862   269A      0.401846  
     270A      0.403225   271A      0.404796   272A      0.407367  
     273A      0.409297   274A      0.409824   275A      0.414302  
     276A      0.416487   277A      0.419998   278A      0.421900  
     279A      0.422817   280A      0.425005   281A      0.427401  
     282A      0.428370   283A      0.430860   284A      0.433206  
     285A      0.433646   286A      0.434635   287A      0.436683  
     288A      0.441360   289A      0.443654   290A      0.445405  
     291A      0.447679   292A      0.449779   293A      0.450408  
     294A      0.452866   295A      0.453941   296A      0.455282  
     297A      0.458068   298A      0.458513   299A      0.461250  
     300A      0.462760   301A      0.464364   302A      0.465773  
     303A      0.469722   304A      0.471316   305A      0.472149  
     306A      0.477147   307A      0.479661   308A      0.479860  
     309A      0.482532   310A      0.491796   311A      0.495587  
     312A      0.496247   313A      0.498568   314A      0.499761  
     315A      0.502096   316A      0.503340   317A      0.504577  
     318A      0.506838   319A      0.508420   320A      0.510422  
     321A      0.512548   322A      0.513009   323A      0.515084  
     324A      0.518866   325A      0.523644   326A      0.524077  
     327A      0.526076   328A      0.529335   329A      0.530125  
     330A      0.531780   331A      0.538226   332A      0.538706  
     333A      0.540860   334A      0.542427   335A      0.543686  
     336A      0.546735   337A      0.549758   338A      0.553240  
     339A      0.555140   340A      0.560146   341A      0.562440  
     342A      0.563821   343A      0.566466   344A      0.569034  
     345A      0.569602   346A      0.571291   347A      0.575211  
     348A      0.576262   349A      0.576613   350A      0.578253  
     351A      0.579518   352A      0.585195   353A      0.592078  
     354A      0.597916   355A      0.599728   356A      0.601655  
     357A      0.602194   358A      0.603238   359A      0.603821  
     360A      0.604138   361A      0.609606   362A      0.610745  
     363A      0.612050   364A      0.615735   365A      0.618076  
     366A      0.620697   367A      0.622134   368A      0.624506  
     369A      0.625917   370A      0.627025   371A      0.629243  
     372A      0.633615   373A      0.638329   374A      0.639357  
     375A      0.641962   376A      0.645672   377A      0.647675  
     378A      0.660781   379A      0.668844   380A      0.672168  
     381A      0.674446   382A      0.675700   383A      0.682492  
     384A      0.683068   385A      0.684488   386A      0.684736  
     387A      0.687048   388A      0.687976   389A      0.689208  
     390A      0.689684   391A      0.691014   392A      0.692007  
     393A      0.694255   394A      0.694546   395A      0.698507  
     396A      0.699676   397A      0.704339   398A      0.706777  
     399A      0.710526   400A      0.714131   401A      0.715229  
     402A      0.716190   403A      0.720535   404A      0.721185  
     405A      0.728412   406A      0.730092   407A      0.730768  
     408A      0.732155   409A      0.740369   410A      0.746281  
     411A      0.756781   412A      0.758307   413A      0.770471  
     414A      0.771212   415A      0.771570   416A      0.772533  
     417A      0.775000   418A      0.783538   419A      0.787092  
     420A      0.787546   421A      0.792352   422A      0.798624  
     423A      0.801316   424A      0.803983   425A      0.806956  
     426A      0.810248   427A      0.812388   428A      0.816604  
     429A      0.819036   430A      0.820044   431A      0.821309  
     432A      0.827162   433A      0.827643   434A      0.831813  
     435A      0.838297   436A      0.841118   437A      0.847986  
     438A      0.855972   439A      0.865152   440A      0.868681  
     441A      0.878643   442A      0.881993   443A      0.882523  
     444A      0.887975   445A      0.889204   446A      0.894162  
     447A      0.898291   448A      0.900165   449A      0.904383  
     450A      0.907442   451A      0.917350   452A      0.919559  
     453A      0.923725   454A      0.925348   455A      0.926351  
     456A      0.929226   457A      0.934544   458A      0.940240  
     459A      0.945399   460A      0.950167   461A      0.955216  
     462A      0.957068   463A      0.960384   464A      0.978810  
     465A      0.981307   466A      0.985965   467A      0.986438  
     468A      0.988156   469A      0.988463   470A      1.018658  
     471A      1.025150   472A      1.026204   473A      1.026453  
     474A      1.044611   475A      1.051833   476A      1.064652  
     477A      1.073680   478A      1.073873   479A      1.080373  
     480A      1.082210   481A      1.085278   482A      1.094621  
     483A      1.099875   484A      1.102959   485A      1.104894  
     486A      1.105096   487A      1.113068   488A      1.115496  
     489A      1.116436   490A      1.123479   491A      1.139217  
     492A      1.139325   493A      1.145456   494A      1.147971  
     495A      1.150513   496A      1.156011   497A      1.168175  
     498A      1.179776   499A      1.188290   500A      1.205098  
     501A      1.210527   502A      1.215821   503A      1.217570  
     504A      1.223675   505A      1.225214   506A      1.225528  
     507A      1.242621   508A      1.243795   509A      1.245616  
     510A      1.246866   511A      1.286595   512A      1.287858  
     513A      1.288522   514A      1.301021   515A      1.347433  
     516A      1.355828   517A      1.361802   518A      1.362472  
     519A      1.372949   520A      1.378760   521A      1.379466  
     522A      1.384213   523A      1.384641   524A      1.396761  
     525A      1.401955   526A      1.406235   527A      1.409523  
     528A      1.444155   529A      1.452045   530A      1.458221  
     531A      1.460099   532A      1.472850   533A      1.476145  
     534A      1.476594   535A      1.484034   536A      1.489839  
     537A      1.498390   538A      1.525223   539A      1.525822  
     540A      1.539057   541A      1.546057   542A      1.560030  
     543A      1.565121   544A      1.570569   545A      1.574224  
     546A      1.576574   547A      1.580719   548A      1.593116  
     549A      1.593907   550A      1.603839   551A      1.609621  
     552A      1.615927   553A      1.620058   554A      1.633497  
     555A      1.645287   556A      1.666331   557A      1.668388  
     558A      1.668867   559A      1.671280   560A      1.673550  
     561A      1.676375   562A      1.682274   563A      1.684451  
     564A      1.686689   565A      1.690521   566A      1.692916  
     567A      1.701609   568A      1.706464   569A      1.709304  
     570A      1.713276   571A      1.715079   572A      1.718113  
     573A      1.721373   574A      1.724797   575A      1.728260  
     576A      1.736956   577A      1.740734   578A      1.742869  
     579A      1.745918   580A      1.747454   581A      1.748114  
     582A      1.750528   583A      1.751584   584A      1.753261  
     585A      1.755269   586A      1.762539   587A      1.763293  
     588A      1.769737   589A      1.771613   590A      1.774483  
     591A      1.777791   592A      1.780031   593A      1.780128  
     594A      1.784127   595A      1.786587   596A      1.794289  
     597A      1.799124   598A      1.803544   599A      1.805285  
     600A      1.806482   601A      1.809212   602A      1.812583  
     603A      1.815689   604A      1.821073   605A      1.823678  
     606A      1.824959   607A      1.825681   608A      1.826103  
     609A      1.830779   610A      1.833557   611A      1.835211  
     612A      1.840030   613A      1.842313   614A      1.846627  
[...]
     805A      1.699213   806A      1.701715   807A      1.703128  
     808A      1.705046   809A      1.705340   810A      1.710823  
     811A      1.715802   812A      1.720077   813A      1.728592  
     814A      1.733756   815A      1.742129   816A      1.742404  
     817A      1.752444   818A      1.761519   819A      1.761849  
     820A      1.762759   821A      1.765100   822A      1.778393  
     823A      1.779075   824A      1.791465   825A      1.793438  
     826A      1.800277   827A      1.805822   828A      1.818193  
     829A      1.820247   830A      1.820886   831A      1.825036  
     832A      1.825657   833A      1.829964   834A      1.834508  
     835A      1.840166   836A      1.841064   837A      1.843218  
     838A      1.853496   839A      1.857473   840A      1.863202  
     841A      1.864168   842A      1.865708   843A      1.870713  
     844A      1.871890   845A      1.874373   846A      1.874820  
     847A      1.880982   848A      1.881238   849A      1.894058  
     850A      1.896534   851A      1.897366   852A      1.899761  
     853A      1.902635   854A      1.905471   855A      1.910047  
     856A      1.911080   857A      1.915132   858A      1.918410  
     859A      1.918771   860A      1.920298   861A      1.921591  
     862A      1.921827   863A      1.923084   864A      1.927704  
     865A      1.933378   866A      1.939664   867A      1.944273  
     868A      1.945376   869A      1.947542   870A      1.950872  
     871A      1.951849   872A      1.954712   873A      1.956353  
     874A      1.958516   875A      1.958864   876A      1.962602  
     877A      1.962910   878A      1.976873   879A      1.977217  
     880A      1.981842   881A      1.986533   882A      1.991441  
     883A      1.993627   884A      1.998285   885A      1.999467  
     886A      2.001461   887A      2.003477   888A      2.010430  
     889A      2.012183   890A      2.016297   891A      2.016956  
     892A      2.021644   893A      2.028647   894A      2.030607  
     895A      2.032023   896A      2.034113   897A      2.034649  
     898A      2.036706   899A      2.039152   900A      2.044900  
     901A      2.051417   902A      2.053717   903A      2.055369  
     904A      2.060114   905A      2.062182   906A      2.063923  
     907A      2.066216   908A      2.069702   909A      2.072661  
     910A      2.074255   911A      2.078650   912A      2.080652  
     913A      2.081511   914A      2.084938   915A      2.087452  
     916A      2.088910   917A      2.090467   918A      2.093670  
     919A      2.096093   920A      2.097175   921A      2.098727  
     922A      2.101469   923A      2.101879   924A      2.103431  
     925A      2.105847   926A      2.107942   927A      2.110835  
     928A      2.111409   929A      2.112325   930A      2.114010  
     931A      2.116979   932A      2.119804   933A      2.120610  
     934A      2.123302   935A      2.124401   936A      2.127650  
     937A      2.128806   938A      2.130464   939A      2.133084  
     940A      2.136694   941A      2.137391   942A      2.137935  
     943A      2.142223   944A      2.143869   945A      2.145267  
     946A      2.150159   947A      2.152614   948A      2.156959  
     949A      2.163744   950A      2.164556   951A      2.166751  
     952A      2.172763   953A      2.174224   954A      2.181860  
     955A      2.183576   956A      2.186818   957A      2.191281  
     958A      2.191788   959A      2.193145   960A      2.194787  
     961A      2.196025   962A      2.200356   963A      2.208163  
     964A      2.209774   965A      2.213186   966A      2.218727  
     967A      2.219380   968A      2.221319   969A      2.221451  
     970A      2.228872   971A      2.229972   972A      2.233853  
     973A      2.238951   974A      2.241441   975A      2.245695  
     976A      2.246043   977A      2.248952   978A      2.249323  
     979A      2.250536   980A      2.258636   981A      2.261929  
     982A      2.264506   983A      2.270970   984A      2.271245  
     985A      2.272712   986A      2.275349   987A      2.279402  
     988A      2.282686   989A      2.289624   990A      2.302390  
     991A      2.307043   992A      2.314702   993A      2.316227  
     994A      2.318096   995A      2.319244   996A      2.326465  
     997A      2.327458   998A      2.332288   999A      2.332803  
    1000A      2.333372  1001A      2.338663  1002A      2.343122  
    1003A      2.346277  1004A      2.353153  1005A      2.354274  
    1006A      2.355279  1007A      2.360016  1008A      2.367351  
    1009A      2.370695  1010A      2.371944  1011A      2.381800  
    1012A      2.386801  1013A      2.397189  1014A      2.410103  
    1015A      2.417059  1016A      2.424706  1017A      2.424954  
    1018A      2.425306  1019A      2.430906  1020A      2.436750  
    1021A      2.437308  1022A      2.443420  1023A      2.449336  
    1024A      2.466624  1025A      2.472265  1026A      2.479422  
    1027A      2.481562  1028A      2.487943  1029A      2.489359  
    1030A      2.501927  1031A      2.507603  1032A      2.520867  
    1033A      2.530274  1034A      2.532541  1035A      2.542138  
    1036A      2.544851  1037A      2.547297  1038A      2.549714  
    1039A      2.550164  1040A      2.555238  1041A      2.555792  
    1042A      2.557338  1043A      2.560948  1044A      2.561450  
    1045A      2.571552  1046A      2.573472  1047A      2.573586  
    1048A      2.576997  1049A      2.579150  1050A      2.586885  
    1051A      2.587651  1052A      2.589895  1053A      2.591772  
    1054A      2.594724  1055A      2.600985  1056A      2.609512  
    1057A      2.613036  1058A      2.621808  1059A      2.625383  
    1060A      2.626367  1061A      2.633017  1062A      2.634528  
    1063A      2.637830  1064A      2.643656  1065A      2.644022  
    1066A      2.654416  1067A      2.654490  1068A      2.662197  
    1069A      2.673754  1070A      2.680868  1071A      2.684755  
    1072A      2.690256  1073A      2.692324  1074A      2.695013  
    1075A      2.699222  1076A      2.705445  1077A      2.711466  
    1078A      2.713942  1079A      2.714160  1080A      2.719399  
    1081A      2.719660  1082A      2.724218  1083A      2.728106  
    1084A      2.742180  1085A      2.751034  1086A      2.756540  
    1087A      2.760677  1088A      2.769261  1089A      2.780314  
    1090A      2.793303  1091A      2.797638  1092A      2.801686  
    1093A      2.820644  1094A      2.826105  1095A      2.830705  
    1096A      2.832376  1097A      2.837307  1098A      2.851988  
    1099A      2.856515  1100A      2.858793  1101A      2.862248  
    1102A      2.864179  1103A      2.866748  1104A      2.873359  
    1105A      2.890865  1106A      2.900840  1107A      2.919850  
    1108A      2.921250  1109A      2.923689  1110A      2.927484  
    1111A      2.934851  1112A      2.939398  1113A      2.954856  
    1114A      2.957018  1115A      2.959071  1116A      2.963606  
    1117A      2.967639  1118A      2.983220  1119A      3.014483  
    1120A      3.014975  1121A      3.021324  1122A      3.027273  
    1123A      3.034267  1124A      3.063114  1125A      3.065079  
    1126A      3.066134  1127A      3.068941  1128A      3.084607  
    1129A      3.094779  1130A      3.101044  1131A      3.118419  
    1132A      3.127426  1133A      3.130890  1134A      3.135526  
    1135A      3.141064  1136A      3.144719  1137A      3.148401  
    1138A      3.149775  1139A      3.149933  1140A      3.152367  
    1141A      3.155854  1142A      3.164008  1143A      3.166818  
    1144A      3.167803  1145A      3.174743  1146A      3.182765  
    1147A      3.193372  1148A      3.211781  1149A      3.223282  
    1150A      3.235898  1151A      3.242562  1152A      3.277535  
    1153A      3.279097  1154A      3.279980  1155A      3.289768  
    1156A      3.295391  1157A      3.313669  1158A      3.363506  
    1159A      3.370597  1160A      3.421011  1161A      3.421725  
    1162A      3.443365  1163A      3.489534  1164A      3.491540  
    1165A      3.495371  1166A      3.543921  1167A      3.558210  
    1168A      3.584956  1169A      3.589226  1170A      3.610911  
    1171A      3.617392  1172A      3.630644  1173A      3.631983  
    1174A      3.658375  1175A      3.665935  1176A      3.673376  
    1177A      3.765963  1178A      3.780504  1179A      3.789281  
    1180A      3.796016  1181A      3.829993  1182A      3.871970  
    1183A      3.872709  1184A      3.883857  1185A      3.914921  
    1186A      3.915524  1187A      3.978765  1188A      3.985555  
    1189A      4.011714  1190A      4.069377  1191A      4.076917  
    1192A      4.098728  1193A      4.245935  1194A      4.248165  
    1195A      4.485608  1196A      4.497269  1197A      4.536309  
    1198A      4.777791  1199A      4.810347  1200A      4.863500  
    1201A      4.892824  1202A      4.967756  1203A      5.077449  
    1204A      5.086798  1205A      5.092519  1206A      5.138916  
    1207A      5.162570  1208A      5.403420  1209A      5.438316  
    1210A      5.766004  1211A      5.771487  1212A      6.080132  
    1213A     18.217722  1214A     18.471324  1215A     18.488414  
    1216A     18.580761  1217A     18.878076  1218A     25.365055  
    1219A     25.400253  

    Final Occupation by Irrep:
              A 
    DOCC [   171 ]
    NA   [   171 ]
    NB   [   171 ]

  @DF-RHF Final Energy: -2055.89511336844907

   => Energetics <=

    Nuclear Repulsion Energy =           6452.5568002797772351
    One-Electron Energy =              -15636.5175586635577929
    Two-Electron Energy =                7128.0656450153310288
    Total Energy =                      -2055.8951133684495289

Computation Completed


Properties will be evaluated at   0.000000,   0.000000,   0.000000 [a0]

Properties computed using the SCF density matrix


 Multipole Moments:

 ------------------------------------------------------------------------------------
     Multipole            Electronic (a.u.)      Nuclear  (a.u.)        Total (a.u.)
 ------------------------------------------------------------------------------------

 L = 1.  Multiply by 2.5417464519 to convert [e a0] to [Debye]
 Dipole X            :          0.0003645           -0.0000085            0.0003560
 Dipole Y            :          0.0036940           -0.0028843            0.0008097
 Dipole Z            :        328.8080838         -328.8146594           -0.0065756
 Magnitude           :                                                    0.0066348

 ------------------------------------------------------------------------------------

*** tstop() called on d-16-7-4 at Mon Jan 22 17:37:39 2024
Module time:
	user time   =    3025.81 seconds =      50.43 minutes
	system time =     225.74 seconds =       3.76 minutes
	total time  =       1365 seconds =      22.75 minutes
Total time:
	user time   =    9436.41 seconds =     157.27 minutes
	system time =     703.96 seconds =      11.73 minutes
	total time  =       3195 seconds =      53.25 minutes
  Constructing Basis Sets for SAPT...

   => Loading Basis Set <=

    Name: (JUN-CC-PVDZ AUX)
    Role: RIFIT
    Keyword: DF_BASIS_SAPT
    atoms 1-2, 4-5, 10, 17-70 entry C          line   100 file /home/gridsan/tfroembgen/.conda/envs/psi4test/share/psi4/basis/jun-cc-pvdz-ri.gbs 
    atoms 3, 6                entry N          line   144 file /home/gridsan/tfroembgen/.conda/envs/psi4test/share/psi4/basis/jun-cc-pvdz-ri.gbs 
    atoms 7-9, 11-16, 71-88   entry H          line    30 file /home/gridsan/tfroembgen/.conda/envs/psi4test/share/psi4/basis/jun-cc-pvdz-ri.gbs 

   => Loading Basis Set <=

    Name: (JUN-CC-PVDZ AUX)
    Role: JKFIT
    Keyword: DF_BASIS_ELST
    atoms 1-2, 4-5, 10, 17-70 entry C          line   146 file /home/gridsan/tfroembgen/.conda/envs/psi4test/share/psi4/basis/jun-cc-pvdz-jkfit.gbs 
    atoms 3, 6                entry N          line   202 file /home/gridsan/tfroembgen/.conda/envs/psi4test/share/psi4/basis/jun-cc-pvdz-jkfit.gbs 
    atoms 7-9, 11-16, 71-88   entry H          line    70 file /home/gridsan/tfroembgen/.conda/envs/psi4test/share/psi4/basis/jun-cc-pvdz-jkfit.gbs 


  //>>>>>>>>>>>>>>>>>>>>>>>>>>>>>>>>>>>//
  //               SSAPT0              //
  //<<<<<<<<<<<<<<<<<<<<<<<<<<<<<<<<<<<//


*** tstart() called on d-16-7-4
*** at Mon Jan 22 17:37:40 2024

        SAPT0  
    Ed Hohenstein
     6 June 2009

      Orbital Information
  --------------------------
    NSO        =      1233
    NMO        =      1219
    NRI        =      4343
    NRI (Elst) =      5440
    NOCC A     =        26
    NOCC B     =       171
    FOCC A     =         7
    FOCC B     =        54
    NVIR A     =      1193
    NVIR B     =      1048

    Elst10,r            =    -0.014180685409 [Eh]
    Exch10              =     0.003846100533 [Eh]
    Exch10 (S^2)        =     0.003844667068 [Eh]

    Iter     Energy [mEh]          dE [mEh]         Residual      Time [s]
       1      -0.31104624       0.311046240       2.425221924           397
       2      -0.35782594       0.046779697       0.792149921           738
       3      -0.36787391       0.010047975       0.092680623           915
       4      -0.36715620      -0.000717717       0.041119671          1197
       5      -0.36705378      -0.000102414       0.008933549          1407
       6      -0.36710486       0.000051077       0.002748579          1567
       7      -0.36710224      -0.000002618       0.001320220          1750
       8      -0.36709906      -0.000003182       0.000452000          1961
       9      -0.36709961       0.000000548       0.000186818          2170
      10      -0.36709989       0.000000280       0.000052532          2424
      11      -0.36709987      -0.000000018       0.000014698          2703
      12      -0.36709985      -0.000000020       0.000004548          3010
      13      -0.36709985      -0.000000001       0.000001229          3340
      14      -0.36709985       0.000000001       0.000000473          3646

    CHF Iterations converged


    Iter     Energy [mEh]          dE [mEh]         Residual      Time [s]
       1     -11.86572664      11.865726644      55.745061417           244
       2      -8.29570988      -3.570016768       7.463155370           469
       3      -8.35614280       0.060432929       2.837185923           636
       4      -8.58380973       0.227666921       0.606450520           672
       5      -8.59348179       0.009672065       0.175297797           711
       6      -8.58934099      -0.004140796       0.086644356           732
       7      -8.58774829      -0.001592703       0.035779300           807
       8      -8.58834611       0.000597823       0.023883893           919
       9      -8.58866663       0.000320514       0.012109369          1069
      10      -8.58855834      -0.000108292       0.009406086          1160
      11      -8.58846213      -0.000096210       0.004456592          1180
      12      -8.58849061       0.000028485       0.002122417          1203
      13      -8.58850862       0.000018008       0.001078389          1268
      14      -8.58850823      -0.000000390       0.000581648          1305
      15      -8.58850222      -0.000006013       0.000332461          1325
      16      -8.58850109      -0.000001127       0.000135985          1539
      17      -8.58850303       0.000001943       0.000046774          1697
      18      -8.58850298      -0.000000056       0.000023983          1743
      19      -8.58850272      -0.000000251       0.000015153          1771
      20      -8.58850269      -0.000000033       0.000006852          1796
      21      -8.58850278       0.000000084       0.000003370          1822
      22      -8.58850278       0.000000004       0.000001623          1852
      23      -8.58850276      -0.000000017       0.000000857          1878

    CHF Iterations converged

    Ind20,r (A<-B)      =    -0.000367099848 [Eh]
    Ind20,r (B<-A)      =    -0.008588502763 [Eh]
    Ind20,r             =    -0.008955602612 [Eh]
    Exch-Ind20,r (A<-B) =     0.000321330603 [Eh]
    Exch-Ind20,r (B<-A) =     0.000661436375 [Eh]
    Exch-Ind20,r        =     0.000982766977 [Eh]
    Disp20              =    -0.017887338464 [Eh]
    Disp20 (SS)         =    -0.008943669232 [Eh]
    Disp20 (OS)         =    -0.008943669232 [Eh]
    Exch-Disp20         =     0.000542515633 [Eh]
    Exch-Disp20 (SS)    =     0.000341608871 [Eh]
    Exch-Disp20 (OS)    =     0.000200906763 [Eh]

    SAPT Results 
  --------------------------------------------------------------------------------------------------------
    Electrostatics                -14.18068541 [mEh]      -8.89851444 [kcal/mol]     -37.23138441 [kJ/mol]
      Elst10,r                    -14.18068541 [mEh]      -8.89851444 [kcal/mol]     -37.23138441 [kJ/mol]

    Exchange                        3.84610053 [mEh]       2.41346452 [kcal/mol]      10.09793556 [kJ/mol]
      Exch10                        3.84610053 [mEh]       2.41346452 [kcal/mol]      10.09793556 [kJ/mol]
      Exch10(S^2)                   3.84466707 [mEh]       2.41256501 [kcal/mol]      10.09417200 [kJ/mol]

    Induction                      -8.66154395 [mEh]      -5.43520089 [kcal/mol]     -22.74088051 [kJ/mol]
      Ind20,r                      -8.95560261 [mEh]      -5.61972548 [kcal/mol]     -23.51293142 [kJ/mol]
      Exch-Ind20,r                  0.98276698 [mEh]       0.61669559 [kcal/mol]       2.58025434 [kJ/mol]
      delta HF,r (2)               -0.68870832 [mEh]      -0.43217099 [kcal/mol]      -1.80820344 [kJ/mol]

    Dispersion                    -17.34482283 [mEh]     -10.88404065 [kcal/mol]     -45.53882607 [kJ/mol]
      Disp20                      -17.88733846 [mEh]     -11.22447435 [kcal/mol]     -46.96320067 [kJ/mol]
      Exch-Disp20                   0.54251563 [mEh]       0.34043370 [kcal/mol]       1.42437460 [kJ/mol]
      Disp20 (SS)                  -8.94366923 [mEh]      -5.61223717 [kcal/mol]     -23.48160033 [kJ/mol]
      Disp20 (OS)                  -8.94366923 [mEh]      -5.61223717 [kcal/mol]     -23.48160033 [kJ/mol]
      Exch-Disp20 (SS)              0.34160887 [mEh]       0.21436280 [kcal/mol]       0.89689397 [kJ/mol]
      Exch-Disp20 (OS)              0.20090676 [mEh]       0.12607090 [kcal/mol]       0.52748063 [kJ/mol]

  Total HF                        -18.99612883 [mEh]     -11.92025080 [kcal/mol]     -49.87432937 [kJ/mol]
  Total SAPT0                     -36.34095166 [mEh]     -22.80429145 [kcal/mol]     -95.41315543 [kJ/mol]

  Special recipe for scaled SAPT0 (see Manual):
    Electrostatics sSAPT0         -14.18068541 [mEh]      -8.89851444 [kcal/mol]     -37.23138441 [kJ/mol]
    Exchange sSAPT0                 3.84610053 [mEh]       2.41346452 [kcal/mol]      10.09793556 [kJ/mol]
    Induction sSAPT0               -8.66044428 [mEh]      -5.43451083 [kcal/mol]     -22.73799333 [kJ/mol]
    Dispersion sSAPT0             -17.34421578 [mEh]     -10.88365972 [kcal/mol]     -45.53723226 [kJ/mol]
  Total sSAPT0                    -36.33924494 [mEh]     -22.80322047 [kcal/mol]     -95.40867444 [kJ/mol]
  --------------------------------------------------------------------------------------------------------

*** tstop() called on d-16-7-4 at Mon Jan 22 20:01:38 2024
Module time:
	user time   =   10402.93 seconds =     173.38 minutes
	system time =    1213.63 seconds =      20.23 minutes
	total time  =       8638 seconds =     143.97 minutes
Total time:
	user time   =   19840.37 seconds =     330.67 minutes
	system time =    1917.59 seconds =      31.96 minutes
	total time  =      11834 seconds =     197.23 minutes

    Psi4 stopped on: Monday, 22 January 2024 08:01PM
    Psi4 wall time for execution: 3:17:16.14

*** Psi4 exiting successfully. Buy a developer a beer!
