
    -----------------------------------------------------------------------
          Psi4: An Open-Source Ab Initio Electronic Structure Package
                               Psi4 1.9 release

                         Git: Rev {} zzzzzzz 


    D. G. A. Smith, L. A. Burns, A. C. Simmonett, R. M. Parrish,
    M. C. Schieber, R. Galvelis, P. Kraus, H. Kruse, R. Di Remigio,
    A. Alenaizan, A. M. James, S. Lehtola, J. P. Misiewicz, M. Scheurer,
    R. A. Shaw, J. B. Schriber, Y. Xie, Z. L. Glick, D. A. Sirianni,
    J. S. O'Brien, J. M. Waldrop, A. Kumar, E. G. Hohenstein,
    B. P. Pritchard, B. R. Brooks, H. F. Schaefer III, A. Yu. Sokolov,
    K. Patkowski, A. E. DePrince III, U. Bozkaya, R. A. King,
    F. A. Evangelista, J. M. Turney, T. D. Crawford, C. D. Sherrill,
    J. Chem. Phys. 152(18) 184108 (2020). https://doi.org/10.1063/5.0006002

                            Additional Code Authors
    E. T. Seidl, C. L. Janssen, E. F. Valeev, M. L. Leininger,
    J. F. Gonthier, R. M. Richard, H. R. McAlexander, M. Saitow, X. Wang,
    P. Verma, M. H. Lechner, A. Jiang, S. Behnle, A. G. Heide,
    M. F. Herbst, and D. L. Poole

             Previous Authors, Complete List of Code Contributors,
                       and Citations for Specific Modules
    https://github.com/psi4/psi4/blob/master/codemeta.json
    https://github.com/psi4/psi4/graphs/contributors
    http://psicode.org/psi4manual/master/introduction.html#citing-psifour

    -----------------------------------------------------------------------


    Psi4 started on: Saturday, 27 January 2024 12:14AM

    Process ID: 707348
    Host:       n2cn0573.ab2021.local
    PSIDATADIR: /opt/software/pc2/EB-SW/software/PSI4/1.9-foss-2022a/share/psi4
    Memory:     500.0 MiB
    Threads:    16
    
  ==> Input File <==

--------------------------------------------------------------------------
memory 64 GB # how much memory is available ! Depends on the nodes/cores !

molecule dimer {
# monomer A
+1 1    # Charge and multiplicity
C  0.680067 1.417258 -9.015929
C -0.680504 1.419286 -9.015545
N -1.085635 1.420284 -7.697221
C  0.000108 1.423560 -6.915820
C -2.477365 1.469690 -7.229242
N  1.085222 1.420284 -7.697221
H  1.385146 1.409430 -9.833368
H -1.385302 1.419096 -9.833214
H -0.000009 1.425307 -5.834731
C  2.478117 1.403392 -7.232123
H  2.490592 1.430737 -6.141870
H  2.967028 0.489946 -7.579299
H  3.001428 2.278875 -7.623595
H -2.857359 2.491761 -7.309201
H -3.082679 0.799606 -7.842306
H -2.518128 1.142706 -6.189294
--
# monomer B
0 1     # Charge and multiplicity
C   -3.66844126402057      7.80375217008252      0.00190004133558
C   -4.84759871934653      7.13124183134024     -0.00046653359696
C   -4.89495929917518      5.69633040353158     -0.00103944469517
C   -3.65374067877320      4.98073034095895      0.00662099703436
C   -2.40942512149445      7.11398103667468      0.00209438359570
C   -2.42547734410473      5.68112195090346     -0.00491050527438
C   -1.19474401643570      7.78614419430947      0.00356656413763
C   0.03795902893699      7.09942164575698      0.00139585983271
C   0.03033258741920      5.66948955970466     -0.00408752508301
C   -1.20098450790502      4.96927034791531      0.00488220885047
C   1.27795782581485      7.77285944319479      0.00277170839332
C   2.48535808472416      7.08769688523756      0.00049722048857
C   2.48612868491717      5.65477081024076     -0.00644052849921
C   1.25408291964399      4.95607811366431      0.00518741308898
C   3.75171459140595      7.76391215098033      0.00062407186893
C   4.92356605618520      7.07878077698995     -0.00143240883900
C   4.95560727132542      5.64344746336949     -0.00159282164606
C   3.70680153420475      4.94121020833308      0.00349873852374
H   -3.65852113775815      8.89082741913536      0.00358502958574
H   -1.18921332975660      8.87412108735996      0.00753844057883
H   1.28429423888630      8.86083343548850      0.00693053253426
H   3.75354208679975      8.85103527897216      0.00214659618464
H   5.86995870320703      7.61379483465560     -0.00235777588134
H   -5.78823170750226      7.67630221293400     -0.00202638095293
C   -6.09197395869619      4.99326001364347     -0.00291168518608
C   -6.12866148031747      3.58258016879823     -0.00171050815740
C   -3.66457974004527      3.56418217974434     -0.00463560277484
C   -4.89429820469869      2.86108077590057      0.00453338221034
C   -2.43733499489796      2.84761165708481      0.00719617576166
C   -1.20922785759670      3.54788693497833     -0.00648285103018
C   1.24714157216223      3.53468075142962     -0.00729145743546
C   0.01517603956900      2.83311183930540      0.00439272578912
C   2.46764517244071      2.82128997725533      0.00449278391269
C   3.70254947457969      3.52466015442405     -0.00899517692985
C   6.14498038638375      4.92757236613191     -0.00282626685777
C   6.16658835886151      3.51658447594213     -0.00065971342101
C   4.92460995845939      2.80840792535402      0.00587903281610
H   7.08990550964105      5.46688776622306     -0.00658814770723
H   -7.03104175110130      5.54268795285765     -0.00714490013730
C   -7.33969804112295      2.85841153457957     -0.00333767559888
C   -7.36488195805880      1.47032337158330     -0.00157213747140
C   -4.90350460894690      1.44442681216000     -0.00628840166334
C   -6.13225715261081      0.73993935705394      0.00600164231964
C   -3.67687480051673      0.72669714267312      0.00433931473643
C   -2.44565658606518      1.42964113326212     -0.00597039546461
C   -1.22360068130162      0.71532450163492      0.00545886906656
C   0.00763786931376      1.41738314923765      0.00392452278437
C   1.23121980774686      0.70211669058719     -0.01490206287210
C   2.46082110053113      1.40329203612573      0.00460244601878
C   3.68443025419614      0.68719842821222      0.00377365974158
C   4.91870890153864      1.39173456118907     -0.00862816189375
C   7.36980207796101      2.77948220318441     -0.00242013321349
C   7.38016266612146      1.39121750785509     -0.00087345036788
C   6.13979953912259      0.67411862320065      0.00545489144369
H   -8.27919079934664      3.40711804112415     -0.00763522772059
H   8.31511347147953      3.31811809662368     -0.00663070901292
C   -8.59175593758115      0.72483255304480     -0.00123170985383
C   -8.59902460370342     -0.63263980622873      0.00089141472904
C   -6.13981313911873     -0.67413663715361     -0.00609792660607
C   -7.38018411213749     -1.39126618958160      0.00131813493501
C   -4.91868448025621     -1.39175501803000      0.00624257154343
C   -3.68443829568458     -0.68723731573599     -0.00478966852105
C   -2.46081704024768     -1.40334517882457      0.00575341766833
C   -1.23116201232071     -0.70217386488055     -0.00636696112346
C   -0.00756962538737     -1.41741884941102      0.00108956317991
C   1.22364771588843     -0.71527537726392      0.01109518512883
C   2.44567064933149     -1.42964328900682     -0.00065482763106
C   3.67686670284649     -0.72670743155550     -0.00479541202602
C   6.13224884641929     -0.73997883984993     -0.00632338623858
C   4.90351914550401     -1.44445752054090      0.00751768830159
C   8.59901484869081      0.63260386666793     -0.00101133422380
C   8.59174548810050     -0.72485086719319      0.00072504603735
C   7.36486276438985     -1.47033266560598      0.00049486934466
H   -9.52830597181814      1.27684744919284     -0.00270163681798
H   9.54141097460619      1.17457248844457     -0.00206336648518
C   -7.36983790976868     -2.77954514593389      0.00312634335708
C   -4.92459910905015     -2.80843725734101     -0.00460528907921
C   -6.16662249566744     -3.51665219282533      0.00169655107992
C   -3.70251035970491     -3.52468154912026      0.00571878010666
C   -2.46764698511392     -2.82132596280400     -0.00632585824990
C   -0.01513347410770     -2.83314164539971     -0.00604426974092
C   -1.24712184122656     -3.53473217556300      0.00551968366725
C   1.20924506964357     -3.54791467864352      0.00805871345849
C   2.43733602215464     -2.84764173817541     -0.00608104485234
C   4.89430234377080     -2.86112296828604     -0.00526030478103
C   3.66461525504104     -3.56421984553201      0.00761911515957
C   6.12863901474565     -3.58258405771778      0.00096495711699
C   7.33967266469532     -2.85841330737039      0.00248018319869
H   -9.54144911125902     -1.17456346666430      0.00226083090216
H   9.52826186807155     -1.27691907390448      0.00197485379837
H   -8.31516504384864     -3.31814985321231      0.00729857188773
H   8.27915514249207     -3.40714078989363      0.00681973918158
C   -6.14499418870218     -4.92764727278338      0.00302254913999
C   -3.70678334799751     -4.94126171411716     -0.00679841894792
C   -4.95559005800169     -5.64349397349412      0.00116871569699
C   -2.48612132622665     -5.65478557440947      0.00614125209662
C   -1.25405833548005     -4.95612205000132     -0.00503435388927
C   1.20101257386816     -4.96928038819302     -0.00385322963129
C   -0.03033667441341     -5.66952030313900      0.00398997003238
C   3.65375010132847     -4.98074377541453     -0.00309522988330
C   2.42549269587528     -5.68117463552727      0.00628170066869
C   6.09196561781097     -4.99325796338655      0.00325918379042
C   4.89497644461045     -5.69634842095790      0.00202298796027
H   -7.08989238804069     -5.46699984223871      0.00742531082125
H   7.03105520920009     -5.54265853633254      0.00683896355417
C   -4.92354532219813     -7.07882109967734      0.00061394679214
C   -2.48534208823777     -7.08772807792913     -0.00189594564379
C   -3.75168589177895     -7.76394715763627     -0.00170126671874
C   -0.03794895698805     -7.09946487446944     -0.00168022049625
C   -1.27795610040136     -7.77290438466689     -0.00366491325785
C   2.40944432072629     -7.11402201200282     -0.00081701968533
C   1.19474993715296     -7.78618536556242     -0.00296931056689
C   4.84762105249800     -7.13126211057943      0.00168979497423
C   3.66847160587561     -7.80378799294376     -0.00065863938960
H   -5.86994035041618     -7.61383059804164      0.00215798365757
H   5.78824962538815     -7.67633218931421      0.00281691445618
H   -3.75352693944918     -8.85107156923607     -0.00353718114765
H   -1.28430440589466     -8.86087539249706     -0.00809229711623
H   1.18922157469537     -8.87416062058945     -0.00706194725726
H   3.65854661482387     -8.89086063405326     -0.00231318081200

    units angstrom      # Angstroms are the default
    no_reorient         # Geometry fixed, default
    symmetry c1         # C1 symmetry, default
}

set {
    scf_type DF         # Density fitting, faster than exact integrals
    freeze_core True    # Freeze core electrons
    basis jun-cc-pVDZ   # Jun-cc-pVDZ basis set, recommended for sSAPT0 in https://doi.org/10.1063/1.4867135
}

energy('ssapt0')        # Compute sSAPT0 energy, includes also SAPT0
--------------------------------------------------------------------------

  Memory set to  59.605 GiB by Python driver.

Scratch directory: /tmp/
   => Loading Basis Set <=

    Name: JUN-CC-PVDZ
    Role: ORBITAL
    Keyword: BASIS
    atoms 1-2, 4-5, 10, 17-34, 41-53, 56-70, 73-89, 92-104, 109-119, 122-130 entry C          line   164 file /opt/software/pc2/EB-SW/software/PSI4/1.9-foss-2022a/share/psi4/basis/jun-cc-pvdz.gbs 
    atoms 3, 6                                                               entry N          line   198 file /opt/software/pc2/EB-SW/software/PSI4/1.9-foss-2022a/share/psi4/basis/jun-cc-pvdz.gbs 
    atoms 7-9, 11-16, 35-40, 54-55, 71-72, 90-91, 105-108, 120-121, 131-136  entry H          line    36 file /opt/software/pc2/EB-SW/software/PSI4/1.9-foss-2022a/share/psi4/basis/jun-cc-pvdz.gbs 

   => Loading Basis Set <=

    Name: JUN-CC-PVDZ
    Role: ORBITAL
    Keyword: BASIS
    atoms 1-2, 4-5, 10, 17-34, 41-53, 56-70, 73-89, 92-104, 109-119, 122-130 entry C          line   164 file /opt/software/pc2/EB-SW/software/PSI4/1.9-foss-2022a/share/psi4/basis/jun-cc-pvdz.gbs 
    atoms 3, 6                                                               entry N          line   198 file /opt/software/pc2/EB-SW/software/PSI4/1.9-foss-2022a/share/psi4/basis/jun-cc-pvdz.gbs 
    atoms 7-9, 11-16, 35-40, 54-55, 71-72, 90-91, 105-108, 120-121, 131-136  entry H          line    36 file /opt/software/pc2/EB-SW/software/PSI4/1.9-foss-2022a/share/psi4/basis/jun-cc-pvdz.gbs 


  //>>>>>>>>>>>>>>>>>>>>>>>>>>>>>>>>>>>//
  //              Dimer HF             //
  //<<<<<<<<<<<<<<<<<<<<<<<<<<<<<<<<<<<//

   => Libint2 <=

    Primary   basis highest AM E, G, H:  5, 4, 3
    Auxiliary basis highest AM E, G, H:  6, 5, 4
    Onebody   basis highest AM E, G, H:  6, 5, 4
    Solid Harmonics ordering:            gaussian

*** tstart() called on n2cn0573.ab2021.local
*** at Sat Jan 27 00:14:32 2024

   => Loading Basis Set <=

    Name: JUN-CC-PVDZ
    Role: ORBITAL
    Keyword: BASIS
    atoms 1-2, 4-5, 10, 17-34, 41-53, 56-70, 73-89, 92-104, 109-119, 122-130 entry C          line   164 file /opt/software/pc2/EB-SW/software/PSI4/1.9-foss-2022a/share/psi4/basis/jun-cc-pvdz.gbs 
    atoms 3, 6                                                               entry N          line   198 file /opt/software/pc2/EB-SW/software/PSI4/1.9-foss-2022a/share/psi4/basis/jun-cc-pvdz.gbs 
    atoms 7-9, 11-16, 35-40, 54-55, 71-72, 90-91, 105-108, 120-121, 131-136  entry H          line    36 file /opt/software/pc2/EB-SW/software/PSI4/1.9-foss-2022a/share/psi4/basis/jun-cc-pvdz.gbs 


         ---------------------------------------------------------
                                   SCF
               by Justin Turney, Rob Parrish, Andy Simmonett
                          and Daniel G. A. Smith
                              RHF Reference
                       16 Threads,  61035 MiB Core
         ---------------------------------------------------------

  ==> Geometry <==

    Molecular point group: c1
    Full point group: C1

    Geometry (in Angstrom), charge = 1, multiplicity = 1:

       Center              X                  Y                   Z               Mass       
    ------------   -----------------  -----------------  -----------------  -----------------
         C            0.680062820275     1.308604348936    -8.421245028230    12.000000000000
         C           -0.680508179725     1.310632348936    -8.420861028230    12.000000000000
         N           -1.085639179725     1.311630348936    -7.102537028230    14.003074004430
         C            0.000103820275     1.314906348936    -6.321136028230    12.000000000000
         C           -2.477369179725     1.361036348936    -6.634558028230    12.000000000000
         N            1.085217820275     1.311630348936    -7.102537028230    14.003074004430
         H            1.385141820275     1.300776348936    -9.238684028230     1.007825032230
         H           -1.385306179725     1.310442348936    -9.238530028230     1.007825032230
         H           -0.000013179725     1.316653348936    -5.240047028230     1.007825032230
         C            2.478112820275     1.294738348936    -6.637439028230    12.000000000000
         H            2.490587820275     1.322083348936    -5.547186028230     1.007825032230
         H            2.967023820275     0.381292348936    -6.984615028230     1.007825032230
         H            3.001423820275     2.170221348936    -7.028911028230     1.007825032230
         H           -2.857363179725     2.383107348936    -6.714517028230     1.007825032230
         H           -3.082683179725     0.690952348936    -7.247622028230     1.007825032230
         H           -2.518132179725     1.034052348936    -5.594610028230     1.007825032230
         C           -3.668445443746     7.695098519018     0.596584013106    12.000000000000
         C           -4.847602899072     7.022588180276     0.594217438173    12.000000000000
         C           -4.894963478901     5.587676752467     0.593644527075    12.000000000000
         C           -3.653744858499     4.872076689895     0.601304968805    12.000000000000
         C           -2.409429301220     7.005327385610     0.596778355366    12.000000000000
         C           -2.425481523830     5.572468299839     0.589773466496    12.000000000000
         C           -1.194748196161     7.677490543245     0.598250535908    12.000000000000
         C            0.037954849212     6.990767994693     0.596079831603    12.000000000000
         C            0.030328407694     5.560835908640     0.590596446687    12.000000000000
         C           -1.200988687630     4.860616696851     0.599566180621    12.000000000000
         C            1.277953646089     7.664205792130     0.597455680164    12.000000000000
         C            2.485353904999     6.979043234173     0.595181192259    12.000000000000
         C            2.486124505192     5.546117159176     0.588243443271    12.000000000000
         C            1.254078739919     4.847424462600     0.599871384859    12.000000000000
         C            3.751710411681     7.655258499916     0.595308043639    12.000000000000
         C            4.923561876460     6.970127125926     0.593251562931    12.000000000000
         C            4.955603091600     5.534793812305     0.593091150124    12.000000000000
         C            3.706797354479     4.832556557269     0.598182710294    12.000000000000
         H           -3.658525317484     8.782173768071     0.598269001356     1.007825032230
         H           -1.189217509482     8.765467436296     0.602222412349     1.007825032230
         H            1.284290059161     8.752179784424     0.601614504305     1.007825032230
         H            3.753537907074     8.742381627908     0.596830567955     1.007825032230
         H            5.869954523482     7.505141183591     0.592326195889     1.007825032230
         H           -5.788235887228     7.567648561870     0.592657590817     1.007825032230
         C           -6.091978138422     4.884606362579     0.591772286584    12.000000000000
         C           -6.128665660043     3.473926517734     0.592973463613    12.000000000000
         C           -3.664583919771     3.455528528680     0.590048368995    12.000000000000
         C           -4.894302384424     2.752427124836     0.599217353981    12.000000000000
         C           -2.437339174623     2.738958006020     0.601880147532    12.000000000000
         C           -1.209232037322     3.439233283914     0.588201120740    12.000000000000
         C            1.247137392437     3.426027100365     0.587392514335    12.000000000000
         C            0.015171859844     2.724458188241     0.599076697559    12.000000000000
         C            2.467640992715     2.712636326191     0.599176755683    12.000000000000
         C            3.702545294854     3.416006503360     0.585688794840    12.000000000000
         C            6.144976206658     4.818918715067     0.591857704913    12.000000000000
         C            6.166584179136     3.407930824878     0.594024258349    12.000000000000
         C            4.924605778734     2.699754274290     0.600563004586    12.000000000000
         H            7.089901329916     5.358234115159     0.588095824063     1.007825032230
         H           -7.031045930827     5.434034301793     0.587539071633     1.007825032230
         C           -7.339702220848     2.749757883515     0.591346296171    12.000000000000
         C           -7.364886137784     1.361669720519     0.593111834299    12.000000000000
         C           -4.903508788672     1.335773161096     0.588395570107    12.000000000000
         C           -6.132261332336     0.631285705989     0.600685614090    12.000000000000
         C           -3.676878980242     0.618043491609     0.599023286507    12.000000000000
         C           -2.445660765791     1.320987482198     0.588713576306    12.000000000000
         C           -1.223604861027     0.606670850570     0.600142840837    12.000000000000
         C            0.007633689588     1.308729498173     0.598608494555    12.000000000000
         C            1.231215628021     0.593463039523     0.579781908898    12.000000000000
         C            2.460816920806     1.294638385061     0.599286417789    12.000000000000
         C            3.684426074471     0.578544777148     0.598457631512    12.000000000000
         C            4.918704721813     1.283080910125     0.586055809877    12.000000000000
         C            7.369797898236     2.670828552120     0.592263838557    12.000000000000
         C            7.380158486396     1.282563856791     0.593810521402    12.000000000000
         C            6.139795359397     0.565464972136     0.600138863214    12.000000000000
         H           -8.279194979072     3.298464390060     0.587048744050     1.007825032230
         H            8.315109291754     3.209464445559     0.588053262757     1.007825032230
         C           -8.591760117307     0.616178901980     0.593452261916    12.000000000000
         C           -8.599028783429    -0.741293457293     0.595575386499    12.000000000000
         C           -6.139817318844    -0.782790288218     0.588586045164    12.000000000000
         C           -7.380188291863    -1.499919840646     0.596002106705    12.000000000000
         C           -4.918688659982    -1.500408669094     0.600926543314    12.000000000000
         C           -3.684442475410    -0.795890966800     0.589894303249    12.000000000000
         C           -2.460821219973    -1.511998829889     0.600437389439    12.000000000000
         C           -1.231166192046    -0.810827515945     0.588317010647    12.000000000000
         C           -0.007573805113    -1.526072500475     0.595773534950    12.000000000000
         C            1.223643536163    -0.823929028328     0.605779156899    12.000000000000
         C            2.445666469606    -1.538296940071     0.594029144139    12.000000000000
         C            3.676862523121    -0.835361082620     0.589888559744    12.000000000000
         C            6.132244666694    -0.848632490914     0.588360585532    12.000000000000
         C            4.903514965779    -1.553111171605     0.602201660072    12.000000000000
         C            8.599010668965     0.523950215603     0.593672637546    12.000000000000
         C            8.591741308375    -0.833504518258     0.595409017808    12.000000000000
         C            7.364858584664    -1.578986316670     0.595178841115    12.000000000000
         H           -9.528310151544     1.168193798128     0.591982334952     1.007825032230
         H            9.541406794881     1.065918837380     0.592620605285     1.007825032230
         C           -7.369842089494    -2.888198796998     0.597810315127    12.000000000000
         C           -4.924603288776    -2.917090908405     0.590078682691    12.000000000000
         C           -6.166626675393    -3.625305843890     0.596380522850    12.000000000000
         C           -3.702514539430    -3.633335200185     0.600402751877    12.000000000000
         C           -2.467651164839    -2.929979613868     0.588358113520    12.000000000000
         C           -0.015137653833    -2.941795296464     0.588639702029    12.000000000000
         C           -1.247126020952    -3.643385826627     0.600203655438    12.000000000000
         C            1.209240889918    -3.656568329708     0.602742685229    12.000000000000
         C            2.437331842429    -2.956295389240     0.588602926918    12.000000000000
         C            4.894298164045    -2.969776619350     0.589423666989    12.000000000000
         C            3.664611075316    -3.672873496596     0.602303086930    12.000000000000
         C            6.128634835020    -3.691237708782     0.595648928887    12.000000000000
         C            7.339668484970    -2.967066958435     0.597164154969    12.000000000000
         H           -9.541453290984    -1.283217117729     0.596944802672     1.007825032230
         H            9.528257688346    -1.385572724969     0.596658825569     1.007825032230
         H           -8.315169223574    -3.426803504277     0.601982543658     1.007825032230
         H            8.279150962767    -3.515794440958     0.601503710952     1.007825032230
         C           -6.144998368428    -5.036300923848     0.597706520910    12.000000000000
         C           -3.706787527723    -5.049915365182     0.587885552822    12.000000000000
         C           -4.955594237727    -5.752147624559     0.595852687467    12.000000000000
         C           -2.486125505952    -5.763439225474     0.600825223867    12.000000000000
         C           -1.254062515205    -5.064775701066     0.589649617881    12.000000000000
         C            1.201008394143    -5.077934039257     0.590830742139    12.000000000000
         C           -0.030340854139    -5.778173954203     0.598673941803    12.000000000000
         C            3.653745921603    -5.089397426479     0.591588741887    12.000000000000
         C            2.425488516150    -5.789828286592     0.600965672439    12.000000000000
         C            6.091961438086    -5.101911614451     0.597943155561    12.000000000000
         C            4.894972264885    -5.805002072022     0.596706959731    12.000000000000
         H           -7.089896567766    -5.575653493303     0.602109282592     1.007825032230
         H            7.031051029475    -5.651312187397     0.601522935324     1.007825032230
         C           -4.923549501924    -7.187474750742     0.595297918562    12.000000000000
         C           -2.485346267963    -7.196381728994     0.592788026126    12.000000000000
         C           -3.751690071504    -7.872600808701     0.592982705052    12.000000000000
         C           -0.037953136713    -7.208118525534     0.593003751274    12.000000000000
         C           -1.277960280127    -7.881558035731     0.591019058512    12.000000000000
         C            2.409440141001    -7.222675663067     0.593866952085    12.000000000000
         C            1.194745757428    -7.894839016627     0.591714661203    12.000000000000
         C            4.847616872773    -7.239915761644     0.596373766745    12.000000000000
         C            3.668467426150    -7.912441644008     0.594025332381    12.000000000000
         H           -5.869944530142    -7.722484249106     0.596841955428     1.007825032230
         H            5.788245445663    -7.784985840379     0.597500886226     1.007825032230
         H           -3.753531119175    -8.959725220301     0.591146790623     1.007825032230
         H           -1.284308585620    -8.969529043562     0.586591674654     1.007825032230
         H            1.189217394970    -8.982814271654     0.587622024513     1.007825032230
         H            3.658542435098    -8.999514285118     0.592370790958     1.007825032230

  Running in c1 symmetry.

  Rotational constants: A =      0.00057  B =      0.00057  C =      0.00035 [cm^-1]
  Rotational constants: A =     17.06789  B =     17.06441  C =     10.46782 [MHz]
  Nuclear repulsion = 17604.420691107727180

  Charge       = 1
  Multiplicity = 1
  Electrons    = 652
  Nalpha       = 326
  Nbeta        = 326

  ==> Algorithm <==

  SCF Algorithm Type is DF.
  DIIS enabled.
  MOM disabled.
  Fractional occupation disabled.
  Guess Type is SAD.
  Energy threshold   = 1.00e-08
  Density threshold  = 1.00e-08
  Integral threshold = 1.00e-12

  ==> Primary Basis <==

  Basis Set: JUN-CC-PVDZ
    Blend: JUN-CC-PVDZ
    Number of shells: 923
    Number of basis functions: 2019
    Number of Cartesian functions: 2122
    Spherical Harmonics?: true
    Max angular momentum: 2

   => Loading Basis Set <=

    Name: (JUN-CC-PVDZ AUX)
    Role: JKFIT
    Keyword: DF_BASIS_SCF
    atoms 1-2, 4-5, 10, 17-34, 41-53, 56-70, 73-89, 92-104, 109-119, 122-130 entry C          line   146 file /opt/software/pc2/EB-SW/software/PSI4/1.9-foss-2022a/share/psi4/basis/jun-cc-pvdz-jkfit.gbs 
    atoms 3, 6                                                               entry N          line   202 file /opt/software/pc2/EB-SW/software/PSI4/1.9-foss-2022a/share/psi4/basis/jun-cc-pvdz-jkfit.gbs 
    atoms 7-9, 11-16, 35-40, 54-55, 71-72, 90-91, 105-108, 120-121, 131-136  entry H          line    70 file /opt/software/pc2/EB-SW/software/PSI4/1.9-foss-2022a/share/psi4/basis/jun-cc-pvdz-jkfit.gbs 

  ==> Integral Setup <==

  ==> DiskDFJK: Density-Fitted J/K Matrices <==

    J tasked:                  Yes
    K tasked:                  Yes
    wK tasked:                  No
    OpenMP threads:             16
    Integrals threads:          16
    Memory [MiB]:            45776
    Algorithm:                Disk
    Integral Cache:           SAVE
    Schwarz Cutoff:          1E-12
    Fitting Condition:       1E-10

   => Auxiliary Basis Set <=

  Basis Set: (JUN-CC-PVDZ AUX)
    Blend: JUN-CC-PVDZ-JKFIT
    Number of shells: 3078
    Number of basis functions: 8896
    Number of Cartesian functions: 10198
    Spherical Harmonics?: true
    Max angular momentum: 3

  Minimum eigenvalue in the overlap matrix is 9.0309450663E-11.
  Reciprocal condition number of the overlap matrix is 3.9603253375E-12.
    Using canonical orthogonalization.
  Overall, 38 of 2019 possible MOs eliminated.


  ==> Pre-Iterations <==

  SCF Guess: Superposition of Atomic Densities via on-the-fly atomic UHF (no occupation information).

   -------------------------
    Irrep   Nso     Nmo    
   -------------------------
     A       2019    1981 
   -------------------------
    Total    2019    1981
   -------------------------

  ==> Iterations <==

                           Total Energy        Delta E     RMS |[F,P]|

   @DF-RHF iter SAD: -3967.13338274116495   -3.96713e+03   0.00000e+00 
   @DF-RHF iter   1: -3952.09909500240155    1.50343e+01   7.16114e-04 ADIIS/DIIS
   @DF-RHF iter   2: -3953.49385924148282   -1.39476e+00   2.33247e-04 ADIIS/DIIS
   @DF-RHF iter   3: -3953.61762839146104   -1.23769e-01   1.00147e-04 ADIIS/DIIS
   @DF-RHF iter   4: -3953.63998640173213   -2.23580e-02   4.18235e-05 DIIS
   @DF-RHF iter   5: -3953.64439783196940   -4.41143e-03   1.02626e-05 DIIS
   @DF-RHF iter   6: -3953.64483237001014   -4.34538e-04   4.59932e-06 DIIS
   @DF-RHF iter   7: -3953.64501521594457   -1.82846e-04   2.20545e-06 DIIS
   @DF-RHF iter   8: -3953.64507660288882   -6.13869e-05   1.10576e-06 DIIS
   @DF-RHF iter   9: -3953.64509394798415   -1.73451e-05   3.53243e-07 DIIS
   @DF-RHF iter  10: -3953.64509511729602   -1.16931e-06   1.44846e-07 DIIS
   @DF-RHF iter  11: -3953.64509526648089   -1.49185e-07   5.90078e-08 DIIS
   @DF-RHF iter  12: -3953.64509529891120   -3.24303e-08   2.92390e-08 DIIS
   @DF-RHF iter  13: -3953.64509530524356   -6.33236e-09   9.39098e-09 DIIS
  Energy and wave function converged.


  ==> Post-Iterations <==

    Orbital Energies [Eh]
    ---------------------

    Doubly Occupied:                                                      

       1A    -15.822339     2A    -15.821818     3A    -11.517046  
       4A    -11.448665     5A    -11.447110     6A    -11.437039  
       7A    -11.436938     8A    -11.318183     9A    -11.317510  
      10A    -11.317386    11A    -11.317045    12A    -11.316847  
      13A    -11.316814    14A    -11.316362    15A    -11.316130  
      16A    -11.316123    17A    -11.316019    18A    -11.315830  
      19A    -11.315607    20A    -11.315433    21A    -11.315354  
      22A    -11.315238    23A    -11.315070    24A    -11.315037  
      25A    -11.314669    26A    -11.314365    27A    -11.314341  
      28A    -11.314284    29A    -11.314202    30A    -11.314028  
      31A    -11.313961    32A    -11.313954    33A    -11.313792  
      34A    -11.313277    35A    -11.313269    36A    -11.313111  
      37A    -11.313051    38A    -11.312935    39A    -11.312470  
      40A    -11.312458    41A    -11.312449    42A    -11.312430  
      43A    -11.312403    44A    -11.312384    45A    -11.311987  
      46A    -11.311971    47A    -11.311612    48A    -11.311601  
      49A    -11.311490    50A    -11.311388    51A    -11.311376  
      52A    -11.311354    53A    -11.311349    54A    -11.311220  
      55A    -11.311032    56A    -11.310889    57A    -11.310870  
      58A    -11.310758    59A    -11.310735    60A    -11.310729  
      61A    -11.310717    62A    -11.310675    63A    -11.310653  
      64A    -11.310130    65A    -11.310103    66A    -11.309851  
      67A    -11.309689    68A    -11.309679    69A    -11.309410  
      70A    -11.309389    71A    -11.309172    72A    -11.309152  
      73A    -11.309130    74A    -11.309117    75A    -11.308583  
      76A    -11.308578    77A    -11.308269    78A    -11.307980  
      79A    -11.307959    80A    -11.304206    81A    -11.304128  
      82A    -11.304045    83A    -11.304019    84A    -11.303497  
      85A    -11.303471    86A    -11.303239    87A    -11.303203  
      88A    -11.302627    89A    -11.302611    90A    -11.302128  
      91A    -11.302097    92A    -11.302024    93A    -11.301998  
      94A    -11.301606    95A    -11.301597    96A    -11.301369  
      97A    -11.301287    98A    -11.300621    99A    -11.300591  
     100A    -11.300299   101A    -11.300294   102A    -11.298819  
     103A    -11.298815   104A     -1.566130   105A     -1.421616  
     106A     -1.306795   107A     -1.290732   108A     -1.290589  
     109A     -1.271398   110A     -1.271394   111A     -1.267207  
     112A     -1.251316   113A     -1.246244   114A     -1.239702  
     115A     -1.239600   116A     -1.226800   117A     -1.223850  
     118A     -1.223845   119A     -1.206900   120A     -1.206882  
     121A     -1.204080   122A     -1.194590   123A     -1.194578  
     124A     -1.179216   125A     -1.176957   126A     -1.165915  
     127A     -1.163760   128A     -1.163648   129A     -1.162940  
     130A     -1.161270   131A     -1.138967   132A     -1.138936  
     133A     -1.126654   134A     -1.126647   135A     -1.118525  
     136A     -1.118497   137A     -1.116121   138A     -1.106465  
     139A     -1.097102   140A     -1.097081   141A     -1.090763  
     142A     -1.088412   143A     -1.088409   144A     -1.076504  
     145A     -1.073210   146A     -1.073186   147A     -1.057605  
     148A     -1.057116   149A     -1.054012   150A     -1.051258  
     151A     -1.051251   152A     -1.040472   153A     -1.021549  
     154A     -1.021539   155A     -1.010689   156A     -1.005747  
     157A     -1.005739   158A     -0.984720   159A     -0.957222  
     160A     -0.957142   161A     -0.956227   162A     -0.954846  
     163A     -0.954814   164A     -0.943944   165A     -0.943888  
     166A     -0.941634   167A     -0.941382   168A     -0.940094  
     169A     -0.921860   170A     -0.917842   171A     -0.904775  
     172A     -0.901517   173A     -0.898897   174A     -0.898761  
     175A     -0.896602   176A     -0.893680   177A     -0.884687  
     178A     -0.884677   179A     -0.877415   180A     -0.877411  
     181A     -0.838335   182A     -0.835391   183A     -0.835311  
     184A     -0.833443   185A     -0.833364   186A     -0.833130  
     187A     -0.832435   188A     -0.832125   189A     -0.817429  
     190A     -0.812087   191A     -0.804496   192A     -0.801210  
     193A     -0.800579   194A     -0.782957   195A     -0.778176  
     196A     -0.777417   197A     -0.777327   198A     -0.775434  
     199A     -0.774884   200A     -0.774827   201A     -0.773897  
     202A     -0.770264   203A     -0.769415   204A     -0.764494  
     205A     -0.764485   206A     -0.749302   207A     -0.749298  
     208A     -0.736925   209A     -0.735764   210A     -0.735754  
     211A     -0.732235   212A     -0.732226   213A     -0.728947  
     214A     -0.717012   215A     -0.713162   216A     -0.704830  
     217A     -0.703193   218A     -0.701001   219A     -0.700940  
     220A     -0.700327   221A     -0.700323   222A     -0.699177  
     223A     -0.691549   224A     -0.691496   225A     -0.689998  
     226A     -0.688984   227A     -0.686351   228A     -0.686347  
     229A     -0.679269   230A     -0.670873   231A     -0.664682  
     232A     -0.664674   233A     -0.658774   234A     -0.658744  
     235A     -0.651005   236A     -0.650847   237A     -0.649502  
     238A     -0.649296   239A     -0.648942   240A     -0.648807  
     241A     -0.645001   242A     -0.644894   243A     -0.644852  
     244A     -0.644556   245A     -0.641752   246A     -0.641710  
     247A     -0.638491   248A     -0.626674   249A     -0.626658  
     250A     -0.626642   251A     -0.626629   252A     -0.623281  
     253A     -0.621516   254A     -0.618917   255A     -0.618853  
     256A     -0.616532   257A     -0.616445   258A     -0.609696  
     259A     -0.609022   260A     -0.609008   261A     -0.607506  
     262A     -0.604519   263A     -0.600767   264A     -0.596052  
     265A     -0.594891   266A     -0.586704   267A     -0.586596  
     268A     -0.584271   269A     -0.583362   270A     -0.583277  
     271A     -0.578701   272A     -0.577743   273A     -0.577727  
     274A     -0.567292   275A     -0.567190   276A     -0.565315  
     277A     -0.565306   278A     -0.559064   279A     -0.559030  
     280A     -0.548062   281A     -0.546645   282A     -0.546617  
     283A     -0.545126   284A     -0.545106   285A     -0.540964  
     286A     -0.530868   287A     -0.527099   288A     -0.527087  
     289A     -0.523774   290A     -0.520217   291A     -0.516805  
     292A     -0.516740   293A     -0.512389   294A     -0.509434  
     295A     -0.498031   296A     -0.497919   297A     -0.492314  
     298A     -0.492172   299A     -0.492022   300A     -0.484108  
     301A     -0.483458   302A     -0.457919   303A     -0.457884  
     304A     -0.437572   305A     -0.437547   306A     -0.435297  
     307A     -0.435105   308A     -0.434908   309A     -0.404694  
     310A     -0.404659   311A     -0.401055   312A     -0.390429  
     313A     -0.388202   314A     -0.388172   315A     -0.382113  
     316A     -0.382060   317A     -0.358463   318A     -0.353176  
     319A     -0.353170   320A     -0.350859   321A     -0.336230  
     322A     -0.305198   323A     -0.304583   324A     -0.304570  
     325A     -0.254389   326A     -0.254375  

    Virtual:                                                              

     327A     -0.061650   328A     -0.061521   329A     -0.056531  
     330A     -0.051825   331A     -0.043595   332A     -0.037879  
     333A     -0.021278   334A     -0.018758   335A     -0.018422  
     336A     -0.015946   337A     -0.015849   338A     -0.014356  
     339A     -0.008963   340A      0.000134   341A      0.001767  
     342A      0.003039   343A      0.004812   344A      0.005858  
     345A      0.006479   346A      0.008663   347A      0.009197  
     348A      0.010739   349A      0.011505   350A      0.012505  
     351A      0.015601   352A      0.016092   353A      0.019167  
     354A      0.019281   355A      0.021116   356A      0.021364  
     357A      0.022734   358A      0.023556   359A      0.023669  
     360A      0.028984   361A      0.029009   362A      0.030961  
     363A      0.032455   364A      0.032483   365A      0.033480  
     366A      0.034147   367A      0.038642   368A      0.039331  
     369A      0.041395   370A      0.042421   371A      0.043143  
     372A      0.043615   373A      0.045839   374A      0.046009  
     375A      0.048060   376A      0.050205   377A      0.054614  
     378A      0.055073   379A      0.055714   380A      0.055948  
     381A      0.057917   382A      0.059327   383A      0.059814  
     384A      0.060834   385A      0.064303   386A      0.064438  
     387A      0.064559   388A      0.065169   389A      0.065254  
     390A      0.065828   391A      0.066156   392A      0.070974  
     393A      0.071180   394A      0.073116   395A      0.073718  
     396A      0.074782   397A      0.076305   398A      0.076343  
     399A      0.076704   400A      0.080632   401A      0.082263  
     402A      0.084813   403A      0.085767   404A      0.088097  
     405A      0.088461   406A      0.088882   407A      0.089431  
     408A      0.091687   409A      0.092980   410A      0.094996  
     411A      0.095584   412A      0.095903   413A      0.098722  
     414A      0.099947   415A      0.100536   416A      0.102665  
     417A      0.102803   418A      0.104922   419A      0.106127  
     420A      0.106762   421A      0.107431   422A      0.110161  
     423A      0.113207   424A      0.113338   425A      0.113518  
     426A      0.113652   427A      0.115658   428A      0.116500  
     429A      0.117639   430A      0.119133   431A      0.122576  
     432A      0.122926   433A      0.123330   434A      0.124461  
     435A      0.124837   436A      0.128527   437A      0.129300  
     438A      0.129552   439A      0.129912   440A      0.133514  
     441A      0.134258   442A      0.134281   443A      0.135535  
     444A      0.136052   445A      0.137854   446A      0.141561  
     447A      0.142562   448A      0.143087   449A      0.143630  
     450A      0.144081   451A      0.145760   452A      0.146771  
     453A      0.149727   454A      0.151435   455A      0.153555  
     456A      0.154131   457A      0.154606   458A      0.155313  
     459A      0.156885   460A      0.156938   461A      0.157664  
     462A      0.158069   463A      0.159212   464A      0.159623  
     465A      0.160071   466A      0.160524   467A      0.161100  
     468A      0.161672   469A      0.161941   470A      0.162816  
     471A      0.162989   472A      0.163398   473A      0.165248  
     474A      0.166827   475A      0.167845   476A      0.168890  
     477A      0.169634   478A      0.169899   479A      0.171999  
     480A      0.174269   481A      0.174771   482A      0.174846  
     483A      0.177565   484A      0.177837   485A      0.178140  
     486A      0.178716   487A      0.180673   488A      0.182120  
     489A      0.182457   490A      0.183301   491A      0.183723  
     492A      0.184600   493A      0.185291   494A      0.187294  
     495A      0.188955   496A      0.189967   497A      0.191613  
     498A      0.192248   499A      0.192529   500A      0.194426  
     501A      0.194921   502A      0.195369   503A      0.195607  
     504A      0.198093   505A      0.199685   506A      0.200142  
     507A      0.200331   508A      0.201040   509A      0.203677  
     510A      0.203808   511A      0.207000   512A      0.208217  
     513A      0.208709   514A      0.210488   515A      0.210965  
     516A      0.212433   517A      0.212745   518A      0.212856  
     519A      0.215842   520A      0.216192   521A      0.216687  
     522A      0.218754   523A      0.219624   524A      0.219906  
     525A      0.220540   526A      0.220752   527A      0.222767  
     528A      0.223034   529A      0.224063   530A      0.224879  
     531A      0.228868   532A      0.229739   533A      0.230019  
     534A      0.231212   535A      0.231234   536A      0.231844  
     537A      0.232232   538A      0.233162   539A      0.235448  
     540A      0.236800   541A      0.238373   542A      0.239295  
     543A      0.239685   544A      0.240640   545A      0.242305  
     546A      0.243820   547A      0.244316   548A      0.245670  
     549A      0.246153   550A      0.246560   551A      0.247077  
     552A      0.248984   553A      0.249986   554A      0.251691  
     555A      0.253010   556A      0.253675   557A      0.254726  
     558A      0.255227   559A      0.258740   560A      0.258857  
     561A      0.259069   562A      0.260004   563A      0.260201  
     564A      0.262213   565A      0.265827   566A      0.265842  
     567A      0.267254   568A      0.267702   569A      0.268287  
     570A      0.269164   571A      0.269824   572A      0.270368  
     573A      0.271801   574A      0.272219   575A      0.272707  
     576A      0.272898   577A      0.273976   578A      0.274458  
     579A      0.275589   580A      0.275967   581A      0.278108  
     582A      0.278910   583A      0.279976   584A      0.280893  
     585A      0.281437   586A      0.282261   587A      0.283449  
     588A      0.283981   589A      0.284928   590A      0.286772  
     591A      0.286858   592A      0.287261   593A      0.289310  
     594A      0.290654   595A      0.290838   596A      0.292156  
     597A      0.293368   598A      0.293846   599A      0.295955  
     600A      0.296113   601A      0.296835   602A      0.297966  
     603A      0.298478   604A      0.298914   605A      0.300312  
     606A      0.301242   607A      0.301537   608A      0.302113  
     609A      0.303560   610A      0.305528   611A      0.306462  
     612A      0.307317   613A      0.309668   614A      0.313598  
     615A      0.314490   616A      0.314852   617A      0.315255  
     618A      0.317014   619A      0.318642   620A      0.318969  
     621A      0.319781   622A      0.321233   623A      0.321402  
     624A      0.321846   625A      0.323855   626A      0.324610  
     627A      0.327334   628A      0.327802   629A      0.328600  
     630A      0.331158   631A      0.331376   632A      0.332020  
     633A      0.332736   634A      0.334195   635A      0.334317  
     636A      0.334633   637A      0.336961   638A      0.337970  
     639A      0.338356   640A      0.340028   641A      0.340800  
     642A      0.343259   643A      0.343927   644A      0.345440  
     645A      0.346543   646A      0.347043   647A      0.347207  
     648A      0.347591   649A      0.347878   650A      0.348184  
     651A      0.349037   652A      0.350108   653A      0.351093  
     654A      0.352087   655A      0.352313   656A      0.352679  
     657A      0.353356   658A      0.354745   659A      0.355523  
     660A      0.355942   661A      0.356450   662A      0.357065  
     663A      0.357678   664A      0.359768   665A      0.360357  
     666A      0.360840   667A      0.361461   668A      0.361638  
     669A      0.363527   670A      0.363765   671A      0.364575  
     672A      0.366346   673A      0.367039   674A      0.367855  
     675A      0.368375   676A      0.368738   677A      0.369149  
     678A      0.369975   679A      0.373156   680A      0.375035  
     681A      0.375618   682A      0.378440   683A      0.378665  
     684A      0.380450   685A      0.380678   686A      0.381433  
     687A      0.382194   688A      0.382778   689A      0.383048  
     690A      0.383534   691A      0.384286   692A      0.384873  
     693A      0.386031   694A      0.386906   695A      0.387659  
     696A      0.388042   697A      0.390525   698A      0.390779  
     699A      0.391870   700A      0.394403   701A      0.399116  
     702A      0.401390   703A      0.401531   704A      0.402772  
     705A      0.403502   706A      0.403894   707A      0.404079  
     708A      0.404625   709A      0.405693   710A      0.406857  
     711A      0.406899   712A      0.407188   713A      0.408646  
     714A      0.409156   715A      0.410710   716A      0.411530  
     717A      0.413223   718A      0.413690   719A      0.415726  
     720A      0.416508   721A      0.417752   722A      0.418308  
     723A      0.418599   724A      0.419094   725A      0.420052  
     726A      0.421421   727A      0.421991   728A      0.425754  
     729A      0.425819   730A      0.426218   731A      0.426707  
     732A      0.427585   733A      0.428784   734A      0.429962  
     735A      0.430004   736A      0.430985   737A      0.431086  
     738A      0.434114   739A      0.436276   740A      0.436318  
     741A      0.437278   742A      0.439402   743A      0.440999  
     744A      0.441453   745A      0.442643   746A      0.443315  
     747A      0.444734   748A      0.445070   749A      0.447480  
     750A      0.447947   751A      0.450263   752A      0.452284  
     753A      0.453344   754A      0.453693   755A      0.454760  
     756A      0.455217   757A      0.455484   758A      0.455860  
     759A      0.457044   760A      0.458131   761A      0.459951  
     762A      0.465909   763A      0.465938   764A      0.466166  
     765A      0.468246   766A      0.468691   767A      0.468970  
     768A      0.469059   769A      0.470613   770A      0.471424  
     771A      0.472697   772A      0.473890   773A      0.475552  
     774A      0.477390   775A      0.481222   776A      0.484105  
     777A      0.484247   778A      0.484363   779A      0.487809  
     780A      0.488887   781A      0.490588   782A      0.490790  
     783A      0.491912   784A      0.494565   785A      0.495781  
     786A      0.496434   787A      0.503728   788A      0.507456  
     789A      0.508755   790A      0.509511   791A      0.511870  
     792A      0.512536   793A      0.512792   794A      0.517643  
     795A      0.518025   796A      0.518522   797A      0.520772  
     798A      0.522558   799A      0.523184   800A      0.523359  
     801A      0.525184   802A      0.525895   803A      0.526419  
     804A      0.527839   805A      0.528632   806A      0.529087  
     807A      0.529208   808A      0.529799   809A      0.533548  
     810A      0.537150   811A      0.539236   812A      0.540164  
     813A      0.540219   814A      0.540819   815A      0.544270  
     816A      0.544869   817A      0.547945   818A      0.548103  
     819A      0.548256   820A      0.551950   821A      0.552972  
     822A      0.554450   823A      0.555424   824A      0.556331  
     825A      0.562672   826A      0.567277   827A      0.569502  
     828A      0.569577   829A      0.570607   830A      0.571030  
     831A      0.572886   832A      0.578004   833A      0.580729  
     834A      0.581535   835A      0.581720   836A      0.582531  
     837A      0.585286   838A      0.590928   839A      0.591728  
     840A      0.596476   841A      0.605349   842A      0.605563  
     843A      0.606966   844A      0.608850   845A      0.609680  
     846A      0.610221   847A      0.610393   848A      0.614717  
     849A      0.617498   850A      0.617676   851A      0.622942  
     852A      0.625002   853A      0.630262   854A      0.634818  
     855A      0.635649   856A      0.637643   857A      0.638097  
     858A      0.640419   859A      0.641007   860A      0.641436  
     861A      0.641886   862A      0.642460   863A      0.645532  
     864A      0.650364   865A      0.650739   866A      0.651172  
     867A      0.651504   868A      0.656746   869A      0.657325  
     870A      0.660961   871A      0.664320   872A      0.666803  
     873A      0.669897   874A      0.671935   875A      0.676426  
     876A      0.678668   877A      0.683088   878A      0.683243  
     879A      0.689636   880A      0.690280   881A      0.691887  
     882A      0.692478   883A      0.694885   884A      0.695553  
     885A      0.696512   886A      0.699411   887A      0.700911  
     888A      0.701028   889A      0.704362   890A      0.707520  
     891A      0.714177   892A      0.722193   893A      0.725259  
     894A      0.731658   895A      0.734283   896A      0.735068  
     897A      0.739081   898A      0.739755   899A      0.743244  
     900A      0.744396   901A      0.744901   902A      0.747394  
     903A      0.748807   904A      0.752411   905A      0.753299  
     906A      0.755915   907A      0.756940   908A      0.757456  
     909A      0.760023   910A      0.760569   911A      0.762684  
     912A      0.765534   913A      0.766656   914A      0.767964  
     915A      0.769426   916A      0.769762   917A      0.770175  
     918A      0.777422   919A      0.779327   920A      0.780305  
     921A      0.782489   922A      0.784313   923A      0.786055  
     924A      0.786314   925A      0.787287   926A      0.788435  
     927A      0.789924   928A      0.791398   929A      0.792879  
     930A      0.794274   931A      0.796609   932A      0.797024  
     933A      0.798879   934A      0.800949   935A      0.803816  
     936A      0.807228   937A      0.807538   938A      0.810360  
     939A      0.810809   940A      0.812287   941A      0.814168  
     942A      0.814564   943A      0.817774   944A      0.818907  
     945A      0.819711   946A      0.819925   947A      0.820482  
     948A      0.821898   949A      0.822711   950A      0.825360  
     951A      0.826563   952A      0.828403   953A      0.829234  
     954A      0.830442   955A      0.831569   956A      0.833928  
     957A      0.837057   958A      0.838262   959A      0.839139  
     960A      0.840355   961A      0.841400   962A      0.842161  
     963A      0.843654   964A      0.844085   965A      0.846858  
     966A      0.849164   967A      0.850439   968A      0.851002  
     969A      0.854191   970A      0.857963   971A      0.858297  
     972A      0.863282   973A      0.866407   974A      0.866951  
     975A      0.867628   976A      0.869956   977A      0.871031  
     978A      0.872623   979A      0.872891   980A      0.873092  
     981A      0.873419   982A      0.876014   983A      0.877336  
     984A      0.878279   985A      0.881319   986A      0.881621  
     987A      0.884010   988A      0.884500   989A      0.884926  
     990A      0.888751   991A      0.888929   992A      0.889372  
     993A      0.895166   994A      0.896917   995A      0.898310  
     996A      0.899556   997A      0.900330   998A      0.901134  
     999A      0.901410  1000A      0.902359  1001A      0.903230  
    1002A      0.904147  1003A      0.904442  1004A      0.907433  
    1005A      0.907816  1006A      0.908033  1007A      0.908609  
    1008A      0.915029  1009A      0.916414  1010A      0.916890  
    1011A      0.918875  1012A      0.919680  1013A      0.921445  
    1014A      0.924269  1015A      0.932217  1016A      0.933611  
    1017A      0.933719  1018A      0.937181  1019A      0.943625  
    1020A      0.944244  1021A      0.944584  1022A      0.944886  
    1023A      0.951052  1024A      0.951344  1025A      0.953162  
    1026A      0.954095  1027A      0.954987  1028A      0.955517  
    1029A      0.956050  1030A      0.958906  1031A      0.960561  
    1032A      0.962379  1033A      0.965501  1034A      0.966850  
    1035A      0.969151  1036A      0.969957  1037A      0.970850  
    1038A      0.971757  1039A      0.973257  1040A      0.973792  
    1041A      0.978194  1042A      0.980007  1043A      0.981686  
    1044A      0.981991  1045A      0.983885  1046A      0.986171  
    1047A      0.986834  1048A      0.987821  1049A      0.991358  
    1050A      0.995426  1051A      0.995621  1052A      0.996711  
    1053A      0.997198  1054A      0.997683  1055A      0.997737  
    1056A      0.998123  1057A      0.998611  1058A      1.002162  
    1059A      1.002984  1060A      1.003441  1061A      1.003978  
    1062A      1.004039  1063A      1.010666  1064A      1.011219  
    1065A      1.011514  1066A      1.014464  1067A      1.014847  
    1068A      1.016375  1069A      1.017414  1070A      1.017569  
    1071A      1.018602  1072A      1.019187  1073A      1.020058  
    1074A      1.020580  1075A      1.020905  1076A      1.021485  
    1077A      1.021755  1078A      1.022602  1079A      1.022977  
    1080A      1.023397  1081A      1.024165  1082A      1.025390  
    1083A      1.026694  1084A      1.027001  1085A      1.027450  
    1086A      1.027748  1087A      1.028521  1088A      1.028989  
    1089A      1.029534  1090A      1.030145  1091A      1.030471  
    1092A      1.030732  1093A      1.031265  1094A      1.032315  
    1095A      1.033094  1096A      1.033786  1097A      1.034425  
    1098A      1.036045  1099A      1.037386  1100A      1.038391  
    1101A      1.039522  1102A      1.039862  1103A      1.040254  
    1104A      1.042114  1105A      1.046593  1106A      1.046992  
    1107A      1.047803  1108A      1.048407  1109A      1.049946  
    1110A      1.050580  1111A      1.051310  1112A      1.051948  
    1113A      1.053905  1114A      1.054759  1115A      1.060462  
    1116A      1.062080  1117A      1.062871  1118A      1.069149  
    1119A      1.070111  1120A      1.070441  1121A      1.071588  
    1122A      1.071888  1123A      1.077656  1124A      1.078245  
    1125A      1.078546  1126A      1.080278  1127A      1.081296  
    1128A      1.083752  1129A      1.084083  1130A      1.084409  
    1131A      1.087641  1132A      1.087734  1133A      1.088705  
    1134A      1.092820  1135A      1.094243  1136A      1.095454  
    1137A      1.096449  1138A      1.098522  1139A      1.099784  
    1140A      1.100881  1141A      1.101665  1142A      1.104639  
    1143A      1.107331  1144A      1.107455  1145A      1.109695  
    1146A      1.111992  1147A      1.112972  1148A      1.113590  
    1149A      1.117819  1150A      1.118735  1151A      1.119885  
    1152A      1.120535  1153A      1.125887  1154A      1.125946  
    1155A      1.131083  1156A      1.134242  1157A      1.135514  
    1158A      1.136124  1159A      1.137963  1160A      1.138181  
    1161A      1.142081  1162A      1.143237  1163A      1.143374  
    1164A      1.151447  1165A      1.151982  1166A      1.152505  
    1167A      1.152755  1168A      1.155318  1169A      1.155489  
    1170A      1.156553  1171A      1.161361  1172A      1.161833  
    1173A      1.163253  1174A      1.165602  1175A      1.166285  
    1176A      1.169273  1177A      1.169691  1178A      1.172821  
    1179A      1.174083  1180A      1.175415  1181A      1.177597  
    1182A      1.178352  1183A      1.183864  1184A      1.184273  
    1185A      1.197593  1186A      1.197876  1187A      1.198900  
    1188A      1.202615  1189A      1.203405  1190A      1.205725  
    1191A      1.211215  1192A      1.212417  1193A      1.212622  
    1194A      1.214676  1195A      1.219221  1196A      1.220744  
    1197A      1.221421  1198A      1.222561  1199A      1.226890  
    1200A      1.235725  1201A      1.235921  1202A      1.239872  
    1203A      1.241306  1204A      1.241837  1205A      1.244036  
    1206A      1.245404  1207A      1.245675  1208A      1.247610  
    1209A      1.252383  1210A      1.253516  1211A      1.256268  
    1212A      1.256647  1213A      1.258598  1214A      1.260038  
    1215A      1.261963  1216A      1.263380  1217A      1.264586  
    1218A      1.270157  1219A      1.270418  1220A      1.270497  
    1221A      1.271150  1222A      1.272466  1223A      1.276534  
    1224A      1.277311  1225A      1.277895  1226A      1.280872  
    1227A      1.281617  1228A      1.285091  1229A      1.286030  
    1230A      1.286389  1231A      1.290294  1232A      1.290566  
    1233A      1.292477  1234A      1.294316  1235A      1.296544  
    1236A      1.297142  1237A      1.299242  1238A      1.306202  
    1239A      1.306238  1240A      1.308128  1241A      1.308537  
    1242A      1.311493  1243A      1.313864  1244A      1.314151  
    1245A      1.318400  1246A      1.319034  1247A      1.321223  
    1248A      1.322960  1249A      1.324024  1250A      1.324585  
    1251A      1.334431  1252A      1.337138  1253A      1.337830  
    1254A      1.341024  1255A      1.344790  1256A      1.345445  
    1257A      1.345792  1258A      1.345987  1259A      1.350366  
    1260A      1.356166  1261A      1.357074  1262A      1.357995  
    1263A      1.358166  1264A      1.358459  1265A      1.358894  
    1266A      1.363032  1267A      1.363256  1268A      1.364451  
    1269A      1.364730  1270A      1.371367  1271A      1.372349  
    1272A      1.373589  1273A      1.374211  1274A      1.376883  
    1275A      1.377112  1276A      1.377314  1277A      1.378428  
    1278A      1.380886  1279A      1.381848  1280A      1.385172  
    1281A      1.386727  1282A      1.387604  1283A      1.389744  
    1284A      1.389823  1285A      1.394569  1286A      1.396765  
    1287A      1.397769  1288A      1.399250  1289A      1.400081  
    1290A      1.400503  1291A      1.402814  1292A      1.404614  
    1293A      1.412941  1294A      1.413299  1295A      1.419301  
    1296A      1.419831  1297A      1.420186  1298A      1.421363  
    1299A      1.422063  1300A      1.429060  1301A      1.433862  
    1302A      1.434380  1303A      1.435685  1304A      1.436409  
    1305A      1.440997  1306A      1.445908  1307A      1.446198  
    1308A      1.449114  1309A      1.453439  1310A      1.455578  
    1311A      1.456058  1312A      1.466558  1313A      1.467136  
    1314A      1.478172  1315A      1.488568  1316A      1.490104  
    1317A      1.490377  1318A      1.490742  1319A      1.493559  
    1320A      1.502907  1321A      1.502952  1322A      1.515610  
    1323A      1.531165  1324A      1.532993  1325A      1.542720  
    1326A      1.543011  1327A      1.547744  1328A      1.550944  
    1329A      1.553160  1330A      1.554119  1331A      1.554842  
    1332A      1.556387  1333A      1.556963  1334A      1.560044  
    1335A      1.560425  1336A      1.560902  1337A      1.563735  
    1338A      1.564242  1339A      1.564643  1340A      1.565397  
    1341A      1.566146  1342A      1.568979  1343A      1.569936  
    1344A      1.570414  1345A      1.572762  1346A      1.573989  
    1347A      1.575977  1348A      1.576431  1349A      1.576753  
    1350A      1.579901  1351A      1.580258  1352A      1.584776  
    1353A      1.584934  1354A      1.585345  1355A      1.586659  
    1356A      1.587294  1357A      1.588069  1358A      1.588098  
    1359A      1.589267  1360A      1.590294  1361A      1.591485  
    1362A      1.592880  1363A      1.594913  1364A      1.601408  
    1365A      1.601806  1366A      1.602085  1367A      1.606146  
    1368A      1.606410  1369A      1.606783  1370A      1.613717  
    1371A      1.614304  1372A      1.617389  1373A      1.617471  
    1374A      1.617881  1375A      1.618428  1376A      1.618715  
    1377A      1.619227  1378A      1.620639  1379A      1.626421  
    1380A      1.626927  1381A      1.627417  1382A      1.628215  
    1383A      1.632129  1384A      1.637528  1385A      1.638898  
    1386A      1.642419  1387A      1.645407  1388A      1.645638  
    1389A      1.646289  1390A      1.647082  1391A      1.649301  
    1392A      1.659181  1393A      1.659357  1394A      1.659761  
    1395A      1.664224  1396A      1.665907  1397A      1.666086  
    1398A      1.669009  1399A      1.670589  1400A      1.671740  
    1401A      1.671896  1402A      1.674268  1403A      1.674478  
    1404A      1.675371  1405A      1.682427  1406A      1.686972  
    1407A      1.687880  1408A      1.693945  1409A      1.695845  
    1410A      1.697671  1411A      1.697794  1412A      1.699922  
    1413A      1.700740  1414A      1.708319  1415A      1.713358  
    1416A      1.715091  1417A      1.718265  1418A      1.729784  
    1419A      1.735975  1420A      1.738072  1421A      1.738383  
    1422A      1.745818  1423A      1.751696  1424A      1.751948  
    1425A      1.758973  1426A      1.759655  1427A      1.761846  
    1428A      1.767250  1429A      1.769271  1430A      1.771760  
    1431A      1.773513  1432A      1.776568  1433A      1.777310  
    1434A      1.777919  1435A      1.779965  1436A      1.780908  
    1437A      1.782736  1438A      1.783117  1439A      1.786264  
    1440A      1.786458  1441A      1.786715  1442A      1.787507  
    1443A      1.793506  1444A      1.794960  1445A      1.796395  
    1446A      1.806578  1447A      1.806675  1448A      1.810123  
    1449A      1.810457  1450A      1.812676  1451A      1.812811  
    1452A      1.814776  1453A      1.815149  1454A      1.819674  
    1455A      1.820722  1456A      1.822295  1457A      1.822927  
    1458A      1.823470  1459A      1.824301  1460A      1.825665  
    1461A      1.830821  1462A      1.831385  1463A      1.832358  
    1464A      1.833015  1465A      1.833896  1466A      1.834288  
    1467A      1.834492  1468A      1.835409  1469A      1.836359  
    1470A      1.839011  1471A      1.839480  1472A      1.852950  
    1473A      1.853171  1474A      1.855684  1475A      1.856012  
    1476A      1.857614  1477A      1.861007  1478A      1.864750  
    1479A      1.865497  1480A      1.866606  1481A      1.870298  
    1482A      1.871144  1483A      1.871432  1484A      1.871948  
    1485A      1.874040  1486A      1.874733  1487A      1.875468  
    1488A      1.881026  1489A      1.881345  1490A      1.886970  
    1491A      1.887443  1492A      1.888338  1493A      1.889004  
    1494A      1.889701  1495A      1.889839  1496A      1.892048  
    1497A      1.893251  1498A      1.894088  1499A      1.895781  
    1500A      1.901023  1501A      1.902909  1502A      1.904719  
    1503A      1.907632  1504A      1.908267  1505A      1.908748  
    1506A      1.910005  1507A      1.910631  1508A      1.911113  
    1509A      1.911749  1510A      1.916891  1511A      1.918364  
    1512A      1.919531  1513A      1.920897  1514A      1.922047  
    1515A      1.922995  1516A      1.930125  1517A      1.931451  
    1518A      1.934642  1519A      1.938941  1520A      1.941538  
    1521A      1.941805  1522A      1.943238  1523A      1.943617  
    1524A      1.944876  1525A      1.956241  1526A      1.956991  
    1527A      1.958578  1528A      1.961353  1529A      1.961747  
    1530A      1.962415  1531A      1.965803  1532A      1.966045  
    1533A      1.966638  1534A      1.967576  1535A      1.968950  
    1536A      1.969424  1537A      1.970330  1538A      1.971023  
    1539A      1.974007  1540A      1.977653  1541A      1.979551  
    1542A      1.980326  1543A      1.982375  1544A      1.983256  
    1545A      1.985258  1546A      1.989157  1547A      1.991528  
    1548A      1.992064  1549A      1.996822  1550A      1.999457  
    1551A      2.001562  1552A      2.002910  1553A      2.005508  
    1554A      2.006006  1555A      2.008212  1556A      2.008848  
    1557A      2.009615  1558A      2.010118  1559A      2.015909  
    1560A      2.017313  1561A      2.018467  1562A      2.018950  
    1563A      2.020332  1564A      2.024980  1565A      2.027827  
    1566A      2.028916  1567A      2.030038  1568A      2.030258  
    1569A      2.031671  1570A      2.032392  1571A      2.032635  
    1572A      2.033047  1573A      2.036188  1574A      2.037783  
    1575A      2.038259  1576A      2.039464  1577A      2.040727  
    1578A      2.041440  1579A      2.041799  1580A      2.043309  
    1581A      2.044084  1582A      2.045965  1583A      2.046699  
    1584A      2.047357  1585A      2.047643  1586A      2.050697  
    1587A      2.051105  1588A      2.052000  1589A      2.053711  
    1590A      2.056572  1591A      2.059514  1592A      2.060995  
    1593A      2.061147  1594A      2.062133  1595A      2.062952  
    1596A      2.063924  1597A      2.066196  1598A      2.067867  
    1599A      2.069279  1600A      2.075014  1601A      2.076097  
    1602A      2.076273  1603A      2.076850  1604A      2.077300  
    1605A      2.077963  1606A      2.078129  1607A      2.079263  
    1608A      2.080335  1609A      2.084454  1610A      2.084826  
    1611A      2.085925  1612A      2.086526  1613A      2.091875  
    1614A      2.092096  1615A      2.093870  1616A      2.094667  
    1617A      2.095392  1618A      2.102624  1619A      2.104061  
    1620A      2.104321  1621A      2.106126  1622A      2.107473  
    1623A      2.108420  1624A      2.109238  1625A      2.109398  
    1626A      2.110286  1627A      2.113562  1628A      2.113814  
    1629A      2.121086  1630A      2.121415  1631A      2.129626  
    1632A      2.130457  1633A      2.131822  1634A      2.132472  
    1635A      2.137830  1636A      2.138153  1637A      2.139713  
    1638A      2.139988  1639A      2.141537  1640A      2.143448  
    1641A      2.145901  1642A      2.146847  1643A      2.147473  
    1644A      2.148734  1645A      2.149605  1646A      2.150732  
    1647A      2.151191  1648A      2.152983  1649A      2.154138  
    1650A      2.155774  1651A      2.157530  1652A      2.159162  
    1653A      2.163577  1654A      2.163929  1655A      2.169495  
    1656A      2.171058  1657A      2.173137  1658A      2.173547  
    1659A      2.173774  1660A      2.173952  1661A      2.175249  
    1662A      2.178784  1663A      2.182559  1664A      2.183573  
    1665A      2.184988  1666A      2.186596  1667A      2.187953  
    1668A      2.188170  1669A      2.191781  1670A      2.196284  
    1671A      2.197043  1672A      2.198800  1673A      2.199519  
    1674A      2.210651  1675A      2.212204  1676A      2.213304  
    1677A      2.214418  1678A      2.216108  1679A      2.217401  
    1680A      2.221502  1681A      2.224393  1682A      2.233180  
    1683A      2.234431  1684A      2.235351  1685A      2.240779  
    1686A      2.242167  1687A      2.245741  1688A      2.247235  
    1689A      2.254035  1690A      2.254617  1691A      2.259183  
    1692A      2.259834  1693A      2.262870  1694A      2.273323  
    1695A      2.274848  1696A      2.275120  1697A      2.277228  
    1698A      2.279077  1699A      2.280854  1700A      2.281239  
    1701A      2.282136  1702A      2.283193  1703A      2.284846  
    1704A      2.288494  1705A      2.291255  1706A      2.291970  
    1707A      2.292267  1708A      2.294506  1709A      2.295134  
    1710A      2.295880  1711A      2.297948  1712A      2.298370  
    1713A      2.306128  1714A      2.315855  1715A      2.320294  
    1716A      2.320972  1717A      2.334101  1718A      2.336234  
    1719A      2.337764  1720A      2.339178  1721A      2.340802  
    1722A      2.342182  1723A      2.345562  1724A      2.346103  
    1725A      2.368340  1726A      2.369482  1727A      2.372965  
    1728A      2.377641  1729A      2.381086  1730A      2.391372  
    1731A      2.393174  1732A      2.401214  1733A      2.402553  
    1734A      2.414401  1735A      2.414510  1736A      2.417891  
    1737A      2.418081  1738A      2.422262  1739A      2.422551  
    1740A      2.441815  1741A      2.442238  1742A      2.443806  
    1743A      2.452382  1744A      2.454273  1745A      2.457363  
    1746A      2.457975  1747A      2.462126  1748A      2.467184  
    1749A      2.471920  1750A      2.488645  1751A      2.488843  
    1752A      2.490243  1753A      2.492334  1754A      2.492996  
    1755A      2.494423  1756A      2.497673  1757A      2.498799  
    1758A      2.499992  1759A      2.501664  1760A      2.505270  
    1761A      2.505453  1762A      2.507547  1763A      2.513951  
    1764A      2.521201  1765A      2.522928  1766A      2.531523  
    1767A      2.535212  1768A      2.535384  1769A      2.535842  
    1770A      2.536654  1771A      2.540267  1772A      2.540685  
    1773A      2.543382  1774A      2.545695  1775A      2.551789  
    1776A      2.551946  1777A      2.562990  1778A      2.563230  
    1779A      2.563566  1780A      2.564074  1781A      2.567229  
    1782A      2.567796  1783A      2.581781  1784A      2.583306  
    1785A      2.590319  1786A      2.591338  1787A      2.593509  
    1788A      2.595078  1789A      2.597669  1790A      2.598231  
    1791A      2.599362  1792A      2.603581  1793A      2.606751  
    1794A      2.606917  1795A      2.613732  1796A      2.614708  
    1797A      2.615490  1798A      2.618425  1799A      2.621149  
    1800A      2.622198  1801A      2.622695  1802A      2.627871  
    1803A      2.628726  1804A      2.634418  1805A      2.635375  
    1806A      2.636837  1807A      2.640745  1808A      2.641037  
    1809A      2.641255  1810A      2.642520  1811A      2.645630  
    1812A      2.645863  1813A      2.647209  1814A      2.653716  
    1815A      2.670381  1816A      2.671428  1817A      2.680417  
    1818A      2.680470  1819A      2.681327  1820A      2.682995  
    1821A      2.683235  1822A      2.685934  1823A      2.689139  
    1824A      2.697375  1825A      2.702811  1826A      2.708496  
    1827A      2.709223  1828A      2.714945  1829A      2.720553  
    1830A      2.724206  1831A      2.728925  1832A      2.729557  
    1833A      2.745365  1834A      2.747755  1835A      2.748808  
    1836A      2.750062  1837A      2.751195  1838A      2.751291  
    1839A      2.755891  1840A      2.757775  1841A      2.759883  
    1842A      2.763695  1843A      2.763783  1844A      2.765302  
    1845A      2.765937  1846A      2.776534  1847A      2.776835  
    1848A      2.789569  1849A      2.789717  1850A      2.790999  
    1851A      2.791226  1852A      2.795344  1853A      2.803140  
    1854A      2.808863  1855A      2.814279  1856A      2.814671  
    1857A      2.820247  1858A      2.821388  1859A      2.823906  
    1860A      2.843806  1861A      2.844720  1862A      2.860755  
    1863A      2.868846  1864A      2.868998  1865A      2.878797  
    1866A      2.880867  1867A      2.885596  1868A      2.885726  
    1869A      2.913472  1870A      2.915660  1871A      2.916211  
    1872A      2.925787  1873A      2.926768  1874A      2.942544  
    1875A      2.942839  1876A      2.978796  1877A      2.979570  
    1878A      2.984337  1879A      2.986039  1880A      2.989457  
    1881A      2.996654  1882A      2.997430  1883A      2.999349  
    1884A      3.006921  1885A      3.007058  1886A      3.015669  
    1887A      3.022777  1888A      3.055364  1889A      3.059602  
    1890A      3.063893  1891A      3.064206  1892A      3.072450  
    1893A      3.073075  1894A      3.076792  1895A      3.077484  
    1896A      3.082563  1897A      3.084188  1898A      3.092742  
    1899A      3.093892  1900A      3.097972  1901A      3.098394  
    1902A      3.100317  1903A      3.101125  1904A      3.104691  
    1905A      3.113591  1906A      3.116346  1907A      3.124204  
    1908A      3.126046  1909A      3.126312  1910A      3.144145  
    1911A      3.144923  1912A      3.171473  1913A      3.203157  
    1914A      3.209965  1915A      3.210747  1916A      3.211008  
    1917A      3.211973  1918A      3.214233  1919A      3.218292  
    1920A      3.221721  1921A      3.225135  1922A      3.225680  
    1923A      3.242804  1924A      3.244528  1925A      3.245020  
    1926A      3.252596  1927A      3.310087  1928A      3.311168  
    1929A      3.318775  1930A      3.364315  1931A      3.378369  
    1932A      3.380595  1933A      3.383308  1934A      3.392769  
    1935A      3.397437  1936A      3.408691  1937A      3.413071  
    1938A      3.414014  1939A      3.419732  1940A      3.422449  
    1941A      3.429241  1942A      3.434063  1943A      3.441935  
    1944A      3.447639  1945A      3.457704  1946A      3.487534  
    1947A      3.523260  1948A      3.524945  1949A      3.531677  
    1950A      3.536604  1951A      3.539826  1952A      3.586868  
    1953A      3.587613  1954A      3.613594  1955A      3.616436  
    1956A      3.654136  1957A      3.695841  1958A      3.699145  
    1959A      3.700026  1960A      3.711314  1961A      3.727245  
    1962A      3.728936  1963A      3.791960  1964A      3.793024  
    1965A      3.821457  1966A      3.824439  1967A      3.854117  
    1968A      3.861999  1969A      3.885747  1970A      3.887755  
    1971A      3.897861  1972A      3.898950  1973A      3.907323  
    1974A      3.912158  1975A      3.919082  1976A      3.973222  
    1977A      3.975780  1978A      4.018623  1979A      4.175851  
    1980A      4.248035  1981A      4.339557  

    Final Occupation by Irrep:
              A 
    DOCC [   326 ]
    NA   [   326 ]
    NB   [   326 ]

  @DF-RHF Final Energy: -3953.64509530524356

   => Energetics <=

    Nuclear Repulsion Energy =          17604.4206911077271798
    One-Electron Energy =              -40421.8195632007191307
    Two-Electron Energy =               18863.7537767877474835
    Total Energy =                      -3953.6450953052444675

Computation Completed


Properties will be evaluated at   0.000000,   0.000000,   0.000000 [a0]

Properties computed using the SCF density matrix


 Multipole Moments:

 ------------------------------------------------------------------------------------
     Multipole            Electronic (a.u.)      Nuclear  (a.u.)        Total (a.u.)
 ------------------------------------------------------------------------------------

 L = 1.  Multiply by 2.5417464519 to convert [e a0] to [Debye]
 Dipole X            :         -0.0023164            0.0004804           -0.0018360
 Dipole Y            :         -6.7889812            8.7122315            1.9232503
 Dipole Z            :         33.3009841          -45.4847583          -12.1837742
 Magnitude           :                                                   12.3346362

 ------------------------------------------------------------------------------------

*** tstop() called on n2cn0573.ab2021.local at Sat Jan 27 01:48:18 2024
Module time:
	user time   =   27183.47 seconds =     453.06 minutes
	system time =    2209.64 seconds =      36.83 minutes
	total time  =       5626 seconds =      93.77 minutes
Total time:
	user time   =   27183.47 seconds =     453.06 minutes
	system time =    2209.64 seconds =      36.83 minutes
	total time  =       5626 seconds =      93.77 minutes

  //>>>>>>>>>>>>>>>>>>>>>>>>>>>>>>>>>>>//
  //            Monomer A HF           //
  //<<<<<<<<<<<<<<<<<<<<<<<<<<<<<<<<<<<//

   => Libint2 <=

    Primary   basis highest AM E, G, H:  5, 4, 3
    Auxiliary basis highest AM E, G, H:  6, 5, 4
    Onebody   basis highest AM E, G, H:  6, 5, 4
    Solid Harmonics ordering:            gaussian

*** tstart() called on n2cn0573.ab2021.local
*** at Sat Jan 27 01:48:18 2024

   => Loading Basis Set <=

    Name: JUN-CC-PVDZ
    Role: ORBITAL
    Keyword: BASIS
    atoms 1-2, 4-5, 10, 17-34, 41-53, 56-70, 73-89, 92-104, 109-119, 122-130 entry C          line   164 file /opt/software/pc2/EB-SW/software/PSI4/1.9-foss-2022a/share/psi4/basis/jun-cc-pvdz.gbs 
    atoms 3, 6                                                               entry N          line   198 file /opt/software/pc2/EB-SW/software/PSI4/1.9-foss-2022a/share/psi4/basis/jun-cc-pvdz.gbs 
    atoms 7-9, 11-16, 35-40, 54-55, 71-72, 90-91, 105-108, 120-121, 131-136  entry H          line    36 file /opt/software/pc2/EB-SW/software/PSI4/1.9-foss-2022a/share/psi4/basis/jun-cc-pvdz.gbs 


         ---------------------------------------------------------
                                   SCF
               by Justin Turney, Rob Parrish, Andy Simmonett
                          and Daniel G. A. Smith
                              RHF Reference
                       16 Threads,  61035 MiB Core
         ---------------------------------------------------------

  ==> Geometry <==

    Molecular point group: c1
    Full point group: C1

    Geometry (in Angstrom), charge = 1, multiplicity = 1:

       Center              X                  Y                   Z               Mass       
    ------------   -----------------  -----------------  -----------------  -----------------
         C            0.680062820275     1.308604348936    -8.421245028230    12.000000000000
         C           -0.680508179725     1.310632348936    -8.420861028230    12.000000000000
         N           -1.085639179725     1.311630348936    -7.102537028230    14.003074004430
[...]
    1579A      2.162441  1580A      2.162864  1581A      2.171078  
    1582A      2.171457  1583A      2.173615  1584A      2.179706  
    1585A      2.180957  1586A      2.181232  1587A      2.182362  
    1588A      2.188226  1589A      2.188645  1590A      2.189634  
    1591A      2.191116  1592A      2.191572  1593A      2.192705  
    1594A      2.195059  1595A      2.196484  1596A      2.197607  
    1597A      2.198282  1598A      2.200357  1599A      2.200590  
    1600A      2.200831  1601A      2.201315  1602A      2.203305  
    1603A      2.204388  1604A      2.205519  1605A      2.209187  
    1606A      2.213722  1607A      2.214015  1608A      2.215963  
    1609A      2.220143  1610A      2.222209  1611A      2.222709  
    1612A      2.224237  1613A      2.224753  1614A      2.224811  
    1615A      2.228782  1616A      2.232027  1617A      2.232295  
    1618A      2.233251  1619A      2.238715  1620A      2.238876  
    1621A      2.239482  1622A      2.239951  1623A      2.241603  
    1624A      2.247629  1625A      2.248049  1626A      2.248509  
    1627A      2.249039  1628A      2.260433  1629A      2.261472  
    1630A      2.263347  1631A      2.264900  1632A      2.266528  
    1633A      2.269569  1634A      2.269938  1635A      2.275355  
    1636A      2.279839  1637A      2.282803  1638A      2.284270  
    1639A      2.290198  1640A      2.290974  1641A      2.296329  
    1642A      2.296784  1643A      2.300739  1644A      2.303730  
    1645A      2.304143  1646A      2.309046  1647A      2.314662  
    1648A      2.321423  1649A      2.324472  1650A      2.324871  
    1651A      2.325192  1652A      2.327098  1653A      2.329367  
    1654A      2.330553  1655A      2.331076  1656A      2.332989  
    1657A      2.334320  1658A      2.335072  1659A      2.339661  
    1660A      2.341323  1661A      2.342084  1662A      2.342331  
    1663A      2.344457  1664A      2.345144  1665A      2.345766  
    1666A      2.346247  1667A      2.346442  1668A      2.349072  
    1669A      2.349402  1670A      2.368002  1671A      2.372375  
    1672A      2.372873  1673A      2.383608  1674A      2.387966  
    1675A      2.389212  1676A      2.390448  1677A      2.391605  
    1678A      2.393051  1679A      2.396957  1680A      2.418310  
    1681A      2.419492  1682A      2.423475  1683A      2.427513  
    1684A      2.431868  1685A      2.441525  1686A      2.443286  
    1687A      2.446738  1688A      2.450454  1689A      2.452292  
    1690A      2.453058  1691A      2.458903  1692A      2.464270  
    1693A      2.464333  1694A      2.467693  1695A      2.467980  
    1696A      2.470984  1697A      2.471907  1698A      2.472161  
    1699A      2.478128  1700A      2.491002  1701A      2.491377  
    1702A      2.494566  1703A      2.501701  1704A      2.505920  
    1705A      2.506986  1706A      2.511445  1707A      2.512459  
    1708A      2.516198  1709A      2.539063  1710A      2.539147  
    1711A      2.540081  1712A      2.542038  1713A      2.542729  
    1714A      2.545165  1715A      2.547616  1716A      2.548424  
    1717A      2.549175  1718A      2.551107  1719A      2.556521  
    1720A      2.556670  1721A      2.564195  1722A      2.571085  
    1723A      2.571588  1724A      2.579422  1725A      2.579961  
    1726A      2.583650  1727A      2.584181  1728A      2.585065  
    1729A      2.586224  1730A      2.588480  1731A      2.588787  
    1732A      2.593194  1733A      2.593491  1734A      2.601268  
    1735A      2.601432  1736A      2.612706  1737A      2.612904  
    1738A      2.613225  1739A      2.613687  1740A      2.616992  
    1741A      2.617433  1742A      2.632706  1743A      2.635677  
    1744A      2.640524  1745A      2.641465  1746A      2.643620  
    1747A      2.645390  1748A      2.647205  1749A      2.647950  
    1750A      2.648683  1751A      2.649207  1752A      2.652476  
    1753A      2.652903  1754A      2.655734  1755A      2.656112  
    1756A      2.660847  1757A      2.665983  1758A      2.666085  
    1759A      2.667535  1760A      2.670410  1761A      2.670566  
    1762A      2.673548  1763A      2.675987  1764A      2.677241  
    1765A      2.677556  1766A      2.684482  1767A      2.685586  
    1768A      2.687161  1769A      2.691159  1770A      2.691222  
    1771A      2.691549  1772A      2.692378  1773A      2.696036  
    1774A      2.697268  1775A      2.704144  1776A      2.720682  
    1777A      2.730699  1778A      2.730778  1779A      2.730941  
    1780A      2.731347  1781A      2.731622  1782A      2.739530  
    1783A      2.749408  1784A      2.752659  1785A      2.760193  
    1786A      2.760821  1787A      2.768381  1788A      2.772423  
    1789A      2.775863  1790A      2.779670  1791A      2.780236  
    1792A      2.799064  1793A      2.799846  1794A      2.801469  
    1795A      2.802157  1796A      2.802198  1797A      2.806782  
    1798A      2.809878  1799A      2.811460  1800A      2.814987  
    1801A      2.815246  1802A      2.816002  1803A      2.816161  
    1804A      2.828045  1805A      2.828269  1806A      2.838104  
    1807A      2.840112  1808A      2.840578  1809A      2.841631  
    1810A      2.841727  1811A      2.845641  1812A      2.859969  
    1813A      2.865060  1814A      2.865366  1815A      2.869993  
    1816A      2.871285  1817A      2.874308  1818A      2.877795  
    1819A      2.891878  1820A      2.895887  1821A      2.896774  
    1822A      2.911155  1823A      2.912864  1824A      2.917635  
    1825A      2.917806  1826A      2.924799  1827A      2.927405  
    1828A      2.929643  1829A      2.934795  1830A      2.934893  
    1831A      2.950014  1832A      2.963066  1833A      2.964721  
    1834A      2.965287  1835A      2.973968  1836A      2.976155  
    1837A      2.991887  1838A      2.992389  1839A      3.000009  
    1840A      3.012249  1841A      3.029127  1842A      3.029973  
    1843A      3.035431  1844A      3.038506  1845A      3.040856  
    1846A      3.046804  1847A      3.047521  1848A      3.048019  
    1849A      3.057470  1850A      3.057632  1851A      3.063323  
    1852A      3.072837  1853A      3.108596  1854A      3.112847  
    1855A      3.113084  1856A      3.122422  1857A      3.127082  
    1858A      3.127666  1859A      3.132481  1860A      3.134164  
    1861A      3.141971  1862A      3.142662  1863A      3.143072  
    1864A      3.148355  1865A      3.148786  1866A      3.149451  
    1867A      3.150065  1868A      3.153514  1869A      3.162160  
    1870A      3.167718  1871A      3.173147  1872A      3.174913  
    1873A      3.175118  1874A      3.193111  1875A      3.193852  
    1876A      3.220062  1877A      3.252845  1878A      3.259419  
    1879A      3.260720  1880A      3.261397  1881A      3.261956  
    1882A      3.264234  1883A      3.268081  1884A      3.271214  
    1885A      3.274589  1886A      3.275346  1887A      3.286579  
    1888A      3.292885  1889A      3.294813  1890A      3.295512  
    1891A      3.302400  1892A      3.308473  1893A      3.320314  
    1894A      3.361122  1895A      3.362154  1896A      3.369936  
    1897A      3.404077  1898A      3.415535  1899A      3.429902  
    1900A      3.432151  1901A      3.436946  1902A      3.444935  
    1903A      3.449655  1904A      3.460888  1905A      3.464451  
    1906A      3.465384  1907A      3.471056  1908A      3.473868  
    1909A      3.480601  1910A      3.485928  1911A      3.493546  
    1912A      3.509066  1913A      3.524064  1914A      3.539342  
    1915A      3.569851  1916A      3.574341  1917A      3.576038  
    1918A      3.582802  1919A      3.589910  1920A      3.638055  
    1921A      3.638787  1922A      3.644838  1923A      3.664701  
    1924A      3.666742  1925A      3.704992  1926A      3.747536  
    1927A      3.749218  1928A      3.750468  1929A      3.757541  
    1930A      3.763216  1931A      3.778614  1932A      3.779216  
    1933A      3.815867  1934A      3.841891  1935A      3.843267  
    1936A      3.868043  1937A      3.871437  1938A      3.874582  
    1939A      3.904592  1940A      3.912903  1941A      3.937704  
    1942A      3.939884  1943A      3.948179  1944A      3.949128  
    1945A      3.958399  1946A      3.960888  1947A      3.964393  
    1948A      3.970677  1949A      4.024613  1950A      4.027413  
    1951A      4.070848  1952A      4.205763  1953A      4.209335  
    1954A      4.229042  1955A      4.301622  1956A      4.346360  
    1957A      4.360496  1958A      4.393017  1959A      4.486476  
    1960A      4.736838  1961A      4.775034  1962A      4.830502  
    1963A      4.846339  1964A      4.935750  1965A      5.050790  
    1966A      5.056752  1967A      5.066042  1968A      5.110614  
    1969A      5.132302  1970A      5.391839  1971A      5.422138  
    1972A      5.732239  1973A      5.755854  1974A      6.067277  
    1975A     18.198448  1976A     18.454269  1977A     18.471379  
    1978A     18.559273  1979A     18.831102  1980A     25.338892  
    1981A     25.374844  

    Final Occupation by Irrep:
              A 
    DOCC [   300 ]
    NA   [   300 ]
    NB   [   300 ]

  @DF-RHF Final Energy: -3650.33767927242934

   => Energetics <=

    Nuclear Repulsion Energy =          15611.4211649754306563
    One-Electron Energy =              -36072.0781968388109817
    Two-Electron Energy =               16810.3193525909518939
    Total Energy =                      -3650.3376792724302504

Computation Completed


Properties will be evaluated at   0.000000,   0.000000,   0.000000 [a0]

Properties computed using the SCF density matrix


 Multipole Moments:

 ------------------------------------------------------------------------------------
     Multipole            Electronic (a.u.)      Nuclear  (a.u.)        Total (a.u.)
 ------------------------------------------------------------------------------------

 L = 1.  Multiply by 2.5417464519 to convert [e a0] to [Debye]
 Dipole X            :         -0.0009294            0.0002112           -0.0007182
 Dipole Y            :        123.2131218         -123.2131634           -0.0000416
 Dipole Z            :       -674.2740732          674.2772946            0.0032215
 Magnitude           :                                                    0.0033008

 ------------------------------------------------------------------------------------

*** tstop() called on n2cn0573.ab2021.local at Sat Jan 27 03:26:15 2024
Module time:
	user time   =   19478.16 seconds =     324.64 minutes
	system time =    1709.93 seconds =      28.50 minutes
	total time  =       3699 seconds =      61.65 minutes
Total time:
	user time   =   52759.21 seconds =     879.32 minutes
	system time =    4503.40 seconds =      75.06 minutes
	total time  =      11503 seconds =     191.72 minutes
  Constructing Basis Sets for SAPT...

   => Loading Basis Set <=

    Name: (JUN-CC-PVDZ AUX)
    Role: RIFIT
    Keyword: DF_BASIS_SAPT
    atoms 1-2, 4-5, 10, 17-34, 41-53, 56-70, 73-89, 92-104, 109-119, 122-130 entry C          line   100 file /opt/software/pc2/EB-SW/software/PSI4/1.9-foss-2022a/share/psi4/basis/jun-cc-pvdz-ri.gbs 
    atoms 3, 6                                                               entry N          line   144 file /opt/software/pc2/EB-SW/software/PSI4/1.9-foss-2022a/share/psi4/basis/jun-cc-pvdz-ri.gbs 
    atoms 7-9, 11-16, 35-40, 54-55, 71-72, 90-91, 105-108, 120-121, 131-136  entry H          line    30 file /opt/software/pc2/EB-SW/software/PSI4/1.9-foss-2022a/share/psi4/basis/jun-cc-pvdz-ri.gbs 

   => Loading Basis Set <=

    Name: (JUN-CC-PVDZ AUX)
    Role: JKFIT
    Keyword: DF_BASIS_ELST
    atoms 1-2, 4-5, 10, 17-34, 41-53, 56-70, 73-89, 92-104, 109-119, 122-130 entry C          line   146 file /opt/software/pc2/EB-SW/software/PSI4/1.9-foss-2022a/share/psi4/basis/jun-cc-pvdz-jkfit.gbs 
    atoms 3, 6                                                               entry N          line   202 file /opt/software/pc2/EB-SW/software/PSI4/1.9-foss-2022a/share/psi4/basis/jun-cc-pvdz-jkfit.gbs 
    atoms 7-9, 11-16, 35-40, 54-55, 71-72, 90-91, 105-108, 120-121, 131-136  entry H          line    70 file /opt/software/pc2/EB-SW/software/PSI4/1.9-foss-2022a/share/psi4/basis/jun-cc-pvdz-jkfit.gbs 


  //>>>>>>>>>>>>>>>>>>>>>>>>>>>>>>>>>>>//
  //               SSAPT0              //
  //<<<<<<<<<<<<<<<<<<<<<<<<<<<<<<<<<<<//


*** tstart() called on n2cn0573.ab2021.local
*** at Sat Jan 27 03:26:17 2024

        SAPT0  
    Ed Hohenstein
     6 June 2009

      Orbital Information
  --------------------------
    NSO        =      2019
    NMO        =      1981
    NRI        =      7157
    NRI (Elst) =      8896
    NOCC A     =        26
    NOCC B     =       300
    FOCC A     =         7
    FOCC B     =        96
    NVIR A     =      1955
    NVIR B     =      1681

    Elst10,r            =    -0.007550831435 [Eh]
    Exch10              =    -0.000000236155 [Eh]
    Exch10 (S^2)        =    -0.000000236155 [Eh]

    Iter     Energy [mEh]          dE [mEh]         Residual      Time [s]
       1      -0.01284030       0.012840305       1.072751860           326
       2      -0.01214076      -0.000699543       0.276625268           771
       3      -0.01333729       0.001196530       0.075598624          1095
       4      -0.01341018       0.000072890       0.034106777          1470
       5      -0.01335612      -0.000054059       0.010886746          1738
       6      -0.01335547      -0.000000656       0.003482788          2020
       7      -0.01335946       0.000003996       0.001124954          2293
       8      -0.01336013       0.000000667       0.000315378          2541
       9      -0.01335996      -0.000000171       0.000110488          2844
      10      -0.01335987      -0.000000086       0.000029759          3095
      11      -0.01335988       0.000000006       0.000008181          3356
      12      -0.01335989       0.000000005       0.000002552          3636
      13      -0.01335989       0.000000001       0.000000845          3878

    CHF Iterations converged


    Iter     Energy [mEh]          dE [mEh]         Residual      Time [s]
       1      -3.94332729       3.943327293      34.160079561           398
       2      -2.55908232      -1.384244970       4.010541322           653
       3      -2.54907451      -0.010007808       1.393498058           931
       4      -2.59741966       0.048345141       0.453221245          1232
       5      -2.60377758       0.006357929       0.180624793          1545
       6      -2.60265659      -0.001120994       0.121575028          1884
       7      -2.60112592      -0.001530668       0.047615984          2156
       8      -2.60125729       0.000131371       0.020263421          2438
       9      -2.60150444       0.000247150       0.007575813          2755
      10      -2.60148526      -0.000019181       0.005386150          3099
      11      -2.60145081      -0.000034454       0.003006153          3372
      12      -2.60144682      -0.000003991       0.002250790          3690
      13      -2.60145982       0.000013003       0.001274786          4040
      14      -2.60146332       0.000003501       0.000723053          4433
      15      -2.60146035      -0.000002969       0.000437684          4746
      16      -2.60145779      -0.000002562       0.000163644          5038
      17      -2.60145894       0.000001150       0.000078940          5327
      18      -2.60145934       0.000000399       0.000041481          5610
      19      -2.60145916      -0.000000176       0.000029709          5933
      20      -2.60145902      -0.000000139       0.000012242          6269
      21      -2.60145906       0.000000033       0.000005868          6665
      22      -2.60145908       0.000000027       0.000002287          7223
      23      -2.60145908      -0.000000000       0.000000788          7742

    CHF Iterations converged

    Ind20,r (A<-B)      =    -0.000013359886 [Eh]
    Ind20,r (B<-A)      =    -0.002601459083 [Eh]
    Ind20,r             =    -0.002614818969 [Eh]
    Exch-Ind20,r (A<-B) =     0.000000018203 [Eh]
    Exch-Ind20,r (B<-A) =     0.000000197734 [Eh]
    Exch-Ind20,r        =     0.000000215937 [Eh]
    Disp20              =    -0.001092821162 [Eh]
    Disp20 (SS)         =    -0.000546410581 [Eh]
    Disp20 (OS)         =    -0.000546410581 [Eh]
    Exch-Disp20         =     0.000000073494 [Eh]
    Exch-Disp20 (SS)    =     0.000000054886 [Eh]
    Exch-Disp20 (OS)    =     0.000000018608 [Eh]

    SAPT Results 
  --------------------------------------------------------------------------------------------------------
    Electrostatics                 -7.55083144 [mEh]      -4.73821826 [kcal/mol]     -19.82470520 [kJ/mol]
      Elst10,r                     -7.55083144 [mEh]      -4.73821826 [kcal/mol]     -19.82470520 [kJ/mol]

    Exchange                       -0.00023615 [mEh]      -0.00014819 [kcal/mol]      -0.00062002 [kJ/mol]
      Exch10                       -0.00023615 [mEh]      -0.00014819 [kcal/mol]      -0.00062002 [kJ/mol]
      Exch10(S^2)                  -0.00023615 [mEh]      -0.00014819 [kcal/mol]      -0.00062002 [kJ/mol]

    Induction                      -2.65406278 [mEh]      -1.66544954 [kcal/mol]      -6.96824087 [kJ/mol]
      Ind20,r                      -2.61481897 [mEh]      -1.64082368 [kcal/mol]      -6.86520626 [kJ/mol]
      Exch-Ind20,r                  0.00021594 [mEh]       0.00013550 [kcal/mol]       0.00056694 [kJ/mol]
      delta HF,r (2)               -0.03945975 [mEh]      -0.02476137 [kcal/mol]      -0.10360155 [kJ/mol]

    Dispersion                     -1.09274767 [mEh]      -0.68570951 [kcal/mol]      -2.86900861 [kJ/mol]
      Disp20                       -1.09282116 [mEh]      -0.68575563 [kcal/mol]      -2.86920157 [kJ/mol]
      Exch-Disp20                   0.00007349 [mEh]       0.00004612 [kcal/mol]       0.00019296 [kJ/mol]
      Disp20 (SS)                  -0.54641058 [mEh]      -0.34287782 [kcal/mol]      -1.43460078 [kJ/mol]
      Disp20 (OS)                  -0.54641058 [mEh]      -0.34287782 [kcal/mol]      -1.43460078 [kJ/mol]
      Exch-Disp20 (SS)              0.00005489 [mEh]       0.00003444 [kcal/mol]       0.00014410 [kJ/mol]
      Exch-Disp20 (OS)              0.00001861 [mEh]       0.00001168 [kcal/mol]       0.00004886 [kJ/mol]

  Total HF                        -10.20513037 [mEh]      -6.40381599 [kcal/mol]     -26.79356610 [kJ/mol]
  Total SAPT0                     -11.29787804 [mEh]      -7.08952550 [kcal/mol]     -29.66257470 [kJ/mol]

  Special recipe for scaled SAPT0 (see Manual):
    Electrostatics sSAPT0          -7.55083144 [mEh]      -4.73821826 [kcal/mol]     -19.82470520 [kJ/mol]
    Exchange sSAPT0                -0.00023615 [mEh]      -0.00014819 [kcal/mol]      -0.00062002 [kJ/mol]
    Induction sSAPT0               -2.65406278 [mEh]      -1.66544954 [kcal/mol]      -6.96824087 [kJ/mol]
    Dispersion sSAPT0              -1.09274767 [mEh]      -0.68570951 [kcal/mol]      -2.86900861 [kJ/mol]
  Total sSAPT0                    -11.29787804 [mEh]      -7.08952550 [kcal/mol]     -29.66257470 [kJ/mol]
  --------------------------------------------------------------------------------------------------------

*** tstop() called on n2cn0573.ab2021.local at Sat Jan 27 13:44:13 2024
Module time:
	user time   =   73598.42 seconds =    1226.64 minutes
	system time =    4990.48 seconds =      83.17 minutes
	total time  =      37076 seconds =     617.93 minutes
Total time:
	user time   =  126359.27 seconds =    2105.99 minutes
	system time =    9493.89 seconds =     158.23 minutes
	total time  =      48581 seconds =     809.68 minutes

    Psi4 stopped on: Saturday, 27 January 2024 01:44PM
    Psi4 wall time for execution: 13:29:43.03

*** Psi4 exiting successfully. Buy a developer a beer!
