
    -----------------------------------------------------------------------
          Psi4: An Open-Source Ab Initio Electronic Structure Package
                               Psi4 1.9 release

                         Git: Rev {} zzzzzzz 


    D. G. A. Smith, L. A. Burns, A. C. Simmonett, R. M. Parrish,
    M. C. Schieber, R. Galvelis, P. Kraus, H. Kruse, R. Di Remigio,
    A. Alenaizan, A. M. James, S. Lehtola, J. P. Misiewicz, M. Scheurer,
    R. A. Shaw, J. B. Schriber, Y. Xie, Z. L. Glick, D. A. Sirianni,
    J. S. O'Brien, J. M. Waldrop, A. Kumar, E. G. Hohenstein,
    B. P. Pritchard, B. R. Brooks, H. F. Schaefer III, A. Yu. Sokolov,
    K. Patkowski, A. E. DePrince III, U. Bozkaya, R. A. King,
    F. A. Evangelista, J. M. Turney, T. D. Crawford, C. D. Sherrill,
    J. Chem. Phys. 152(18) 184108 (2020). https://doi.org/10.1063/5.0006002

                            Additional Code Authors
    E. T. Seidl, C. L. Janssen, E. F. Valeev, M. L. Leininger,
    J. F. Gonthier, R. M. Richard, H. R. McAlexander, M. Saitow, X. Wang,
    P. Verma, M. H. Lechner, A. Jiang, S. Behnle, A. G. Heide,
    M. F. Herbst, and D. L. Poole

             Previous Authors, Complete List of Code Contributors,
                       and Citations for Specific Modules
    https://github.com/psi4/psi4/blob/master/codemeta.json
    https://github.com/psi4/psi4/graphs/contributors
    http://psicode.org/psi4manual/master/introduction.html#citing-psifour

    -----------------------------------------------------------------------


    Psi4 started on: Saturday, 27 January 2024 11:25AM

    Process ID: 3697548
    Host:       n2cn0227
    PSIDATADIR: /opt/software/pc2/EB-SW/software/PSI4/1.9-foss-2022a/share/psi4
    Memory:     500.0 MiB
    Threads:    16
    
  ==> Input File <==

--------------------------------------------------------------------------
memory 64 GB # how much memory is available ! Depends on the nodes/cores !

molecule dimer {
# monomer A
-1 1    # Charge and multiplicity
B -0.000046  0.000337 1.999994
F -1.153597  0.000048 2.815641
F  1.153661 -0.000581 2.815641
F -0.000019 -1.153637 1.184360
F -0.000019  1.153978 1.184360
--
# monomer B
0 1     # Charge and multiplicity
C   -3.66844126402057      7.80375217008252      0.00190004133558
C   -4.84759871934653      7.13124183134024     -0.00046653359696
C   -4.89495929917518      5.69633040353158     -0.00103944469517
C   -3.65374067877320      4.98073034095895      0.00662099703436
C   -2.40942512149445      7.11398103667468      0.00209438359570
C   -2.42547734410473      5.68112195090346     -0.00491050527438
C   -1.19474401643570      7.78614419430947      0.00356656413763
C   0.03795902893699      7.09942164575698      0.00139585983271
C   0.03033258741920      5.66948955970466     -0.00408752508301
C   -1.20098450790502      4.96927034791531      0.00488220885047
C   1.27795782581485      7.77285944319479      0.00277170839332
C   2.48535808472416      7.08769688523756      0.00049722048857
C   2.48612868491717      5.65477081024076     -0.00644052849921
C   1.25408291964399      4.95607811366431      0.00518741308898
C   3.75171459140595      7.76391215098033      0.00062407186893
C   4.92356605618520      7.07878077698995     -0.00143240883900
C   4.95560727132542      5.64344746336949     -0.00159282164606
C   3.70680153420475      4.94121020833308      0.00349873852374
H   -3.65852113775815      8.89082741913536      0.00358502958574
H   -1.18921332975660      8.87412108735996      0.00753844057883
H   1.28429423888630      8.86083343548850      0.00693053253426
H   3.75354208679975      8.85103527897216      0.00214659618464
H   5.86995870320703      7.61379483465560     -0.00235777588134
H   -5.78823170750226      7.67630221293400     -0.00202638095293
C   -6.09197395869619      4.99326001364347     -0.00291168518608
C   -6.12866148031747      3.58258016879823     -0.00171050815740
C   -3.66457974004527      3.56418217974434     -0.00463560277484
C   -4.89429820469869      2.86108077590057      0.00453338221034
C   -2.43733499489796      2.84761165708481      0.00719617576166
C   -1.20922785759670      3.54788693497833     -0.00648285103018
C   1.24714157216223      3.53468075142962     -0.00729145743546
C   0.01517603956900      2.83311183930540      0.00439272578912
C   2.46764517244071      2.82128997725533      0.00449278391269
C   3.70254947457969      3.52466015442405     -0.00899517692985
C   6.14498038638375      4.92757236613191     -0.00282626685777
C   6.16658835886151      3.51658447594213     -0.00065971342101
C   4.92460995845939      2.80840792535402      0.00587903281610
H   7.08990550964105      5.46688776622306     -0.00658814770723
H   -7.03104175110130      5.54268795285765     -0.00714490013730
C   -7.33969804112295      2.85841153457957     -0.00333767559888
C   -7.36488195805880      1.47032337158330     -0.00157213747140
C   -4.90350460894690      1.44442681216000     -0.00628840166334
C   -6.13225715261081      0.73993935705394      0.00600164231964
C   -3.67687480051673      0.72669714267312      0.00433931473643
C   -2.44565658606518      1.42964113326212     -0.00597039546461
C   -1.22360068130162      0.71532450163492      0.00545886906656
C   0.00763786931376      1.41738314923765      0.00392452278437
C   1.23121980774686      0.70211669058719     -0.01490206287210
C   2.46082110053113      1.40329203612573      0.00460244601878
C   3.68443025419614      0.68719842821222      0.00377365974158
C   4.91870890153864      1.39173456118907     -0.00862816189375
C   7.36980207796101      2.77948220318441     -0.00242013321349
C   7.38016266612146      1.39121750785509     -0.00087345036788
C   6.13979953912259      0.67411862320065      0.00545489144369
H   -8.27919079934664      3.40711804112415     -0.00763522772059
H   8.31511347147953      3.31811809662368     -0.00663070901292
C   -8.59175593758115      0.72483255304480     -0.00123170985383
C   -8.59902460370342     -0.63263980622873      0.00089141472904
C   -6.13981313911873     -0.67413663715361     -0.00609792660607
C   -7.38018411213749     -1.39126618958160      0.00131813493501
C   -4.91868448025621     -1.39175501803000      0.00624257154343
C   -3.68443829568458     -0.68723731573599     -0.00478966852105
C   -2.46081704024768     -1.40334517882457      0.00575341766833
C   -1.23116201232071     -0.70217386488055     -0.00636696112346
C   -0.00756962538737     -1.41741884941102      0.00108956317991
C   1.22364771588843     -0.71527537726392      0.01109518512883
C   2.44567064933149     -1.42964328900682     -0.00065482763106
C   3.67686670284649     -0.72670743155550     -0.00479541202602
C   6.13224884641929     -0.73997883984993     -0.00632338623858
C   4.90351914550401     -1.44445752054090      0.00751768830159
C   8.59901484869081      0.63260386666793     -0.00101133422380
C   8.59174548810050     -0.72485086719319      0.00072504603735
C   7.36486276438985     -1.47033266560598      0.00049486934466
H   -9.52830597181814      1.27684744919284     -0.00270163681798
H   9.54141097460619      1.17457248844457     -0.00206336648518
C   -7.36983790976868     -2.77954514593389      0.00312634335708
C   -4.92459910905015     -2.80843725734101     -0.00460528907921
C   -6.16662249566744     -3.51665219282533      0.00169655107992
C   -3.70251035970491     -3.52468154912026      0.00571878010666
C   -2.46764698511392     -2.82132596280400     -0.00632585824990
C   -0.01513347410770     -2.83314164539971     -0.00604426974092
C   -1.24712184122656     -3.53473217556300      0.00551968366725
C   1.20924506964357     -3.54791467864352      0.00805871345849
C   2.43733602215464     -2.84764173817541     -0.00608104485234
C   4.89430234377080     -2.86112296828604     -0.00526030478103
C   3.66461525504104     -3.56421984553201      0.00761911515957
C   6.12863901474565     -3.58258405771778      0.00096495711699
C   7.33967266469532     -2.85841330737039      0.00248018319869
H   -9.54144911125902     -1.17456346666430      0.00226083090216
H   9.52826186807155     -1.27691907390448      0.00197485379837
H   -8.31516504384864     -3.31814985321231      0.00729857188773
H   8.27915514249207     -3.40714078989363      0.00681973918158
C   -6.14499418870218     -4.92764727278338      0.00302254913999
C   -3.70678334799751     -4.94126171411716     -0.00679841894792
C   -4.95559005800169     -5.64349397349412      0.00116871569699
C   -2.48612132622665     -5.65478557440947      0.00614125209662
C   -1.25405833548005     -4.95612205000132     -0.00503435388927
C   1.20101257386816     -4.96928038819302     -0.00385322963129
C   -0.03033667441341     -5.66952030313900      0.00398997003238
C   3.65375010132847     -4.98074377541453     -0.00309522988330
C   2.42549269587528     -5.68117463552727      0.00628170066869
C   6.09196561781097     -4.99325796338655      0.00325918379042
C   4.89497644461045     -5.69634842095790      0.00202298796027
H   -7.08989238804069     -5.46699984223871      0.00742531082125
H   7.03105520920009     -5.54265853633254      0.00683896355417
C   -4.92354532219813     -7.07882109967734      0.00061394679214
C   -2.48534208823777     -7.08772807792913     -0.00189594564379
C   -3.75168589177895     -7.76394715763627     -0.00170126671874
C   -0.03794895698805     -7.09946487446944     -0.00168022049625
C   -1.27795610040136     -7.77290438466689     -0.00366491325785
C   2.40944432072629     -7.11402201200282     -0.00081701968533
C   1.19474993715296     -7.78618536556242     -0.00296931056689
C   4.84762105249800     -7.13126211057943      0.00168979497423
C   3.66847160587561     -7.80378799294376     -0.00065863938960
H   -5.86994035041618     -7.61383059804164      0.00215798365757
H   5.78824962538815     -7.67633218931421      0.00281691445618
H   -3.75352693944918     -8.85107156923607     -0.00353718114765
H   -1.28430440589466     -8.86087539249706     -0.00809229711623
H   1.18922157469537     -8.87416062058945     -0.00706194725726
H   3.65854661482387     -8.89086063405326     -0.00231318081200

    units angstrom      # Angstroms are the default
    no_reorient         # Geometry fixed, default
    symmetry c1         # C1 symmetry, default
}

set {
    scf_type DF         # Density fitting, faster than exact integrals
    freeze_core True    # Freeze core electrons
    basis jun-cc-pVDZ   # Jun-cc-pVDZ basis set, recommended for sSAPT0 in https://doi.org/10.1063/1.4867135
}

energy('ssapt0')        # Compute sSAPT0 energy, includes also SAPT0
--------------------------------------------------------------------------

  Memory set to  59.605 GiB by Python driver.

Scratch directory: /tmp/
   => Loading Basis Set <=

    Name: JUN-CC-PVDZ
    Role: ORBITAL
    Keyword: BASIS
    atoms 1                                                   entry B          line   130 file /opt/software/pc2/EB-SW/software/PSI4/1.9-foss-2022a/share/psi4/basis/jun-cc-pvdz.gbs 
    atoms 2-5                                                 entry F          line   266 file /opt/software/pc2/EB-SW/software/PSI4/1.9-foss-2022a/share/psi4/basis/jun-cc-pvdz.gbs 
    atoms 6-23, 30-42, 45-59, 62-78, 81-93, 98-108, 111-119   entry C          line   164 file /opt/software/pc2/EB-SW/software/PSI4/1.9-foss-2022a/share/psi4/basis/jun-cc-pvdz.gbs 
    atoms 24-29, 43-44, 60-61, 79-80, 94-97, 109-110, 120-125 entry H          line    36 file /opt/software/pc2/EB-SW/software/PSI4/1.9-foss-2022a/share/psi4/basis/jun-cc-pvdz.gbs 

   => Loading Basis Set <=

    Name: JUN-CC-PVDZ
    Role: ORBITAL
    Keyword: BASIS
    atoms 1                                                   entry B          line   130 file /opt/software/pc2/EB-SW/software/PSI4/1.9-foss-2022a/share/psi4/basis/jun-cc-pvdz.gbs 
    atoms 2-5                                                 entry F          line   266 file /opt/software/pc2/EB-SW/software/PSI4/1.9-foss-2022a/share/psi4/basis/jun-cc-pvdz.gbs 
    atoms 6-23, 30-42, 45-59, 62-78, 81-93, 98-108, 111-119   entry C          line   164 file /opt/software/pc2/EB-SW/software/PSI4/1.9-foss-2022a/share/psi4/basis/jun-cc-pvdz.gbs 
    atoms 24-29, 43-44, 60-61, 79-80, 94-97, 109-110, 120-125 entry H          line    36 file /opt/software/pc2/EB-SW/software/PSI4/1.9-foss-2022a/share/psi4/basis/jun-cc-pvdz.gbs 


  //>>>>>>>>>>>>>>>>>>>>>>>>>>>>>>>>>>>//
  //              Dimer HF             //
  //<<<<<<<<<<<<<<<<<<<<<<<<<<<<<<<<<<<//

   => Libint2 <=

    Primary   basis highest AM E, G, H:  5, 4, 3
    Auxiliary basis highest AM E, G, H:  6, 5, 4
    Onebody   basis highest AM E, G, H:  6, 5, 4
    Solid Harmonics ordering:            gaussian

*** tstart() called on n2cn0227
*** at Sat Jan 27 11:25:34 2024

   => Loading Basis Set <=

    Name: JUN-CC-PVDZ
    Role: ORBITAL
    Keyword: BASIS
    atoms 1                                                   entry B          line   130 file /opt/software/pc2/EB-SW/software/PSI4/1.9-foss-2022a/share/psi4/basis/jun-cc-pvdz.gbs 
    atoms 2-5                                                 entry F          line   266 file /opt/software/pc2/EB-SW/software/PSI4/1.9-foss-2022a/share/psi4/basis/jun-cc-pvdz.gbs 
    atoms 6-23, 30-42, 45-59, 62-78, 81-93, 98-108, 111-119   entry C          line   164 file /opt/software/pc2/EB-SW/software/PSI4/1.9-foss-2022a/share/psi4/basis/jun-cc-pvdz.gbs 
    atoms 24-29, 43-44, 60-61, 79-80, 94-97, 109-110, 120-125 entry H          line    36 file /opt/software/pc2/EB-SW/software/PSI4/1.9-foss-2022a/share/psi4/basis/jun-cc-pvdz.gbs 


         ---------------------------------------------------------
                                   SCF
               by Justin Turney, Rob Parrish, Andy Simmonett
                          and Daniel G. A. Smith
                              RHF Reference
                       16 Threads,  61035 MiB Core
         ---------------------------------------------------------

  ==> Geometry <==

    Molecular point group: c1
    Full point group: C1

    Geometry (in Angstrom), charge = -1, multiplicity = 1:

       Center              X                  Y                   Z               Mass       
    ------------   -----------------  -----------------  -----------------  -----------------
         B           -0.000050191042     0.000351518223     1.862239857740    11.009305360000
         F           -1.153601191042     0.000062518223     2.677886857740    18.998403162730
         F            1.153656808958    -0.000566481777     2.677886857740    18.998403162730
         F           -0.000023191042    -1.153622481777     1.046605857740    18.998403162730
         F           -0.000023191042     1.153992518223     1.046605857740    18.998403162730
         C           -3.668445455062     7.803766688305    -0.135854100924    12.000000000000
         C           -4.847602910388     7.131256349563    -0.138220675857    12.000000000000
         C           -4.894963490217     5.696344921754    -0.138793586955    12.000000000000
         C           -3.653744869815     4.980744859182    -0.131133145225    12.000000000000
         C           -2.409429312536     7.113995554897    -0.135659758664    12.000000000000
         C           -2.425481535146     5.681136469126    -0.142664647534    12.000000000000
         C           -1.194748207477     7.786158712532    -0.134187578122    12.000000000000
         C            0.037954837895     7.099436163980    -0.136358282427    12.000000000000
         C            0.030328396378     5.669504077927    -0.141841667343    12.000000000000
         C           -1.200988698947     4.969284866138    -0.132871933409    12.000000000000
         C            1.277953634773     7.772873961417    -0.134982433867    12.000000000000
         C            2.485353893683     7.087711403460    -0.137256921771    12.000000000000
         C            2.486124493876     5.654785328463    -0.144194670759    12.000000000000
         C            1.254078728602     4.956092631887    -0.132566729171    12.000000000000
         C            3.751710400364     7.763926669203    -0.137130070391    12.000000000000
         C            4.923561865144     7.078795295213    -0.139186551099    12.000000000000
         C            4.955603080284     5.643461981592    -0.139346963906    12.000000000000
         C            3.706797343163     4.941224726556    -0.134255403736    12.000000000000
         H           -3.658525328800     8.890841937358    -0.134169112674     1.007825032230
         H           -1.189217520798     8.874135605583    -0.130215701681     1.007825032230
         H            1.284290047845     8.860847953711    -0.130823609726     1.007825032230
         H            3.753537895758     8.851049797195    -0.135607546075     1.007825032230
         H            5.869954512165     7.613809352878    -0.140111918141     1.007825032230
         H           -5.788235898544     7.676316731157    -0.139780523213     1.007825032230
         C           -6.091978149738     4.993274531866    -0.140665827446    12.000000000000
         C           -6.128665671359     3.582594687021    -0.139464650417    12.000000000000
         C           -3.664583931087     3.564196697967    -0.142389745035    12.000000000000
         C           -4.894302395740     2.861095294123    -0.133220760049    12.000000000000
         C           -2.437339185940     2.847626175307    -0.130557966498    12.000000000000
         C           -1.209232048638     3.547901453201    -0.144236993290    12.000000000000
         C            1.247137381121     3.534695269652    -0.145045599695    12.000000000000
         C            0.015171848527     2.833126357528    -0.133361416471    12.000000000000
         C            2.467640981399     2.821304495478    -0.133261358347    12.000000000000
         C            3.702545283538     3.524674672647    -0.146749319190    12.000000000000
         C            6.144976195342     4.927586884354    -0.140580409118    12.000000000000
         C            6.166584167820     3.516598994165    -0.138413855681    12.000000000000
         C            4.924605767418     2.808422443577    -0.131875109444    12.000000000000
         H            7.089901318599     5.466902284446    -0.144342289967     1.007825032230
         H           -7.031045942143     5.542702471080    -0.144899042397     1.007825032230
         C           -7.339702232165     2.858426052802    -0.141091817859    12.000000000000
         C           -7.364886149100     1.470337889806    -0.139326279731    12.000000000000
         C           -4.903508799989     1.444441330383    -0.144042543923    12.000000000000
         C           -6.132261343652     0.739953875277    -0.131752499940    12.000000000000
         C           -3.676878991558     0.726711660896    -0.133414827523    12.000000000000
         C           -2.445660777107     1.429655651485    -0.143724537724    12.000000000000
         C           -1.223604872343     0.715339019858    -0.132295273193    12.000000000000
         C            0.007633678272     1.417397667460    -0.133829619475    12.000000000000
         C            1.231215616705     0.702131208810    -0.152656205132    12.000000000000
         C            2.460816909489     1.403306554348    -0.133151696241    12.000000000000
         C            3.684426063155     0.687212946435    -0.133980482518    12.000000000000
         C            4.918704710497     1.391749079412    -0.146382304154    12.000000000000
         C            7.369797886919     2.779496721407    -0.140174275473    12.000000000000
         C            7.380158475080     1.391232026078    -0.138627592628    12.000000000000
         C            6.139795348081     0.674133141423    -0.132299250816    12.000000000000
         H           -8.279194990388     3.407132559347    -0.145389369980     1.007825032230
         H            8.315109280438     3.318132614846    -0.144384851273     1.007825032230
         C           -8.591760128623     0.724847071267    -0.138985852114    12.000000000000
         C           -8.599028794745    -0.632625288006    -0.136862727531    12.000000000000
         C           -6.139817330160    -0.674122118931    -0.143852068866    12.000000000000
         C           -7.380188303179    -1.391251671359    -0.136436007325    12.000000000000
         C           -4.918688671298    -1.391740499807    -0.131511570716    12.000000000000
         C           -3.684442486726    -0.687222797513    -0.142543810781    12.000000000000
         C           -2.460821231289    -1.403330660602    -0.132000724591    12.000000000000
         C           -1.231166203362    -0.702159346658    -0.144121103383    12.000000000000
         C           -0.007573816429    -1.417404331188    -0.136664579080    12.000000000000
         C            1.223643524847    -0.715260859041    -0.126658957131    12.000000000000
         C            2.445666458290    -1.429628770784    -0.138408969891    12.000000000000
         C            3.676862511805    -0.726692913333    -0.142549554286    12.000000000000
         C            6.132244655378    -0.739964321627    -0.144077528498    12.000000000000
         C            4.903514954462    -1.444443002318    -0.130236453958    12.000000000000
         C            8.599010657649     0.632618384891    -0.138765476484    12.000000000000
         C            8.591741297059    -0.724836348971    -0.137029096222    12.000000000000
         C            7.364858573348    -1.470318147383    -0.137259272915    12.000000000000
         H           -9.528310162860     1.276861967415    -0.140455779078     1.007825032230
         H            9.541406783565     1.174587006667    -0.139817508745     1.007825032230
         C           -7.369842100810    -2.779530627711    -0.134627798903    12.000000000000
         C           -4.924603300092    -2.808422739118    -0.142359431339    12.000000000000
         C           -6.166626686709    -3.516637674603    -0.136057591180    12.000000000000
         C           -3.702514550747    -3.524667030898    -0.132035362153    12.000000000000
         C           -2.467651176156    -2.821311444581    -0.144080000510    12.000000000000
         C           -0.015137665149    -2.833127127177    -0.143798412001    12.000000000000
         C           -1.247126032268    -3.534717657340    -0.132234458593    12.000000000000
         C            1.209240878602    -3.547900160421    -0.129695428801    12.000000000000
         C            2.437331831113    -2.847627219953    -0.143835187112    12.000000000000
         C            4.894298152729    -2.861108450063    -0.143014447041    12.000000000000
         C            3.664611063999    -3.564205327309    -0.130135027100    12.000000000000
         C            6.128634823704    -3.582569539495    -0.136789185143    12.000000000000
         C            7.339668473654    -2.858398789148    -0.135273959061    12.000000000000
         H           -9.541453302301    -1.174548948442    -0.135493311358     1.007825032230
         H            9.528257677030    -1.276904555682    -0.135779288461     1.007825032230
         H           -8.315169234890    -3.318135334990    -0.130455570372     1.007825032230
         H            8.279150951450    -3.407126271671    -0.130934403078     1.007825032230
         C           -6.144998379744    -4.927632754561    -0.134731593120    12.000000000000
         C           -3.706787539039    -4.941247195895    -0.144552561208    12.000000000000
         C           -4.955594249043    -5.643479455272    -0.136585426563    12.000000000000
         C           -2.486125517268    -5.654771056187    -0.131612890163    12.000000000000
         C           -1.254062526522    -4.956107531779    -0.142788496149    12.000000000000
         C            1.201008382827    -4.969265869970    -0.141607371891    12.000000000000
         C           -0.030340865455    -5.669505784916    -0.133764172227    12.000000000000
         C            3.653745910287    -4.980729257192    -0.140849372143    12.000000000000
         C            2.425488504834    -5.681160117305    -0.131472441591    12.000000000000
         C            6.091961426769    -4.993243445164    -0.134494958469    12.000000000000
         C            4.894972253569    -5.696333902735    -0.135731154300    12.000000000000
         H           -7.089896579082    -5.466985324016    -0.130328831439     1.007825032230
         H            7.031051018158    -5.542644018110    -0.130915178706     1.007825032230
         C           -4.923549513240    -7.078806581455    -0.137140195468    12.000000000000
         C           -2.485346279279    -7.087713559707    -0.139650087904    12.000000000000
         C           -3.751690082821    -7.763932639414    -0.139455408979    12.000000000000
         C           -0.037953148030    -7.099450356247    -0.139434362756    12.000000000000
         C           -1.277960291443    -7.772889866444    -0.141419055518    12.000000000000
         C            2.409440129685    -7.114007493780    -0.138571161945    12.000000000000
         C            1.194745746111    -7.786170847340    -0.140723452827    12.000000000000
         C            4.847616861456    -7.131247592357    -0.136064347286    12.000000000000
         C            3.668467414834    -7.803773474721    -0.138412781649    12.000000000000
         H           -5.869944541458    -7.613816079819    -0.135596158602     1.007825032230
         H            5.788245434347    -7.676317671092    -0.134937227804     1.007825032230
         H           -3.753531130491    -8.851057051013    -0.141291323407     1.007825032230
         H           -1.284308596936    -8.860860874274    -0.145846439376     1.007825032230
         H            1.189217383654    -8.874146102367    -0.144816089517     1.007825032230
         H            3.658542423782    -8.890846115831    -0.140067323072     1.007825032230

  Running in c1 symmetry.

  Rotational constants: A =      0.00069  B =      0.00069  C =      0.00035 [cm^-1]
  Rotational constants: A =     20.77917  B =     20.77548  C =     10.55117 [MHz]
  Nuclear repulsion = 18090.292133435748838

  Charge       = -1
  Multiplicity = 1
  Electrons    = 642
  Nalpha       = 321
  Nbeta        = 321

  ==> Algorithm <==

  SCF Algorithm Type is DF.
  DIIS enabled.
  MOM disabled.
  Fractional occupation disabled.
  Guess Type is SAD.
  Energy threshold   = 1.00e-08
  Density threshold  = 1.00e-08
  Integral threshold = 1.00e-12

  ==> Primary Basis <==

  Basis Set: JUN-CC-PVDZ
    Blend: JUN-CC-PVDZ
    Number of shells: 880
    Number of basis functions: 1938
    Number of Cartesian functions: 2039
    Spherical Harmonics?: true
    Max angular momentum: 2

   => Loading Basis Set <=

    Name: (JUN-CC-PVDZ AUX)
    Role: JKFIT
    Keyword: DF_BASIS_SCF
    atoms 1                                                   entry B          line    90 file /opt/software/pc2/EB-SW/software/PSI4/1.9-foss-2022a/share/psi4/basis/jun-cc-pvdz-jkfit.gbs 
    atoms 2-5                                                 entry F          line   314 file /opt/software/pc2/EB-SW/software/PSI4/1.9-foss-2022a/share/psi4/basis/jun-cc-pvdz-jkfit.gbs 
    atoms 6-23, 30-42, 45-59, 62-78, 81-93, 98-108, 111-119   entry C          line   146 file /opt/software/pc2/EB-SW/software/PSI4/1.9-foss-2022a/share/psi4/basis/jun-cc-pvdz-jkfit.gbs 
    atoms 24-29, 43-44, 60-61, 79-80, 94-97, 109-110, 120-125 entry H          line    70 file /opt/software/pc2/EB-SW/software/PSI4/1.9-foss-2022a/share/psi4/basis/jun-cc-pvdz-jkfit.gbs 

  ==> Integral Setup <==

  ==> DiskDFJK: Density-Fitted J/K Matrices <==

    J tasked:                  Yes
    K tasked:                  Yes
    wK tasked:                  No
    OpenMP threads:             16
    Integrals threads:          16
    Memory [MiB]:            45776
    Algorithm:                Disk
    Integral Cache:           SAVE
    Schwarz Cutoff:          1E-12
    Fitting Condition:       1E-10

   => Auxiliary Basis Set <=

  Basis Set: (JUN-CC-PVDZ AUX)
    Blend: JUN-CC-PVDZ-JKFIT
    Number of shells: 2943
    Number of basis functions: 8531
    Number of Cartesian functions: 9791
    Spherical Harmonics?: true
    Max angular momentum: 3

  Minimum eigenvalue in the overlap matrix is 6.0078560194E-11.
  Reciprocal condition number of the overlap matrix is 2.3377634599E-12.
    Using canonical orthogonalization.
  Overall, 40 of 1938 possible MOs eliminated.


  ==> Pre-Iterations <==

  SCF Guess: Superposition of Atomic Densities via on-the-fly atomic UHF (no occupation information).

   -------------------------
    Irrep   Nso     Nmo    
   -------------------------
     A       1938    1898 
   -------------------------
    Total    1938    1898
   -------------------------

  ==> Iterations <==

                           Total Energy        Delta E     RMS |[F,P]|

   @DF-RHF iter SAD: -4089.31202686632787   -4.08931e+03   0.00000e+00 
   @DF-RHF iter   1: -4070.54884298631350    1.87632e+01   8.11833e-04 ADIIS/DIIS
   @DF-RHF iter   2: -4071.98538582355513   -1.43654e+00   3.65275e-04 ADIIS/DIIS
   @DF-RHF iter   3: -4072.18675844706195   -2.01373e-01   1.76591e-04 ADIIS/DIIS
   @DF-RHF iter   4: -4072.24004411701389   -5.32857e-02   6.86062e-05 DIIS
   @DF-RHF iter   5: -4072.25035711833607   -1.03130e-02   1.89918e-05 DIIS
   @DF-RHF iter   6: -4072.25149195312770   -1.13483e-03   7.34707e-06 DIIS
   @DF-RHF iter   7: -4072.25186440530251   -3.72452e-04   4.11448e-06 DIIS
   @DF-RHF iter   8: -4072.25202961182958   -1.65207e-04   1.95959e-06 DIIS
   @DF-RHF iter   9: -4072.25208153384210   -5.19220e-05   7.92525e-07 DIIS
   @DF-RHF iter  10: -4072.25208702751434   -5.49367e-06   4.48377e-07 DIIS
   @DF-RHF iter  11: -4072.25208922477850   -2.19726e-06   2.47175e-07 DIIS
   @DF-RHF iter  12: -4072.25209008469756   -8.59919e-07   1.34113e-07 DIIS
   @DF-RHF iter  13: -4072.25209039265428   -3.07957e-07   6.17781e-08 DIIS
   @DF-RHF iter  14: -4072.25209044925805   -5.66038e-08   3.45818e-08 DIIS
   @DF-RHF iter  15: -4072.25209046379177   -1.45337e-08   1.75542e-08 DIIS
   @DF-RHF iter  16: -4072.25209046699592   -3.20415e-09   1.13190e-08 DIIS
   @DF-RHF iter  17: -4072.25209046804366   -1.04774e-09   4.21740e-09 DIIS
  Energy and wave function converged.


  ==> Post-Iterations <==

    Orbital Energies [Eh]
    ---------------------

    Doubly Occupied:                                                      

       1A    -26.385642     2A    -26.385246     3A    -26.238555  
       4A    -26.238520     5A    -11.279876     6A    -11.279754  
       7A    -11.195328     8A    -11.194788     9A    -11.192769  
      10A    -11.192241    11A    -11.189192    12A    -11.189136  
      13A    -11.188985    14A    -11.188939    15A    -11.188288  
      16A    -11.188270    17A    -11.187268    18A    -11.187208  
      19A    -11.187125    20A    -11.187066    21A    -11.186712  
      22A    -11.186709    23A    -11.186664    24A    -11.186661  
      25A    -11.186268    26A    -11.186176    27A    -11.186098  
      28A    -11.186045    29A    -11.186015    30A    -11.185967  
      31A    -11.185828    32A    -11.185805    33A    -11.185637  
      34A    -11.185634    35A    -11.185595    36A    -11.185591  
      37A    -11.185452    38A    -11.185448    39A    -11.185434  
      40A    -11.185430    41A    -11.185133    42A    -11.185126  
      43A    -11.184990    44A    -11.184984    45A    -11.184973  
      46A    -11.184964    47A    -11.184404    48A    -11.184387  
      49A    -11.184333    50A    -11.184324    51A    -11.184301  
      52A    -11.184287    53A    -11.184210    54A    -11.184207  
      55A    -11.184181    56A    -11.184175    57A    -11.183813  
      58A    -11.183808    59A    -11.183775    60A    -11.183775  
      61A    -11.183659    62A    -11.183658    63A    -11.183578  
      64A    -11.183573    65A    -11.182418    66A    -11.182417  
      67A    -11.181092    68A    -11.181072    69A    -11.181009  
      70A    -11.180993    71A    -11.180021    72A    -11.180003  
      73A    -11.179860    74A    -11.179825    75A    -11.179770  
      76A    -11.179745    77A    -11.179014    78A    -11.178972  
      79A    -11.178911    80A    -11.178903    81A    -11.178680  
      82A    -11.178644    83A    -11.174878    84A    -11.174797  
      85A    -11.174420    86A    -11.174348    87A    -11.169307  
      88A    -11.169250    89A    -11.169081    90A    -11.169029  
      91A    -11.163304    92A    -11.163226    93A    -11.162954  
      94A    -11.162874    95A    -11.161704    96A    -11.161570  
      97A    -11.161317    98A    -11.161204    99A    -11.146802  
     100A    -11.146777   101A     -7.794731   102A     -1.866273  
     103A     -1.838735   104A     -1.551090   105A     -1.519839  
     106A     -1.198849   107A     -1.168463   108A     -1.163163  
     109A     -1.155707   110A     -1.144019   111A     -1.141582  
     112A     -1.140318   113A     -1.124882   114A     -1.122641  
     115A     -1.117280   116A     -1.101338   117A     -1.097309  
     118A     -1.094227   119A     -1.089104   120A     -1.083287  
     121A     -1.079023   122A     -1.071834   123A     -1.065707  
     124A     -1.058969   125A     -1.052451   126A     -1.049415  
     127A     -1.040117   128A     -1.036334   129A     -1.034527  
     130A     -1.017885   131A     -1.009755   132A     -1.006894  
     133A     -1.004838   134A     -1.003136   135A     -0.999746  
     136A     -0.990045   137A     -0.982254   138A     -0.979205  
     139A     -0.966509   140A     -0.966184   141A     -0.964742  
     142A     -0.960153   143A     -0.958590   144A     -0.953101  
     145A     -0.939424   146A     -0.937931   147A     -0.929282  
     148A     -0.927975   149A     -0.914343   150A     -0.914005  
     151A     -0.910035   152A     -0.907368   153A     -0.906384  
     154A     -0.882807   155A     -0.875467   156A     -0.873239  
     157A     -0.863654   158A     -0.855466   159A     -0.851095  
     160A     -0.829318   161A     -0.829154   162A     -0.823252  
     163A     -0.820685   164A     -0.813120   165A     -0.804463  
     166A     -0.799619   167A     -0.797976   168A     -0.797405  
     169A     -0.794190   170A     -0.781003   171A     -0.776027  
     172A     -0.774849   173A     -0.765066   174A     -0.763872  
     175A     -0.762007   176A     -0.757402   177A     -0.755431  
     178A     -0.755364   179A     -0.750684   180A     -0.737330  
     181A     -0.713849   182A     -0.709029   183A     -0.708759  
     184A     -0.705649   185A     -0.700364   186A     -0.696081  
     187A     -0.689737   188A     -0.686675   189A     -0.681556  
     190A     -0.679784   191A     -0.676054   192A     -0.657669  
     193A     -0.651629   194A     -0.647726   195A     -0.647454  
     196A     -0.647253   197A     -0.646554   198A     -0.645178  
     199A     -0.639419   200A     -0.635543   201A     -0.625977  
     202A     -0.623329   203A     -0.622606   204A     -0.614535  
     205A     -0.610057   206A     -0.608091   207A     -0.605379  
     208A     -0.603722   209A     -0.599782   210A     -0.599480  
     211A     -0.598384   212A     -0.582174   213A     -0.579364  
     214A     -0.576248   215A     -0.575907   216A     -0.572733  
     217A     -0.572245   218A     -0.566275   219A     -0.564399  
     220A     -0.562629   221A     -0.561912   222A     -0.561184  
     223A     -0.557050   224A     -0.556446   225A     -0.555876  
     226A     -0.551806   227A     -0.539319   228A     -0.539273  
     229A     -0.533508   230A     -0.531334   231A     -0.527047  
     232A     -0.526027   233A     -0.522903   234A     -0.521250  
     235A     -0.519433   236A     -0.519271   237A     -0.519109  
     238A     -0.518846   239A     -0.518075   240A     -0.517528  
     241A     -0.517431   242A     -0.513974   243A     -0.512590  
     244A     -0.507666   245A     -0.503929   246A     -0.501187  
     247A     -0.499862   248A     -0.496836   249A     -0.496474  
     250A     -0.494052   251A     -0.490324   252A     -0.489922  
     253A     -0.488678   254A     -0.486095   255A     -0.483218  
     256A     -0.482008   257A     -0.481456   258A     -0.475675  
     259A     -0.474435   260A     -0.473646   261A     -0.470423  
     262A     -0.467454   263A     -0.458299   264A     -0.456769  
     265A     -0.456477   266A     -0.452694   267A     -0.449785  
     268A     -0.448076   269A     -0.446074   270A     -0.444232  
     271A     -0.442969   272A     -0.440220   273A     -0.438943  
     274A     -0.434426   275A     -0.433355   276A     -0.421876  
     277A     -0.420564   278A     -0.419151   279A     -0.418224  
     280A     -0.414096   281A     -0.405392   282A     -0.402022  
     283A     -0.401798   284A     -0.397101   285A     -0.390709  
     286A     -0.390582   287A     -0.387481   288A     -0.383106  
     289A     -0.381255   290A     -0.371071   291A     -0.370144  
     292A     -0.365881   293A     -0.362032   294A     -0.360030  
     295A     -0.353241   296A     -0.339148   297A     -0.332062  
     298A     -0.329363   299A     -0.311937   300A     -0.311583  
     301A     -0.308178   302A     -0.306923   303A     -0.279450  
     304A     -0.278834   305A     -0.276741   306A     -0.274800  
     307A     -0.266925   308A     -0.259051   309A     -0.258209  
     310A     -0.258049   311A     -0.229370   312A     -0.228742  
     313A     -0.226614   314A     -0.215219   315A     -0.209605  
     316A     -0.205374   317A     -0.186980   318A     -0.179619  
     319A     -0.134912   320A     -0.130199   321A     -0.089627  

    Virtual:                                                              

     322A      0.067511   323A      0.089672   324A      0.098029  
     325A      0.099028   326A      0.099800   327A      0.101173  
     328A      0.102391   329A      0.107096   330A      0.107241  
     331A      0.109034   332A      0.112127   333A      0.114576  
     334A      0.114929   335A      0.117398   336A      0.121610  
     337A      0.126074   338A      0.126151   339A      0.133841  
     340A      0.134958   341A      0.136252   342A      0.137490  
     343A      0.139889   344A      0.142204   345A      0.144237  
     346A      0.145110   347A      0.145755   348A      0.148000  
     349A      0.148512   350A      0.149245   351A      0.149634  
     352A      0.151709   353A      0.152672   354A      0.153061  
     355A      0.153219   356A      0.153693   357A      0.156250  
     358A      0.157174   359A      0.158360   360A      0.159563  
     361A      0.164419   362A      0.165833   363A      0.166736  
     364A      0.168033   365A      0.168099   366A      0.169394  
     367A      0.169715   368A      0.174749   369A      0.176263  
     370A      0.176801   371A      0.177059   372A      0.178375  
     373A      0.179561   374A      0.180953   375A      0.182041  
     376A      0.183459   377A      0.183535   378A      0.190693  
     379A      0.191605   380A      0.193807   381A      0.194491  
     382A      0.194918   383A      0.197188   384A      0.198198  
     385A      0.199850   386A      0.202296   387A      0.202453  
     388A      0.204721   389A      0.208053   390A      0.209599  
     391A      0.210393   392A      0.213302   393A      0.215727  
     394A      0.217482   395A      0.218539   396A      0.219832  
     397A      0.219910   398A      0.220130   399A      0.221797  
     400A      0.222100   401A      0.222461   402A      0.225253  
     403A      0.226830   404A      0.227187   405A      0.227944  
     406A      0.228073   407A      0.228812   408A      0.229393  
     409A      0.229855   410A      0.230055   411A      0.231719  
     412A      0.234134   413A      0.236104   414A      0.245251  
     415A      0.246614   416A      0.246928   417A      0.246976  
     418A      0.247031   419A      0.247132   420A      0.247594  
     421A      0.251854   422A      0.253660   423A      0.254759  
     424A      0.255554   425A      0.255984   426A      0.256861  
     427A      0.257900   428A      0.260852   429A      0.262210  
     430A      0.263006   431A      0.263729   432A      0.264225  
     433A      0.265436   434A      0.266420   435A      0.267945  
     436A      0.268566   437A      0.268947   438A      0.272506  
     439A      0.272624   440A      0.274952   441A      0.275305  
     442A      0.275788   443A      0.276988   444A      0.277368  
     445A      0.278280   446A      0.278551   447A      0.279341  
     448A      0.279797   449A      0.279976   450A      0.280414  
     451A      0.280497   452A      0.281510   453A      0.281782  
     454A      0.286446   455A      0.288896   456A      0.289073  
     457A      0.293700   458A      0.294417   459A      0.295828  
     460A      0.296117   461A      0.296473   462A      0.297217  
     463A      0.297827   464A      0.298354   465A      0.299299  
     466A      0.300676   467A      0.301680   468A      0.301967  
     469A      0.303479   470A      0.304565   471A      0.306030  
     472A      0.309082   473A      0.309149   474A      0.313330  
     475A      0.313713   476A      0.314001   477A      0.317411  
     478A      0.318748   479A      0.320901   480A      0.321477  
     481A      0.323216   482A      0.324244   483A      0.325190  
     484A      0.326552   485A      0.326648   486A      0.328285  
     487A      0.329356   488A      0.330411   489A      0.330942  
     490A      0.331645   491A      0.332232   492A      0.332674  
     493A      0.333401   494A      0.336543   495A      0.338128  
     496A      0.342589   497A      0.343427   498A      0.343494  
     499A      0.343880   500A      0.344096   501A      0.345916  
     502A      0.346681   503A      0.347020   504A      0.347747  
     505A      0.347877   506A      0.348243   507A      0.351511  
     508A      0.353375   509A      0.353809   510A      0.354392  
     511A      0.355527   512A      0.357483   513A      0.358502  
     514A      0.363854   515A      0.364048   516A      0.364731  
     517A      0.365831   518A      0.367485   519A      0.368157  
     520A      0.370105   521A      0.370606   522A      0.370722  
     523A      0.371265   524A      0.371830   525A      0.372915  
     526A      0.375051   527A      0.375648   528A      0.376052  
     529A      0.376477   530A      0.378311   531A      0.380467  
     532A      0.382217   533A      0.382747   534A      0.383100  
     535A      0.385273   536A      0.386128   537A      0.386920  
     538A      0.387351   539A      0.388234   540A      0.389179  
     541A      0.390593   542A      0.391650   543A      0.391978  
     544A      0.392118   545A      0.393098   546A      0.393949  
     547A      0.394449   548A      0.395822   549A      0.396721  
     550A      0.397423   551A      0.398949   552A      0.399849  
     553A      0.401138   554A      0.401505   555A      0.402672  
     556A      0.405923   557A      0.406001   558A      0.406452  
     559A      0.407853   560A      0.409978   561A      0.410161  
     562A      0.411228   563A      0.412010   564A      0.412859  
     565A      0.415631   566A      0.416195   567A      0.419900  
     568A      0.420621   569A      0.421449   570A      0.422020  
     571A      0.424266   572A      0.425087   573A      0.428098  
     574A      0.430005   575A      0.430287   576A      0.430751  
     577A      0.431474   578A      0.432663   579A      0.434759  
     580A      0.436630   581A      0.437396   582A      0.437655  
     583A      0.438708   584A      0.440288   585A      0.442562  
     586A      0.443080   587A      0.444324   588A      0.445533  
     589A      0.447701   590A      0.447894   591A      0.449213  
     592A      0.449631   593A      0.450297   594A      0.450993  
     595A      0.452543   596A      0.454887   597A      0.457015  
     598A      0.458897   599A      0.459196   600A      0.460037  
     601A      0.460316   602A      0.461045   603A      0.462975  
     604A      0.464014   605A      0.464451   606A      0.465781  
     607A      0.466960   608A      0.467846   609A      0.468122  
     610A      0.468650   611A      0.469531   612A      0.469804  
     613A      0.470146   614A      0.471481   615A      0.471708  
     616A      0.474114   617A      0.474280   618A      0.474883  
     619A      0.475569   620A      0.476717   621A      0.477281  
     622A      0.477916   623A      0.478842   624A      0.479392  
     625A      0.479569   626A      0.480450   627A      0.480729  
     628A      0.481214   629A      0.481414   630A      0.482404  
     631A      0.483727   632A      0.487100   633A      0.487369  
     634A      0.489062   635A      0.489488   636A      0.490238  
     637A      0.490687   638A      0.491247   639A      0.491810  
     640A      0.492887   641A      0.493510   642A      0.494149  
     643A      0.497326   644A      0.498798   645A      0.501572  
     646A      0.502077   647A      0.503455   648A      0.504055  
     649A      0.504253   650A      0.505497   651A      0.506348  
     652A      0.506703   653A      0.507361   654A      0.508311  
     655A      0.509956   656A      0.510590   657A      0.510889  
     658A      0.511347   659A      0.513390   660A      0.513949  
     661A      0.517436   662A      0.519652   663A      0.520200  
     664A      0.520894   665A      0.521412   666A      0.522078  
     667A      0.523128   668A      0.524218   669A      0.524774  
     670A      0.525198   671A      0.525301   672A      0.526040  
     673A      0.526327   674A      0.527739   675A      0.528715  
     676A      0.531069   677A      0.531816   678A      0.533819  
     679A      0.534343   680A      0.535408   681A      0.536661  
     682A      0.537832   683A      0.540135   684A      0.541167  
     685A      0.541716   686A      0.542323   687A      0.542621  
     688A      0.543951   689A      0.545791   690A      0.547169  
     691A      0.547927   692A      0.548678   693A      0.549449  
     694A      0.550562   695A      0.553284   696A      0.553648  
     697A      0.554998   698A      0.556748   699A      0.556969  
     700A      0.557457   701A      0.557859   702A      0.558438  
     703A      0.559604   704A      0.559772   705A      0.560146  
     706A      0.560755   707A      0.561650   708A      0.563405  
     709A      0.564615   710A      0.566316   711A      0.567891  
     712A      0.568166   713A      0.569248   714A      0.570303  
     715A      0.571692   716A      0.573058   717A      0.573186  
     718A      0.575055   719A      0.577150   720A      0.578265  
     721A      0.578558   722A      0.579720   723A      0.580284  
     724A      0.581527   725A      0.582660   726A      0.583168  
     727A      0.586715   728A      0.587569   729A      0.588358  
     730A      0.588862   731A      0.589953   732A      0.590442  
     733A      0.591766   734A      0.592341   735A      0.596153  
     736A      0.597500   737A      0.598336   738A      0.601202  
     739A      0.602288   740A      0.603447   741A      0.605710  
     742A      0.607904   743A      0.608243   744A      0.608842  
     745A      0.612495   746A      0.612633   747A      0.615600  
     748A      0.617171   749A      0.619778   750A      0.623205  
     751A      0.625485   752A      0.626684   753A      0.628500  
     754A      0.629733   755A      0.631389   756A      0.631847  
     757A      0.634542   758A      0.635292   759A      0.636193  
     760A      0.637105   761A      0.638171   762A      0.640720  
     763A      0.640985   764A      0.641577   765A      0.644897  
     766A      0.645776   767A      0.646140   768A      0.646939  
     769A      0.648161   770A      0.649219   771A      0.652827  
     772A      0.654630   773A      0.656149   774A      0.659078  
     775A      0.661908   776A      0.662092   777A      0.662665  
     778A      0.663699   779A      0.666649   780A      0.667025  
     781A      0.671244   782A      0.671819   783A      0.672736  
     784A      0.674684   785A      0.676130   786A      0.677074  
     787A      0.679276   788A      0.679933   789A      0.681196  
     790A      0.687729   791A      0.688311   792A      0.688794  
     793A      0.689597   794A      0.691115   795A      0.695475  
     796A      0.702358   797A      0.704933   798A      0.706836  
     799A      0.708151   800A      0.710824   801A      0.714916  
     802A      0.716737   803A      0.718222   804A      0.722499  
     805A      0.724627   806A      0.727266   807A      0.728752  
     808A      0.731970   809A      0.732930   810A      0.735105  
     811A      0.735601   812A      0.736729   813A      0.738247  
     814A      0.742006   815A      0.744175   816A      0.745566  
     817A      0.746530   818A      0.751802   819A      0.755250  
     820A      0.760312   821A      0.761790   822A      0.762908  
     823A      0.764120   824A      0.765963   825A      0.766870  
     826A      0.768265   827A      0.768355   828A      0.770065  
     829A      0.772069   830A      0.777017   831A      0.780519  
     832A      0.784889   833A      0.788046   834A      0.790155  
     835A      0.796277   836A      0.799461   837A      0.802940  
     838A      0.803884   839A      0.809267   840A      0.810609  
     841A      0.813232   842A      0.813924   843A      0.816310  
     844A      0.818506   845A      0.823990   846A      0.826661  
     847A      0.829134   848A      0.834251   849A      0.847529  
     850A      0.850079   851A      0.851167   852A      0.854629  
     853A      0.859012   854A      0.860302   855A      0.866687  
     856A      0.868490   857A      0.869866   858A      0.871461  
     859A      0.872335   860A      0.874892   861A      0.877062  
     862A      0.877602   863A      0.878402   864A      0.881449  
     865A      0.883464   866A      0.885486   867A      0.886688  
     868A      0.888596   869A      0.890400   870A      0.890864  
     871A      0.893277   872A      0.895084   873A      0.899072  
     874A      0.901631   875A      0.902713   876A      0.906125  
     877A      0.911407   878A      0.912015   879A      0.913714  
     880A      0.917308   881A      0.917779   882A      0.919487  
     883A      0.919861   884A      0.922731   885A      0.924185  
     886A      0.924840   887A      0.930863   888A      0.933157  
     889A      0.934256   890A      0.936282   891A      0.936585  
     892A      0.937553   893A      0.937921   894A      0.939390  
     895A      0.940825   896A      0.943889   897A      0.944523  
     898A      0.946891   899A      0.948497   900A      0.950044  
     901A      0.950914   902A      0.953684   903A      0.954554  
     904A      0.957000   905A      0.957539   906A      0.959935  
     907A      0.960760   908A      0.960994   909A      0.961418  
     910A      0.964989   911A      0.969249   912A      0.970693  
     913A      0.972298   914A      0.973954   915A      0.976463  
     916A      0.979056   917A      0.982470   918A      0.984729  
     919A      0.986370   920A      0.987263   921A      0.987966  
     922A      0.988735   923A      0.990112   924A      0.990929  
     925A      0.992173   926A      0.993602   927A      0.994640  
     928A      0.995493   929A      0.998149   930A      1.000118  
     931A      1.005446   932A      1.006226   933A      1.006848  
     934A      1.008314   935A      1.009650   936A      1.010994  
     937A      1.012743   938A      1.015131   939A      1.017489  
     940A      1.017592   941A      1.018935   942A      1.019651  
     943A      1.021137   944A      1.021947   945A      1.023510  
     946A      1.024533   947A      1.024859   948A      1.026248  
     949A      1.028620   950A      1.029770   951A      1.030848  
     952A      1.031386   953A      1.033528   954A      1.035289  
     955A      1.036967   956A      1.038104   957A      1.038505  
     958A      1.041494   959A      1.044313   960A      1.051166  
     961A      1.053260   962A      1.057515   963A      1.059523  
     964A      1.061449   965A      1.062529   966A      1.063048  
     967A      1.065348   968A      1.067489   969A      1.069597  
     970A      1.071032   971A      1.072985   972A      1.076646  
     973A      1.076994   974A      1.078100   975A      1.079186  
     976A      1.079636   977A      1.082646   978A      1.084551  
     979A      1.087614   980A      1.088596   981A      1.093205  
     982A      1.094957   983A      1.095790   984A      1.096413  
     985A      1.098231   986A      1.100718   987A      1.102539  
     988A      1.105105   989A      1.107852   990A      1.108156  
     991A      1.109164   992A      1.111527   993A      1.113642  
     994A      1.115980   995A      1.116491   996A      1.120074  
     997A      1.122852   998A      1.123397   999A      1.123749  
    1000A      1.124776  1001A      1.125050  1002A      1.126344  
    1003A      1.126757  1004A      1.127405  1005A      1.128782  
    1006A      1.130921  1007A      1.132667  1008A      1.134913  
    1009A      1.137668  1010A      1.137836  1011A      1.138400  
    1012A      1.140342  1013A      1.142934  1014A      1.143928  
    1015A      1.144279  1016A      1.145616  1017A      1.147120  
    1018A      1.147339  1019A      1.147912  1020A      1.148977  
    1021A      1.149788  1022A      1.150283  1023A      1.151130  
    1024A      1.152166  1025A      1.152266  1026A      1.153290  
    1027A      1.153703  1028A      1.155120  1029A      1.156441  
    1030A      1.157016  1031A      1.157942  1032A      1.158452  
    1033A      1.159348  1034A      1.159405  1035A      1.159641  
    1036A      1.160263  1037A      1.161101  1038A      1.162293  
    1039A      1.163588  1040A      1.163763  1041A      1.165744  
    1042A      1.166394  1043A      1.167992  1044A      1.170321  
    1045A      1.171472  1046A      1.173547  1047A      1.174242  
    1048A      1.176863  1049A      1.177372  1050A      1.178734  
    1051A      1.180694  1052A      1.184293  1053A      1.185050  
    1054A      1.186186  1055A      1.187639  1056A      1.189752  
    1057A      1.192420  1058A      1.193258  1059A      1.195772  
    1060A      1.197878  1061A      1.198554  1062A      1.200168  
    1063A      1.202073  1064A      1.202692  1065A      1.205624  
    1066A      1.209846  1067A      1.210805  1068A      1.212118  
    1069A      1.212562  1070A      1.213234  1071A      1.214684  
    1072A      1.215276  1073A      1.216722  1074A      1.222330  
    1075A      1.225473  1076A      1.227839  1077A      1.228961  
    1078A      1.229157  1079A      1.230097  1080A      1.232255  
    1081A      1.232439  1082A      1.233535  1083A      1.235712  
    1084A      1.236518  1085A      1.238438  1086A      1.238650  
    1087A      1.241436  1088A      1.242516  1089A      1.244164  
    1090A      1.250085  1091A      1.252337  1092A      1.252696  
    1093A      1.254412  1094A      1.256010  1095A      1.259862  
    1096A      1.261997  1097A      1.262349  1098A      1.263893  
    1099A      1.264715  1100A      1.272504  1101A      1.274326  
    1102A      1.277492  1103A      1.279442  1104A      1.280523  
    1105A      1.281863  1106A      1.283036  1107A      1.284962  
    1108A      1.286434  1109A      1.287714  1110A      1.288547  
    1111A      1.289677  1112A      1.293161  1113A      1.293797  
    1114A      1.294501  1115A      1.295137  1116A      1.296430  
    1117A      1.297070  1118A      1.299954  1119A      1.311175  
    1120A      1.316868  1121A      1.317303  1122A      1.319658  
    1123A      1.324893  1124A      1.326275  1125A      1.327606  
    1126A      1.332481  1127A      1.334787  1128A      1.336715  
    1129A      1.337928  1130A      1.340049  1131A      1.340989  
    1132A      1.342324  1133A      1.344972  1134A      1.345259  
    1135A      1.350870  1136A      1.352356  1137A      1.356161  
    1138A      1.356485  1139A      1.360001  1140A      1.362107  
    1141A      1.366170  1142A      1.369741  1143A      1.371045  
    1144A      1.372491  1145A      1.374082  1146A      1.375933  
    1147A      1.377198  1148A      1.377773  1149A      1.380732  
    1150A      1.381850  1151A      1.386242  1152A      1.387202  
    1153A      1.390272  1154A      1.390673  1155A      1.391510  
    1156A      1.392308  1157A      1.395497  1158A      1.395877  
    1159A      1.399048  1160A      1.399376  1161A      1.401539  
    1162A      1.403019  1163A      1.403980  1164A      1.404960  
    1165A      1.405370  1166A      1.409071  1167A      1.409690  
    1168A      1.411086  1169A      1.412077  1170A      1.414099  
    1171A      1.416318  1172A      1.428149  1173A      1.429897  
    1174A      1.431654  1175A      1.433433  1176A      1.433869  
    1177A      1.434246  1178A      1.436733  1179A      1.437406  
    1180A      1.438308  1181A      1.439979  1182A      1.440798  
    1183A      1.443195  1184A      1.443726  1185A      1.445688  
    1186A      1.451480  1187A      1.454806  1188A      1.455512  
    1189A      1.458335  1190A      1.462747  1191A      1.463240  
    1192A      1.464375  1193A      1.465399  1194A      1.467833  
    1195A      1.469279  1196A      1.477654  1197A      1.478500  
    1198A      1.479874  1199A      1.480691  1200A      1.482535  
    1201A      1.483970  1202A      1.485217  1203A      1.485713  
    1204A      1.486780  1205A      1.488989  1206A      1.490462  
    1207A      1.493869  1208A      1.495302  1209A      1.497007  
    1210A      1.498230  1211A      1.500370  1212A      1.502382  
    1213A      1.503062  1214A      1.506167  1215A      1.506563  
    1216A      1.507602  1217A      1.508396  1218A      1.512334  
    1219A      1.514513  1220A      1.517250  1221A      1.518130  
    1222A      1.518995  1223A      1.523276  1224A      1.527572  
    1225A      1.528678  1226A      1.533219  1227A      1.534005  
    1228A      1.535398  1229A      1.540086  1230A      1.544138  
    1231A      1.546728  1232A      1.547355  1233A      1.548200  
    1234A      1.550146  1235A      1.551852  1236A      1.553327  
    1237A      1.558988  1238A      1.561536  1239A      1.564139  
    1240A      1.565450  1241A      1.574025  1242A      1.575009  
    1243A      1.577050  1244A      1.577847  1245A      1.579349  
    1246A      1.585607  1247A      1.593983  1248A      1.597036  
    1249A      1.600602  1250A      1.615433  1251A      1.618592  
    1252A      1.619396  1253A      1.622605  1254A      1.623604  
    1255A      1.639764  1256A      1.649559  1257A      1.660810  
    1258A      1.668588  1259A      1.669913  1260A      1.674350  
    1261A      1.677331  1262A      1.681005  1263A      1.683322  
    1264A      1.685039  1265A      1.685393  1266A      1.687271  
    1267A      1.688947  1268A      1.692361  1269A      1.693368  
    1270A      1.693504  1271A      1.694455  1272A      1.695059  
    1273A      1.697329  1274A      1.699093  1275A      1.700339  
    1276A      1.701287  1277A      1.704045  1278A      1.705321  
    1279A      1.707549  1280A      1.708607  1281A      1.709681  
    1282A      1.711379  1283A      1.713154  1284A      1.714541  
    1285A      1.717569  1286A      1.718820  1287A      1.720068  
    1288A      1.721047  1289A      1.721636  1290A      1.722566  
    1291A      1.723460  1292A      1.725101  1293A      1.725623  
    1294A      1.727717  1295A      1.729516  1296A      1.729730  
    1297A      1.731352  1298A      1.732866  1299A      1.735063  
    1300A      1.736452  1301A      1.739588  1302A      1.743047  
    1303A      1.744274  1304A      1.744360  1305A      1.746279  
    1306A      1.747480  1307A      1.752125  1308A      1.754236  
    1309A      1.756625  1310A      1.757601  1311A      1.762096  
    1312A      1.763692  1313A      1.767503  1314A      1.768413  
    1315A      1.769888  1316A      1.770432  1317A      1.771892  
    1318A      1.772987  1319A      1.776357  1320A      1.782714  
    1321A      1.782972  1322A      1.784387  1323A      1.786681  
    1324A      1.791226  1325A      1.791598  1326A      1.792288  
    1327A      1.794527  1328A      1.797213  1329A      1.799055  
    1330A      1.801398  1331A      1.805783  1332A      1.808877  
    1333A      1.812012  1334A      1.816200  1335A      1.816900  
    1336A      1.821400  1337A      1.823693  1338A      1.824887  
    1339A      1.827213  1340A      1.839219  1341A      1.843508  
    1342A      1.848764  1343A      1.856550  1344A      1.856939  
    1345A      1.857856  1346A      1.860255  1347A      1.860573  
    1348A      1.860946  1349A      1.888820  1350A      1.890825  
    1351A      1.896838  1352A      1.897815  1353A      1.899711  
    1354A      1.900623  1355A      1.903808  1356A      1.904201  
    1357A      1.906217  1358A      1.908114  1359A      1.909139  
    1360A      1.909761  1361A      1.910635  1362A      1.913749  
    1363A      1.914800  1364A      1.917718  1365A      1.920636  
    1366A      1.922490  1367A      1.924743  1368A      1.929252  
    1369A      1.930340  1370A      1.934571  1371A      1.937156  
    1372A      1.938153  1373A      1.939829  1374A      1.940929  
    1375A      1.944012  1376A      1.946552  1377A      1.948118  
    1378A      1.948598  1379A      1.950028  1380A      1.951240  
    1381A      1.951766  1382A      1.954394  1383A      1.954687  
    1384A      1.956900  1385A      1.959565  1386A      1.960159  
    1387A      1.962695  1388A      1.964195  1389A      1.965838  
    1390A      1.966745  1391A      1.967444  1392A      1.976737  
    1393A      1.978034  1394A      1.985689  1395A      1.985884  
    1396A      1.987619  1397A      1.990361  1398A      1.991438  
    1399A      1.993834  1400A      1.995433  1401A      1.998704  
    1402A      2.001428  1403A      2.004540  1404A      2.006051  
    1405A      2.007014  1406A      2.007624  1407A      2.009886  
    1408A      2.013454  1409A      2.014272  1410A      2.016118  
    1411A      2.016668  1412A      2.017467  1413A      2.020379  
    1414A      2.022130  1415A      2.022647  1416A      2.023341  
    1417A      2.024010  1418A      2.027304  1419A      2.031525  
    1420A      2.032333  1421A      2.035015  1422A      2.036313  
    1423A      2.040067  1424A      2.041009  1425A      2.044911  
    1426A      2.046128  1427A      2.048900  1428A      2.051205  
    1429A      2.051875  1430A      2.054050  1431A      2.057355  
    1432A      2.058013  1433A      2.058692  1434A      2.061804  
    1435A      2.064872  1436A      2.067438  1437A      2.067469  
    1438A      2.070217  1439A      2.071837  1440A      2.074795  
    1441A      2.081308  1442A      2.082800  1443A      2.083548  
    1444A      2.085383  1445A      2.090583  1446A      2.091615  
    1447A      2.093302  1448A      2.094523  1449A      2.096052  
    1450A      2.098858  1451A      2.099308  1452A      2.099666  
    1453A      2.101361  1454A      2.101905  1455A      2.103845  
    1456A      2.106368  1457A      2.108495  1458A      2.109369  
    1459A      2.110081  1460A      2.111592  1461A      2.116057  
    1462A      2.118671  1463A      2.120627  1464A      2.123502  
    1465A      2.124460  1466A      2.128233  1467A      2.129470  
    1468A      2.129789  1469A      2.131527  1470A      2.134463  
    1471A      2.138280  1472A      2.139434  1473A      2.140316  
    1474A      2.142921  1475A      2.144795  1476A      2.147367  
    1477A      2.149721  1478A      2.151396  1479A      2.151693  
    1480A      2.154406  1481A      2.155680  1482A      2.157560  
    1483A      2.158834  1484A      2.159580  1485A      2.160986  
    1486A      2.162505  1487A      2.163174  1488A      2.163693  
    1489A      2.164282  1490A      2.164678  1491A      2.165975  
    1492A      2.166786  1493A      2.168133  1494A      2.168566  
    1495A      2.169771  1496A      2.170622  1497A      2.171183  
    1498A      2.174747  1499A      2.177011  1500A      2.177554  
    1501A      2.179328  1502A      2.180889  1503A      2.182227  
    1504A      2.183107  1505A      2.185166  1506A      2.186466  
    1507A      2.190634  1508A      2.191404  1509A      2.192163  
    1510A      2.192947  1511A      2.194726  1512A      2.196864  
    1513A      2.199232  1514A      2.200674  1515A      2.201981  
    1516A      2.203433  1517A      2.204864  1518A      2.206083  
    1519A      2.207104  1520A      2.207802  1521A      2.210540  
    1522A      2.211925  1523A      2.215850  1524A      2.218381  
    1525A      2.220203  1526A      2.220887  1527A      2.224516  
    1528A      2.225955  1529A      2.229419  1530A      2.230168  
    1531A      2.231761  1532A      2.236613  1533A      2.237314  
    1534A      2.238519  1535A      2.238657  1536A      2.241409  
    1537A      2.242505  1538A      2.243196  1539A      2.245621  
    1540A      2.246368  1541A      2.249446  1542A      2.252007  
    1543A      2.253316  1544A      2.255067  1545A      2.257668  
    1546A      2.259083  1547A      2.261503  1548A      2.261921  
    1549A      2.263356  1550A      2.263883  1551A      2.267659  
    1552A      2.268761  1553A      2.272216  1554A      2.273513  
    1555A      2.274208  1556A      2.276085  1557A      2.277695  
    1558A      2.280717  1559A      2.282240  1560A      2.283600  
    1561A      2.287748  1562A      2.289605  1563A      2.291354  
    1564A      2.292542  1565A      2.296031  1566A      2.296834  
    1567A      2.297687  1568A      2.302228  1569A      2.302983  
    1570A      2.304902  1571A      2.306649  1572A      2.307914  
    1573A      2.309210  1574A      2.312108  1575A      2.314172  
    1576A      2.316900  1577A      2.318022  1578A      2.319016  
    1579A      2.323033  1580A      2.323571  1581A      2.328958  
    1582A      2.330000  1583A      2.335304  1584A      2.336892  
    1585A      2.337869  1586A      2.342180  1587A      2.346073  
    1588A      2.348452  1589A      2.351477  1590A      2.352897  
    1591A      2.353660  1592A      2.359932  1593A      2.360642  
    1594A      2.365418  1595A      2.367551  1596A      2.371873  
    1597A      2.372174  1598A      2.375614  1599A      2.379065  
    1600A      2.381561  1601A      2.384174  1602A      2.390645  
    1603A      2.392078  1604A      2.395159  1605A      2.399259  
    1606A      2.403179  1607A      2.403509  1608A      2.405205  
    1609A      2.406994  1610A      2.409053  1611A      2.410947  
    1612A      2.412390  1613A      2.413066  1614A      2.415065  
    1615A      2.417437  1616A      2.418680  1617A      2.422515  
    1618A      2.422742  1619A      2.424762  1620A      2.428300  
    1621A      2.430016  1622A      2.430850  1623A      2.436229  
    1624A      2.441824  1625A      2.452470  1626A      2.456889  
    1627A      2.465040  1628A      2.467359  1629A      2.469857  
    1630A      2.473331  1631A      2.483091  1632A      2.487886  
    1633A      2.493194  1634A      2.497925  1635A      2.502837  
    1636A      2.505895  1637A      2.512229  1638A      2.518170  
    1639A      2.521036  1640A      2.533316  1641A      2.538020  
    1642A      2.539115  1643A      2.540375  1644A      2.543961  
    1645A      2.544221  1646A      2.546765  1647A      2.548431  
    1648A      2.561447  1649A      2.563053  1650A      2.566372  
    1651A      2.572825  1652A      2.578732  1653A      2.579418  
    1654A      2.585096  1655A      2.587060  1656A      2.594413  
    1657A      2.601029  1658A      2.607760  1659A      2.613386  
    1660A      2.615637  1661A      2.615827  1662A      2.620123  
    1663A      2.623206  1664A      2.624762  1665A      2.625371  
    1666A      2.634622  1667A      2.636364  1668A      2.638415  
    1669A      2.641403  1670A      2.642448  1671A      2.646194  
    1672A      2.649041  1673A      2.651779  1674A      2.656504  
    1675A      2.657283  1676A      2.659846  1677A      2.661233  
    1678A      2.662741  1679A      2.666057  1680A      2.666704  
    1681A      2.667481  1682A      2.670076  1683A      2.678324  
    1684A      2.681623  1685A      2.687142  1686A      2.688420  
    1687A      2.688640  1688A      2.690638  1689A      2.694332  
    1690A      2.699829  1691A      2.702972  1692A      2.713045  
    1693A      2.717186  1694A      2.722156  1695A      2.723575  
    1696A      2.724712  1697A      2.726487  1698A      2.726826  
    1699A      2.727476  1700A      2.729637  1701A      2.733575  
    1702A      2.737634  1703A      2.740378  1704A      2.746382  
    1705A      2.746751  1706A      2.755385  1707A      2.755612  
    1708A      2.757990  1709A      2.758853  1710A      2.764444  
    1711A      2.765496  1712A      2.767988  1713A      2.768734  
    1714A      2.770775  1715A      2.772615  1716A      2.773854  
    1717A      2.777516  1718A      2.778544  1719A      2.795247  
    1720A      2.795380  1721A      2.801432  1722A      2.803370  
    1723A      2.805602  1724A      2.806642  1725A      2.810855  
    1726A      2.833486  1727A      2.845151  1728A      2.850018  
    1729A      2.855743  1730A      2.861885  1731A      2.863175  
    1732A      2.864258  1733A      2.870592  1734A      2.877900  
    1735A      2.878443  1736A      2.880223  1737A      2.880646  
    1738A      2.884184  1739A      2.885111  1740A      2.888506  
    1741A      2.889254  1742A      2.892627  1743A      2.901445  
    1744A      2.905876  1745A      2.907981  1746A      2.910904  
    1747A      2.916059  1748A      2.917836  1749A      2.925506  
    1750A      2.927881  1751A      2.928930  1752A      2.939987  
    1753A      2.941796  1754A      2.947598  1755A      2.949089  
    1756A      2.952616  1757A      2.963654  1758A      2.972672  
    1759A      2.978698  1760A      2.991008  1761A      2.992965  
    1762A      2.997505  1763A      3.001525  1764A      3.004325  
    1765A      3.008343  1766A      3.014055  1767A      3.038180  
    1768A      3.038430  1769A      3.041357  1770A      3.043371  
    1771A      3.052062  1772A      3.065984  1773A      3.076766  
    1774A      3.097731  1775A      3.104387  1776A      3.115437  
    1777A      3.118776  1778A      3.120622  1779A      3.130031  
    1780A      3.134825  1781A      3.135183  1782A      3.136361  
    1783A      3.139097  1784A      3.151290  1785A      3.180188  
    1786A      3.186087  1787A      3.187920  1788A      3.195003  
    1789A      3.202152  1790A      3.204240  1791A      3.207316  
    1792A      3.210229  1793A      3.216990  1794A      3.217746  
    1795A      3.218976  1796A      3.225307  1797A      3.226381  
    1798A      3.230165  1799A      3.235329  1800A      3.240271  
    1801A      3.244796  1802A      3.245727  1803A      3.246447  
    1804A      3.250926  1805A      3.263719  1806A      3.270152  
    1807A      3.272761  1808A      3.296215  1809A      3.334846  
    1810A      3.336193  1811A      3.337452  1812A      3.340325  
    1813A      3.341556  1814A      3.342732  1815A      3.348964  
    1816A      3.352933  1817A      3.353722  1818A      3.355844  
    1819A      3.366406  1820A      3.371850  1821A      3.380879  
    1822A      3.394664  1823A      3.434211  1824A      3.436435  
    1825A      3.465860  1826A      3.483375  1827A      3.511984  
    1828A      3.529900  1829A      3.535950  1830A      3.540563  
    1831A      3.543113  1832A      3.548119  1833A      3.551608  
    1834A      3.556758  1835A      3.558493  1836A      3.568084  
    1837A      3.570907  1838A      3.580937  1839A      3.585578  
    1840A      3.609424  1841A      3.636847  1842A      3.652117  
    1843A      3.659559  1844A      3.665610  1845A      3.671852  
    1846A      3.685287  1847A      3.725952  1848A      3.740852  
    1849A      3.749970  1850A      3.751685  1851A      3.780991  
    1852A      3.786111  1853A      3.831990  1854A      3.837078  
    1855A      3.847516  1856A      3.856310  1857A      3.864821  
    1858A      3.907230  1859A      3.922207  1860A      3.924854  
    1861A      3.950435  1862A      3.959075  1863A      3.977999  
    1864A      3.990556  1865A      4.003773  1866A      4.004378  
    1867A      4.015507  1868A      4.036195  1869A      4.045499  
    1870A      4.052437  1871A      4.067511  1872A      4.069436  
    1873A      4.084802  1874A      4.086697  1875A      4.093498  
    1876A      4.102123  1877A      4.119922  1878A      4.150298  
    1879A      4.171542  1880A      4.182507  1881A      4.224352  
    1882A      4.258239  1883A      4.273237  1884A      4.298623  
    1885A      4.417594  1886A      4.467469  1887A      4.509556  
    1888A      4.512145  1889A      4.543893  1890A      4.550995  
    1891A      4.571875  1892A      4.573857  1893A      4.595930  
    1894A      4.626102  1895A      4.669044  1896A      4.797836  
    1897A      4.983462  1898A      5.038673  

    Final Occupation by Irrep:
              A 
    DOCC [   321 ]
    NA   [   321 ]
    NB   [   321 ]

  @DF-RHF Final Energy: -4072.25209046804366

   => Energetics <=

    Nuclear Repulsion Energy =          18090.2921334357488377
    One-Electron Energy =              -41662.2194608841236914
    Two-Electron Energy =               19499.6752369803325564
    Total Energy =                      -4072.2520904680422973

Computation Completed


Properties will be evaluated at   0.000000,   0.000000,   0.000000 [a0]

Properties computed using the SCF density matrix


 Multipole Moments:

 ------------------------------------------------------------------------------------
     Multipole            Electronic (a.u.)      Nuclear  (a.u.)        Total (a.u.)
 ------------------------------------------------------------------------------------

 L = 1.  Multiply by 2.5417464519 to convert [e a0] to [Debye]
 Dipole X            :          0.0008784           -0.0001188            0.0007595
 Dipole Y            :         -0.0002391           -0.0002727           -0.0005118
 Dipole Z            :         11.5923430          -11.9026711           -0.3103280
 Magnitude           :                                                    0.3103294

 ------------------------------------------------------------------------------------

*** tstop() called on n2cn0227 at Sat Jan 27 13:47:55 2024
Module time:
	user time   =   26784.01 seconds =     446.40 minutes
	system time =    1559.33 seconds =      25.99 minutes
	total time  =       8541 seconds =     142.35 minutes
Total time:
	user time   =   26784.01 seconds =     446.40 minutes
	system time =    1559.33 seconds =      25.99 minutes
	total time  =       8541 seconds =     142.35 minutes

  //>>>>>>>>>>>>>>>>>>>>>>>>>>>>>>>>>>>//
  //            Monomer A HF           //
  //<<<<<<<<<<<<<<<<<<<<<<<<<<<<<<<<<<<//

   => Libint2 <=

    Primary   basis highest AM E, G, H:  5, 4, 3
    Auxiliary basis highest AM E, G, H:  6, 5, 4
    Onebody   basis highest AM E, G, H:  6, 5, 4
    Solid Harmonics ordering:            gaussian

*** tstart() called on n2cn0227
*** at Sat Jan 27 13:47:55 2024

   => Loading Basis Set <=

    Name: JUN-CC-PVDZ
    Role: ORBITAL
    Keyword: BASIS
    atoms 1                                                   entry B          line   130 file /opt/software/pc2/EB-SW/software/PSI4/1.9-foss-2022a/share/psi4/basis/jun-cc-pvdz.gbs 
    atoms 2-5                                                 entry F          line   266 file /opt/software/pc2/EB-SW/software/PSI4/1.9-foss-2022a/share/psi4/basis/jun-cc-pvdz.gbs 
    atoms 6-23, 30-42, 45-59, 62-78, 81-93, 98-108, 111-119   entry C          line   164 file /opt/software/pc2/EB-SW/software/PSI4/1.9-foss-2022a/share/psi4/basis/jun-cc-pvdz.gbs 
    atoms 24-29, 43-44, 60-61, 79-80, 94-97, 109-110, 120-125 entry H          line    36 file /opt/software/pc2/EB-SW/software/PSI4/1.9-foss-2022a/share/psi4/basis/jun-cc-pvdz.gbs 


         ---------------------------------------------------------
                                   SCF
               by Justin Turney, Rob Parrish, Andy Simmonett
                          and Daniel G. A. Smith
                              RHF Reference
                       16 Threads,  61035 MiB Core
         ---------------------------------------------------------

  ==> Geometry <==

    Molecular point group: c1
    Full point group: C1

    Geometry (in Angstrom), charge = -1, multiplicity = 1:

       Center              X                  Y                   Z               Mass       
    ------------   -----------------  -----------------  -----------------  -----------------
         B           -0.000050191042     0.000351518223     1.862239857740    11.009305360000
         F           -1.153601191042     0.000062518223     2.677886857740    18.998403162730
         F            1.153656808958    -0.000566481777     2.677886857740    18.998403162730
         F           -0.000023191042    -1.153622481777     1.046605857740    18.998403162730
         F           -0.000023191042     1.153992518223     1.046605857740    18.998403162730
      Gh(C)          -3.668445455062     7.803766688305    -0.135854100924    12.000000000000
      Gh(C)          -4.847602910388     7.131256349563    -0.138220675857    12.000000000000
      Gh(C)          -4.894963490217     5.696344921754    -0.138793586955    12.000000000000
      Gh(C)          -3.653744869815     4.980744859182    -0.131133145225    12.000000000000
      Gh(C)          -2.409429312536     7.113995554897    -0.135659758664    12.000000000000
      Gh(C)          -2.425481535146     5.681136469126    -0.142664647534    12.000000000000
      Gh(C)          -1.194748207477     7.786158712532    -0.134187578122    12.000000000000
      Gh(C)           0.037954837895     7.099436163980    -0.136358282427    12.000000000000
      Gh(C)           0.030328396378     5.669504077927    -0.141841667343    12.000000000000
      Gh(C)          -1.200988698947     4.969284866138    -0.132871933409    12.000000000000
      Gh(C)           1.277953634773     7.772873961417    -0.134982433867    12.000000000000
      Gh(C)           2.485353893683     7.087711403460    -0.137256921771    12.000000000000
      Gh(C)           2.486124493876     5.654785328463    -0.144194670759    12.000000000000
      Gh(C)           1.254078728602     4.956092631887    -0.132566729171    12.000000000000
      Gh(C)           3.751710400364     7.763926669203    -0.137130070391    12.000000000000
      Gh(C)           4.923561865144     7.078795295213    -0.139186551099    12.000000000000
      Gh(C)           4.955603080284     5.643461981592    -0.139346963906    12.000000000000
      Gh(C)           3.706797343163     4.941224726556    -0.134255403736    12.000000000000
      Gh(H)          -3.658525328800     8.890841937358    -0.134169112674     1.007825032230
      Gh(H)          -1.189217520798     8.874135605583    -0.130215701681     1.007825032230
      Gh(H)           1.284290047845     8.860847953711    -0.130823609726     1.007825032230
      Gh(H)           3.753537895758     8.851049797195    -0.135607546075     1.007825032230
      Gh(H)           5.869954512165     7.613809352878    -0.140111918141     1.007825032230
[...]
    1531A      2.190231  1532A      2.191855  1533A      2.195637  
    1534A      2.196238  1535A      2.200252  1536A      2.203724  
    1537A      2.204670  1538A      2.205961  1539A      2.206354  
    1540A      2.206789  1541A      2.209049  1542A      2.213834  
    1543A      2.216405  1544A      2.217260  1545A      2.220301  
    1546A      2.220521  1547A      2.222635  1548A      2.227699  
    1549A      2.228132  1550A      2.230251  1551A      2.230706  
    1552A      2.232062  1553A      2.232688  1554A      2.232909  
    1555A      2.236881  1556A      2.237023  1557A      2.239009  
    1558A      2.246331  1559A      2.248129  1560A      2.253480  
    1561A      2.258747  1562A      2.259159  1563A      2.265856  
    1564A      2.269349  1565A      2.270972  1566A      2.274206  
    1567A      2.274431  1568A      2.277307  1569A      2.281827  
    1570A      2.283750  1571A      2.286324  1572A      2.287401  
    1573A      2.289257  1574A      2.292676  1575A      2.296089  
    1576A      2.297578  1577A      2.297998  1578A      2.300908  
    1579A      2.303919  1580A      2.308614  1581A      2.312569  
    1582A      2.314853  1583A      2.322548  1584A      2.324404  
    1585A      2.325964  1586A      2.329124  1587A      2.330148  
    1588A      2.331920  1589A      2.332682  1590A      2.333192  
    1591A      2.334747  1592A      2.336373  1593A      2.340713  
    1594A      2.342039  1595A      2.343358  1596A      2.345266  
    1597A      2.346469  1598A      2.346775  1599A      2.347236  
    1600A      2.354909  1601A      2.355858  1602A      2.360083  
    1603A      2.372372  1604A      2.383862  1605A      2.383966  
    1606A      2.388653  1607A      2.389245  1608A      2.394721  
    1609A      2.407067  1610A      2.407857  1611A      2.413308  
    1612A      2.419597  1613A      2.419938  1614A      2.422718  
    1615A      2.432674  1616A      2.436247  1617A      2.437850  
    1618A      2.447433  1619A      2.450538  1620A      2.458453  
    1621A      2.461450  1622A      2.462803  1623A      2.466866  
    1624A      2.468238  1625A      2.470240  1626A      2.472027  
    1627A      2.483237  1628A      2.488702  1629A      2.493211  
    1630A      2.496483  1631A      2.499824  1632A      2.506082  
    1633A      2.510894  1634A      2.512207  1635A      2.515422  
    1636A      2.517232  1637A      2.518008  1638A      2.529802  
    1639A      2.539687  1640A      2.542974  1641A      2.544525  
    1642A      2.546789  1643A      2.547566  1644A      2.550429  
    1645A      2.554227  1646A      2.555794  1647A      2.559589  
    1648A      2.560414  1649A      2.562590  1650A      2.564612  
    1651A      2.567160  1652A      2.571874  1653A      2.572420  
    1654A      2.581538  1655A      2.585781  1656A      2.586534  
    1657A      2.587503  1658A      2.588730  1659A      2.590111  
    1660A      2.591867  1661A      2.593350  1662A      2.593787  
    1663A      2.595219  1664A      2.603690  1665A      2.604094  
    1666A      2.614728  1667A      2.614979  1668A      2.615561  
    1669A      2.617360  1670A      2.620813  1671A      2.628667  
    1672A      2.637609  1673A      2.644650  1674A      2.648490  
    1675A      2.648635  1676A      2.650166  1677A      2.652315  
    1678A      2.653203  1679A      2.656119  1680A      2.657692  
    1681A      2.657914  1682A      2.661030  1683A      2.668601  
    1684A      2.671390  1685A      2.672958  1686A      2.673540  
    1687A      2.674225  1688A      2.676239  1689A      2.681509  
    1690A      2.683151  1691A      2.690252  1692A      2.690616  
    1693A      2.692737  1694A      2.693675  1695A      2.694527  
    1696A      2.696100  1697A      2.699658  1698A      2.701150  
    1699A      2.705729  1700A      2.717967  1701A      2.724485  
    1702A      2.727886  1703A      2.731762  1704A      2.732413  
    1705A      2.735253  1706A      2.738245  1707A      2.756426  
    1708A      2.777784  1709A      2.780303  1710A      2.783773  
    1711A      2.790948  1712A      2.793176  1713A      2.795493  
    1714A      2.801376  1715A      2.802023  1716A      2.802802  
    1717A      2.805963  1718A      2.814691  1719A      2.816732  
    1720A      2.818692  1721A      2.821265  1722A      2.827989  
    1723A      2.828851  1724A      2.830743  1725A      2.834192  
    1726A      2.843236  1727A      2.845765  1728A      2.850069  
    1729A      2.851808  1730A      2.857925  1731A      2.861675  
    1732A      2.868587  1733A      2.869670  1734A      2.874220  
    1735A      2.876674  1736A      2.878524  1737A      2.895650  
    1738A      2.896125  1739A      2.901637  1740A      2.917582  
    1741A      2.919058  1742A      2.927332  1743A      2.930404  
    1744A      2.931889  1745A      2.939543  1746A      2.947667  
    1747A      2.962599  1748A      2.966790  1749A      2.969566  
    1750A      2.975288  1751A      2.982184  1752A      2.991954  
    1753A      2.993823  1754A      3.020773  1755A      3.031161  
    1756A      3.039007  1757A      3.045830  1758A      3.049260  
    1759A      3.051247  1760A      3.057709  1761A      3.059028  
    1762A      3.060451  1763A      3.068511  1764A      3.072613  
    1765A      3.074592  1766A      3.111352  1767A      3.112245  
    1768A      3.116411  1769A      3.125736  1770A      3.130975  
    1771A      3.131514  1772A      3.143579  1773A      3.144018  
    1774A      3.148372  1775A      3.152312  1776A      3.155141  
    1777A      3.156022  1778A      3.157136  1779A      3.157541  
    1780A      3.162330  1781A      3.169125  1782A      3.173286  
    1783A      3.173830  1784A      3.184754  1785A      3.189049  
    1786A      3.194906  1787A      3.204340  1788A      3.222323  
    1789A      3.261669  1790A      3.264608  1791A      3.264717  
    1792A      3.265087  1793A      3.266680  1794A      3.269090  
    1795A      3.276964  1796A      3.278077  1797A      3.278986  
    1798A      3.285845  1799A      3.299858  1800A      3.307699  
    1801A      3.324619  1802A      3.331503  1803A      3.364223  
    1804A      3.366249  1805A      3.397676  1806A      3.421782  
    1807A      3.435984  1808A      3.458427  1809A      3.461421  
    1810A      3.463981  1811A      3.467029  1812A      3.475155  
    1813A      3.477258  1814A      3.480828  1815A      3.484044  
    1816A      3.493316  1817A      3.499313  1818A      3.510681  
    1819A      3.521608  1820A      3.537854  1821A      3.552174  
    1822A      3.567257  1823A      3.583614  1824A      3.588267  
    1825A      3.593309  1826A      3.607103  1827A      3.655142  
    1828A      3.662264  1829A      3.673614  1830A      3.677118  
    1831A      3.707331  1832A      3.745392  1833A      3.763331  
    1834A      3.768392  1835A      3.778994  1836A      3.780578  
    1837A      3.792735  1838A      3.849885  1839A      3.850481  
    1840A      3.876152  1841A      3.880831  1842A      3.923233  
    1843A      3.924654  1844A      3.948449  1845A      3.950403  
    1846A      3.967733  1847A      3.974631  1848A      3.992501  
    1849A      4.000327  1850A      4.023393  1851A      4.027500  
    1852A      4.078466  1853A      4.102039  1854A      4.279861  
    1855A      4.417749  1856A      4.442186  1857A      4.556079  
    1858A      4.670818  1859A      4.909377  1860A      5.053361  
    1861A      5.132781  1862A      5.780295  1863A      5.792139  
    1864A      5.839605  1865A      5.843727  1866A      5.868115  
    1867A      5.949331  1868A      5.957922  1869A      6.020146  
    1870A      6.032731  1871A      6.057169  1872A      6.163895  
    1873A      6.221436  1874A      6.242108  1875A      6.298142  
    1876A      6.399469  1877A      6.411049  1878A      6.455781  
    1879A      6.482588  1880A      6.652774  1881A      6.695926  
    1882A      7.441893  1883A      7.457849  1884A      7.508776  
    1885A      7.555740  1886A      7.778181  1887A      7.792632  
    1888A      7.833751  1889A      7.851271  1890A      7.968386  
    1891A      8.169517  1892A      8.325237  1893A      8.400344  
    1894A     13.428145  1895A     42.970417  1896A     42.971761  
    1897A     42.973089  1898A     43.004895  

    Final Occupation by Irrep:
              A 
    DOCC [   300 ]
    NA   [   300 ]
    NB   [   300 ]

  @DF-RHF Final Energy: -3650.34161294739943

   => Energetics <=

    Nuclear Repulsion Energy =          15611.4211649754324753
    One-Electron Energy =              -36072.1755149392192834
    Two-Electron Energy =               16810.4127370163878368
    Total Energy =                      -3650.3416129473989713

Computation Completed


Properties will be evaluated at   0.000000,   0.000000,   0.000000 [a0]

Properties computed using the SCF density matrix


 Multipole Moments:

 ------------------------------------------------------------------------------------
     Multipole            Electronic (a.u.)      Nuclear  (a.u.)        Total (a.u.)
 ------------------------------------------------------------------------------------

 L = 1.  Multiply by 2.5417464519 to convert [e a0] to [Debye]
 Dipole X            :          0.0001316            0.0001983            0.0003299
 Dipole Y            :          0.0008747           -0.0013163           -0.0004416
 Dipole Z            :        156.1916609         -156.1871690            0.0044919
 Magnitude           :                                                    0.0045256

 ------------------------------------------------------------------------------------

*** tstop() called on n2cn0227 at Sat Jan 27 15:44:48 2024
Module time:
	user time   =   16755.38 seconds =     279.26 minutes
	system time =     965.76 seconds =      16.10 minutes
	total time  =       4576 seconds =      76.27 minutes
Total time:
	user time   =   47512.18 seconds =     791.87 minutes
	system time =    2822.53 seconds =      47.04 minutes
	total time  =      15554 seconds =     259.23 minutes
  Constructing Basis Sets for SAPT...

   => Loading Basis Set <=

    Name: (JUN-CC-PVDZ AUX)
    Role: RIFIT
    Keyword: DF_BASIS_SAPT
    atoms 1                                                   entry B          line    56 file /opt/software/pc2/EB-SW/software/PSI4/1.9-foss-2022a/share/psi4/basis/jun-cc-pvdz-ri.gbs 
    atoms 2-5                                                 entry F          line   232 file /opt/software/pc2/EB-SW/software/PSI4/1.9-foss-2022a/share/psi4/basis/jun-cc-pvdz-ri.gbs 
    atoms 6-23, 30-42, 45-59, 62-78, 81-93, 98-108, 111-119   entry C          line   100 file /opt/software/pc2/EB-SW/software/PSI4/1.9-foss-2022a/share/psi4/basis/jun-cc-pvdz-ri.gbs 
    atoms 24-29, 43-44, 60-61, 79-80, 94-97, 109-110, 120-125 entry H          line    30 file /opt/software/pc2/EB-SW/software/PSI4/1.9-foss-2022a/share/psi4/basis/jun-cc-pvdz-ri.gbs 

   => Loading Basis Set <=

    Name: (JUN-CC-PVDZ AUX)
    Role: JKFIT
    Keyword: DF_BASIS_ELST
    atoms 1                                                   entry B          line    90 file /opt/software/pc2/EB-SW/software/PSI4/1.9-foss-2022a/share/psi4/basis/jun-cc-pvdz-jkfit.gbs 
    atoms 2-5                                                 entry F          line   314 file /opt/software/pc2/EB-SW/software/PSI4/1.9-foss-2022a/share/psi4/basis/jun-cc-pvdz-jkfit.gbs 
    atoms 6-23, 30-42, 45-59, 62-78, 81-93, 98-108, 111-119   entry C          line   146 file /opt/software/pc2/EB-SW/software/PSI4/1.9-foss-2022a/share/psi4/basis/jun-cc-pvdz-jkfit.gbs 
    atoms 24-29, 43-44, 60-61, 79-80, 94-97, 109-110, 120-125 entry H          line    70 file /opt/software/pc2/EB-SW/software/PSI4/1.9-foss-2022a/share/psi4/basis/jun-cc-pvdz-jkfit.gbs 


  //>>>>>>>>>>>>>>>>>>>>>>>>>>>>>>>>>>>//
  //               SSAPT0              //
  //<<<<<<<<<<<<<<<<<<<<<<<<<<<<<<<<<<<//


*** tstart() called on n2cn0227
*** at Sat Jan 27 15:44:50 2024

        SAPT0  
    Ed Hohenstein
     6 June 2009

      Orbital Information
  --------------------------
    NSO        =      1938
    NMO        =      1898
    NRI        =      6901
    NRI (Elst) =      8531
    NOCC A     =        21
    NOCC B     =       300
    FOCC A     =         5
    FOCC B     =        96
    NVIR A     =      1877
    NVIR B     =      1598

    Elst10,r            =    -1.165389857538 [Eh]
    Exch10              =     2.563276698021 [Eh]
    Exch10 (S^2)        =     2.001110219937 [Eh]

    Iter     Energy [mEh]          dE [mEh]         Residual      Time [s]
       1    -648.10971187     648.109711875     198.980082060           431
       2    -720.58791059      72.478198715      80.362692859           835
       3    -764.17347217      43.585561580      18.850458096          1320
       4    -764.95617128       0.782699106       4.278819684          2428
       5    -763.39739736      -1.558773919       1.066383316          3001
       6    -763.34116016      -0.056237197       0.307634258          3449
       7    -763.40287776       0.061717598       0.072458067          3845
       8    -763.40548806       0.002610300       0.014202163          4361
       9    -763.40270808      -0.002779978       0.002275662          4855
      10    -763.40303713       0.000329054       0.000439777          5155
      11    -763.40302567      -0.000011466       0.000073417          5596
      12    -763.40301906      -0.000006612       0.000018628          6123
      13    -763.40302010       0.000001044       0.000006063          6586
      14    -763.40302058       0.000000485       0.000001578          6953
      15    -763.40302046      -0.000000126       0.000000175          7338

    CHF Iterations converged


    Iter     Energy [mEh]          dE [mEh]         Residual      Time [s]
       1   -1181.05779368    1181.057793681     228.175613205           489
       2   -1278.15361902      97.095825334     105.385865134           885
       3   -1408.76295083     130.609331818      43.722668444          1290
       4   -1413.54625785       4.783307014      22.513113493          1701
       5   -1401.51100801     -12.035249839      10.388977385          2080
       6   -1400.72625693      -0.784751077       5.567715773          2479
       7   -1403.02023929       2.293982363       2.881342933          2850
       8   -1403.49183395       0.471594653       1.512738984          3238
       9   -1403.02089688      -0.470937072       0.749539205          3618
      10   -1402.91043548      -0.110461400       0.343388191          3939
      11   -1402.99153106       0.081095583       0.143942669          4276
      12   -1403.01332986       0.021798801       0.063004906          4633
      13   -1403.00564134      -0.007688523       0.032684946          4973
      14   -1402.99850944      -0.007131895       0.020569087          5338
      15   -1403.00051875       0.002009308       0.014880821          5659
      16   -1403.00249893       0.001980178       0.009609135          5960
      17   -1403.00211769      -0.000381240       0.004771405          6333
      18   -1403.00125933      -0.000858359       0.001958358          6686
      19   -1403.00135302       0.000093691       0.000848805          7141
      20   -1403.00148659       0.000133565       0.000444398          7471
      21   -1403.00148417      -0.000002419       0.000237761          7828
      22   -1403.00144881      -0.000035352       0.000104264          8112
      23   -1403.00144750      -0.000001317       0.000047248          8553
      24   -1403.00145231       0.000004814       0.000019768          8957
      25   -1403.00145308       0.000000774       0.000008875          9399
      26   -1403.00145258      -0.000000500       0.000003716          9748
      27   -1403.00145229      -0.000000290       0.000001842         10101
      28   -1403.00145235       0.000000057       0.000000996         10460

    CHF Iterations converged

    Ind20,r (A<-B)      =    -0.763403020458 [Eh]
    Ind20,r (B<-A)      =    -1.403001452352 [Eh]
    Ind20,r             =    -2.166404472810 [Eh]
    Exch-Ind20,r (A<-B) =     0.311487657339 [Eh]
    Exch-Ind20,r (B<-A) =     0.728807724432 [Eh]
    Exch-Ind20,r        =     1.040295381772 [Eh]
    Disp20              =    -0.271908668382 [Eh]
    Disp20 (SS)         =    -0.135954334191 [Eh]
    Disp20 (OS)         =    -0.135954334191 [Eh]
    Exch-Disp20         =     0.112323238964 [Eh]
    Exch-Disp20 (SS)    =     0.048655231104 [Eh]
    Exch-Disp20 (OS)    =     0.063668007860 [Eh]

    SAPT Results 
  --------------------------------------------------------------------------------------------------------
    Electrostatics              -1165.38985754 [mEh]    -731.29317625 [kcal/mol]   -3059.73064943 [kJ/mol]
      Elst10,r                  -1165.38985754 [mEh]    -731.29317625 [kcal/mol]   -3059.73064943 [kJ/mol]

    Exchange                     2563.27669802 [mEh]    1608.48041192 [kcal/mol]    6729.88204348 [kJ/mol]
      Exch10                     2563.27669802 [mEh]    1608.48041192 [kcal/mol]    6729.88204348 [kJ/mol]
      Exch10(S^2)                2001.11021994 [mEh]    1255.71562108 [kcal/mol]    5253.91415861 [kJ/mol]

    Induction                    -527.65929675 [mEh]    -331.11120764 [kcal/mol]   -1385.36929277 [kJ/mol]
      Ind20,r                   -2166.40447281 [mEh]   -1359.43933072 [kcal/mol]   -5687.89415974 [kJ/mol]
      Exch-Ind20,r               1040.29538177 [mEh]     652.79520759 [kcal/mol]    2731.29514855 [kJ/mol]
      delta HF,r (2)              598.44979428 [mEh]     375.53291549 [kcal/mol]    1571.22971842 [kJ/mol]

    Dispersion                   -159.58542942 [mEh]    -100.14136884 [kcal/mol]    -418.99148721 [kJ/mol]
      Disp20                     -271.90866838 [mEh]    -170.62526541 [kcal/mol]    -713.89611048 [kJ/mol]
      Exch-Disp20                 112.32323896 [mEh]      70.48389658 [kcal/mol]     294.90462327 [kJ/mol]
      Disp20 (SS)                -135.95433419 [mEh]     -85.31263271 [kcal/mol]    -356.94805524 [kJ/mol]
      Disp20 (OS)                -135.95433419 [mEh]     -85.31263271 [kcal/mol]    -356.94805524 [kJ/mol]
      Exch-Disp20 (SS)             48.65523110 [mEh]      30.53161847 [kcal/mol]     127.74429167 [kJ/mol]
      Exch-Disp20 (OS)             63.66800786 [mEh]      39.95227811 [kcal/mol]     167.16033161 [kJ/mol]

  Total HF                        870.22754373 [mEh]     546.07602803 [kcal/mol]    2284.78210129 [kJ/mol]
  Total SAPT0                     710.64211431 [mEh]     445.93465920 [kcal/mol]    1865.79061408 [kJ/mol]

  Special recipe for scaled SAPT0 (see Manual):
    Electrostatics sSAPT0       -1165.38985754 [mEh]    -731.29317625 [kcal/mol]   -3059.73064943 [kJ/mol]
    Exchange sSAPT0              2563.27669802 [mEh]    1608.48041192 [kcal/mol]    6729.88204348 [kJ/mol]
    Induction sSAPT0              618.44779038 [mEh]     388.08184750 [kcal/mol]    1623.73444994 [kJ/mol]
    Dispersion sSAPT0             -35.83744160 [mEh]     -22.48833412 [kcal/mol]     -94.09118997 [kJ/mol]
  Total sSAPT0                   1980.49718926 [mEh]    1242.78074905 [kcal/mol]    5199.79465403 [kJ/mol]
  --------------------------------------------------------------------------------------------------------

*** tstop() called on n2cn0227 at Mon Jan 29 10:17:22 2024
Module time:
	user time   =   66833.89 seconds =    1113.90 minutes
	system time =    4161.77 seconds =      69.36 minutes
	total time  =     153152 seconds =    2552.53 minutes
Total time:
	user time   =  114347.41 seconds =    1905.79 minutes
	system time =    6984.30 seconds =     116.41 minutes
	total time  =     168708 seconds =    2811.80 minutes

    Psi4 stopped on: Monday, 29 January 2024 10:17AM
    Psi4 wall time for execution: 1 day, 22:51:48.75

*** Psi4 exiting successfully. Buy a developer a beer!
