
    -----------------------------------------------------------------------
          Psi4: An Open-Source Ab Initio Electronic Structure Package
                               Psi4 1.9 release

                         Git: Rev {} zzzzzzz 


    D. G. A. Smith, L. A. Burns, A. C. Simmonett, R. M. Parrish,
    M. C. Schieber, R. Galvelis, P. Kraus, H. Kruse, R. Di Remigio,
    A. Alenaizan, A. M. James, S. Lehtola, J. P. Misiewicz, M. Scheurer,
    R. A. Shaw, J. B. Schriber, Y. Xie, Z. L. Glick, D. A. Sirianni,
    J. S. O'Brien, J. M. Waldrop, A. Kumar, E. G. Hohenstein,
    B. P. Pritchard, B. R. Brooks, H. F. Schaefer III, A. Yu. Sokolov,
    K. Patkowski, A. E. DePrince III, U. Bozkaya, R. A. King,
    F. A. Evangelista, J. M. Turney, T. D. Crawford, C. D. Sherrill,
    J. Chem. Phys. 152(18) 184108 (2020). https://doi.org/10.1063/5.0006002

                            Additional Code Authors
    E. T. Seidl, C. L. Janssen, E. F. Valeev, M. L. Leininger,
    J. F. Gonthier, R. M. Richard, H. R. McAlexander, M. Saitow, X. Wang,
    P. Verma, M. H. Lechner, A. Jiang, S. Behnle, A. G. Heide,
    M. F. Herbst, and D. L. Poole

             Previous Authors, Complete List of Code Contributors,
                       and Citations for Specific Modules
    https://github.com/psi4/psi4/blob/master/codemeta.json
    https://github.com/psi4/psi4/graphs/contributors
    http://psicode.org/psi4manual/master/introduction.html#citing-psifour

    -----------------------------------------------------------------------


    Psi4 started on: Friday, 26 January 2024 11:20PM

    Process ID: 3489751
    Host:       n2cn0686.ab2021.local
    PSIDATADIR: /opt/software/pc2/EB-SW/software/PSI4/1.9-foss-2022a/share/psi4
    Memory:     500.0 MiB
    Threads:    16
    
  ==> Input File <==

--------------------------------------------------------------------------
memory 64 GB # how much memory is available ! Depends on the nodes/cores !

molecule dimer {
# monomer A
+1 1    # Charge and multiplicity
C  0.680067 -1.215929 7.608042
C -0.680504 -1.215545 7.606014
N -1.085635  0.102779 7.605016
C  0.000108  0.884180 7.601740
C -2.477365  0.570758 7.555610
N  1.085222  0.102779 7.605016
H  1.385146 -2.033368 7.615870
H -1.385302 -2.033214 7.606204
H -0.000009  1.965269 7.599993
C  2.478117  0.567877 7.621908
H  2.490592  1.658130 7.594563
H  2.967028  0.220701 8.535354
H  3.001428  0.176405 6.746425
H -2.857359  0.490799 6.533539
H -3.082679 -0.042306 8.225694
H -2.518128  1.610706 7.882594
--
# monomer B
0 1     # Charge and multiplicity
C   -3.66844126402057      7.80375217008252      0.00190004133558
C   -4.84759871934653      7.13124183134024     -0.00046653359696
C   -4.89495929917518      5.69633040353158     -0.00103944469517
C   -3.65374067877320      4.98073034095895      0.00662099703436
C   -2.40942512149445      7.11398103667468      0.00209438359570
C   -2.42547734410473      5.68112195090346     -0.00491050527438
C   -1.19474401643570      7.78614419430947      0.00356656413763
C   0.03795902893699      7.09942164575698      0.00139585983271
C   0.03033258741920      5.66948955970466     -0.00408752508301
C   -1.20098450790502      4.96927034791531      0.00488220885047
C   1.27795782581485      7.77285944319479      0.00277170839332
C   2.48535808472416      7.08769688523756      0.00049722048857
C   2.48612868491717      5.65477081024076     -0.00644052849921
C   1.25408291964399      4.95607811366431      0.00518741308898
C   3.75171459140595      7.76391215098033      0.00062407186893
C   4.92356605618520      7.07878077698995     -0.00143240883900
C   4.95560727132542      5.64344746336949     -0.00159282164606
C   3.70680153420475      4.94121020833308      0.00349873852374
H   -3.65852113775815      8.89082741913536      0.00358502958574
H   -1.18921332975660      8.87412108735996      0.00753844057883
H   1.28429423888630      8.86083343548850      0.00693053253426
H   3.75354208679975      8.85103527897216      0.00214659618464
H   5.86995870320703      7.61379483465560     -0.00235777588134
H   -5.78823170750226      7.67630221293400     -0.00202638095293
C   -6.09197395869619      4.99326001364347     -0.00291168518608
C   -6.12866148031747      3.58258016879823     -0.00171050815740
C   -3.66457974004527      3.56418217974434     -0.00463560277484
C   -4.89429820469869      2.86108077590057      0.00453338221034
C   -2.43733499489796      2.84761165708481      0.00719617576166
C   -1.20922785759670      3.54788693497833     -0.00648285103018
C   1.24714157216223      3.53468075142962     -0.00729145743546
C   0.01517603956900      2.83311183930540      0.00439272578912
C   2.46764517244071      2.82128997725533      0.00449278391269
C   3.70254947457969      3.52466015442405     -0.00899517692985
C   6.14498038638375      4.92757236613191     -0.00282626685777
C   6.16658835886151      3.51658447594213     -0.00065971342101
C   4.92460995845939      2.80840792535402      0.00587903281610
H   7.08990550964105      5.46688776622306     -0.00658814770723
H   -7.03104175110130      5.54268795285765     -0.00714490013730
C   -7.33969804112295      2.85841153457957     -0.00333767559888
C   -7.36488195805880      1.47032337158330     -0.00157213747140
C   -4.90350460894690      1.44442681216000     -0.00628840166334
C   -6.13225715261081      0.73993935705394      0.00600164231964
C   -3.67687480051673      0.72669714267312      0.00433931473643
C   -2.44565658606518      1.42964113326212     -0.00597039546461
C   -1.22360068130162      0.71532450163492      0.00545886906656
C   0.00763786931376      1.41738314923765      0.00392452278437
C   1.23121980774686      0.70211669058719     -0.01490206287210
C   2.46082110053113      1.40329203612573      0.00460244601878
C   3.68443025419614      0.68719842821222      0.00377365974158
C   4.91870890153864      1.39173456118907     -0.00862816189375
C   7.36980207796101      2.77948220318441     -0.00242013321349
C   7.38016266612146      1.39121750785509     -0.00087345036788
C   6.13979953912259      0.67411862320065      0.00545489144369
H   -8.27919079934664      3.40711804112415     -0.00763522772059
H   8.31511347147953      3.31811809662368     -0.00663070901292
C   -8.59175593758115      0.72483255304480     -0.00123170985383
C   -8.59902460370342     -0.63263980622873      0.00089141472904
C   -6.13981313911873     -0.67413663715361     -0.00609792660607
C   -7.38018411213749     -1.39126618958160      0.00131813493501
C   -4.91868448025621     -1.39175501803000      0.00624257154343
C   -3.68443829568458     -0.68723731573599     -0.00478966852105
C   -2.46081704024768     -1.40334517882457      0.00575341766833
C   -1.23116201232071     -0.70217386488055     -0.00636696112346
C   -0.00756962538737     -1.41741884941102      0.00108956317991
C   1.22364771588843     -0.71527537726392      0.01109518512883
C   2.44567064933149     -1.42964328900682     -0.00065482763106
C   3.67686670284649     -0.72670743155550     -0.00479541202602
C   6.13224884641929     -0.73997883984993     -0.00632338623858
C   4.90351914550401     -1.44445752054090      0.00751768830159
C   8.59901484869081      0.63260386666793     -0.00101133422380
C   8.59174548810050     -0.72485086719319      0.00072504603735
C   7.36486276438985     -1.47033266560598      0.00049486934466
H   -9.52830597181814      1.27684744919284     -0.00270163681798
H   9.54141097460619      1.17457248844457     -0.00206336648518
C   -7.36983790976868     -2.77954514593389      0.00312634335708
C   -4.92459910905015     -2.80843725734101     -0.00460528907921
C   -6.16662249566744     -3.51665219282533      0.00169655107992
C   -3.70251035970491     -3.52468154912026      0.00571878010666
C   -2.46764698511392     -2.82132596280400     -0.00632585824990
C   -0.01513347410770     -2.83314164539971     -0.00604426974092
C   -1.24712184122656     -3.53473217556300      0.00551968366725
C   1.20924506964357     -3.54791467864352      0.00805871345849
C   2.43733602215464     -2.84764173817541     -0.00608104485234
C   4.89430234377080     -2.86112296828604     -0.00526030478103
C   3.66461525504104     -3.56421984553201      0.00761911515957
C   6.12863901474565     -3.58258405771778      0.00096495711699
C   7.33967266469532     -2.85841330737039      0.00248018319869
H   -9.54144911125902     -1.17456346666430      0.00226083090216
H   9.52826186807155     -1.27691907390448      0.00197485379837
H   -8.31516504384864     -3.31814985321231      0.00729857188773
H   8.27915514249207     -3.40714078989363      0.00681973918158
C   -6.14499418870218     -4.92764727278338      0.00302254913999
C   -3.70678334799751     -4.94126171411716     -0.00679841894792
C   -4.95559005800169     -5.64349397349412      0.00116871569699
C   -2.48612132622665     -5.65478557440947      0.00614125209662
C   -1.25405833548005     -4.95612205000132     -0.00503435388927
C   1.20101257386816     -4.96928038819302     -0.00385322963129
C   -0.03033667441341     -5.66952030313900      0.00398997003238
C   3.65375010132847     -4.98074377541453     -0.00309522988330
C   2.42549269587528     -5.68117463552727      0.00628170066869
C   6.09196561781097     -4.99325796338655      0.00325918379042
C   4.89497644461045     -5.69634842095790      0.00202298796027
H   -7.08989238804069     -5.46699984223871      0.00742531082125
H   7.03105520920009     -5.54265853633254      0.00683896355417
C   -4.92354532219813     -7.07882109967734      0.00061394679214
C   -2.48534208823777     -7.08772807792913     -0.00189594564379
C   -3.75168589177895     -7.76394715763627     -0.00170126671874
C   -0.03794895698805     -7.09946487446944     -0.00168022049625
C   -1.27795610040136     -7.77290438466689     -0.00366491325785
C   2.40944432072629     -7.11402201200282     -0.00081701968533
C   1.19474993715296     -7.78618536556242     -0.00296931056689
C   4.84762105249800     -7.13126211057943      0.00168979497423
C   3.66847160587561     -7.80378799294376     -0.00065863938960
H   -5.86994035041618     -7.61383059804164      0.00215798365757
H   5.78824962538815     -7.67633218931421      0.00281691445618
H   -3.75352693944918     -8.85107156923607     -0.00353718114765
H   -1.28430440589466     -8.86087539249706     -0.00809229711623
H   1.18922157469537     -8.87416062058945     -0.00706194725726
H   3.65854661482387     -8.89086063405326     -0.00231318081200

    units angstrom      # Angstroms are the default
    no_reorient         # Geometry fixed, default
    symmetry c1         # C1 symmetry, default
}

set {
    scf_type DF         # Density fitting, faster than exact integrals
    freeze_core True    # Freeze core electrons
    basis jun-cc-pVDZ   # Jun-cc-pVDZ basis set, recommended for sSAPT0 in https://doi.org/10.1063/1.4867135
}

energy('ssapt0')        # Compute sSAPT0 energy, includes also SAPT0
--------------------------------------------------------------------------

  Memory set to  59.605 GiB by Python driver.

Scratch directory: /tmp/
   => Loading Basis Set <=

    Name: JUN-CC-PVDZ
    Role: ORBITAL
    Keyword: BASIS
    atoms 1-2, 4-5, 10, 17-34, 41-53, 56-70, 73-89, 92-104, 109-119, 122-130 entry C          line   164 file /opt/software/pc2/EB-SW/software/PSI4/1.9-foss-2022a/share/psi4/basis/jun-cc-pvdz.gbs 
    atoms 3, 6                                                               entry N          line   198 file /opt/software/pc2/EB-SW/software/PSI4/1.9-foss-2022a/share/psi4/basis/jun-cc-pvdz.gbs 
    atoms 7-9, 11-16, 35-40, 54-55, 71-72, 90-91, 105-108, 120-121, 131-136  entry H          line    36 file /opt/software/pc2/EB-SW/software/PSI4/1.9-foss-2022a/share/psi4/basis/jun-cc-pvdz.gbs 

   => Loading Basis Set <=

    Name: JUN-CC-PVDZ
    Role: ORBITAL
    Keyword: BASIS
    atoms 1-2, 4-5, 10, 17-34, 41-53, 56-70, 73-89, 92-104, 109-119, 122-130 entry C          line   164 file /opt/software/pc2/EB-SW/software/PSI4/1.9-foss-2022a/share/psi4/basis/jun-cc-pvdz.gbs 
    atoms 3, 6                                                               entry N          line   198 file /opt/software/pc2/EB-SW/software/PSI4/1.9-foss-2022a/share/psi4/basis/jun-cc-pvdz.gbs 
    atoms 7-9, 11-16, 35-40, 54-55, 71-72, 90-91, 105-108, 120-121, 131-136  entry H          line    36 file /opt/software/pc2/EB-SW/software/PSI4/1.9-foss-2022a/share/psi4/basis/jun-cc-pvdz.gbs 


  //>>>>>>>>>>>>>>>>>>>>>>>>>>>>>>>>>>>//
  //              Dimer HF             //
  //<<<<<<<<<<<<<<<<<<<<<<<<<<<<<<<<<<<//

   => Libint2 <=

    Primary   basis highest AM E, G, H:  5, 4, 3
    Auxiliary basis highest AM E, G, H:  6, 5, 4
    Onebody   basis highest AM E, G, H:  6, 5, 4
    Solid Harmonics ordering:            gaussian

*** tstart() called on n2cn0686.ab2021.local
*** at Fri Jan 26 23:20:41 2024

   => Loading Basis Set <=

    Name: JUN-CC-PVDZ
    Role: ORBITAL
    Keyword: BASIS
    atoms 1-2, 4-5, 10, 17-34, 41-53, 56-70, 73-89, 92-104, 109-119, 122-130 entry C          line   164 file /opt/software/pc2/EB-SW/software/PSI4/1.9-foss-2022a/share/psi4/basis/jun-cc-pvdz.gbs 
    atoms 3, 6                                                               entry N          line   198 file /opt/software/pc2/EB-SW/software/PSI4/1.9-foss-2022a/share/psi4/basis/jun-cc-pvdz.gbs 
    atoms 7-9, 11-16, 35-40, 54-55, 71-72, 90-91, 105-108, 120-121, 131-136  entry H          line    36 file /opt/software/pc2/EB-SW/software/PSI4/1.9-foss-2022a/share/psi4/basis/jun-cc-pvdz.gbs 


         ---------------------------------------------------------
                                   SCF
               by Justin Turney, Rob Parrish, Andy Simmonett
                          and Daniel G. A. Smith
                              RHF Reference
                       16 Threads,  61035 MiB Core
         ---------------------------------------------------------

  ==> Geometry <==

    Molecular point group: c1
    Full point group: C1

    Geometry (in Angstrom), charge = 1, multiplicity = 1:

       Center              X                  Y                   Z               Mass       
    ------------   -----------------  -----------------  -----------------  -----------------
         C            0.680062820275    -1.215917226251     7.028597594508    12.000000000000
         C           -0.680508179725    -1.215533226251     7.026569594508    12.000000000000
         N           -1.085639179725     0.102790773749     7.025571594508    14.003074004430
         C            0.000103820275     0.884191773749     7.022295594508    12.000000000000
         C           -2.477369179725     0.570769773749     6.976165594508    12.000000000000
         N            1.085217820275     0.102790773749     7.025571594508    14.003074004430
         H            1.385141820275    -2.033356226251     7.036425594508     1.007825032230
         H           -1.385306179725    -2.033202226251     7.026759594508     1.007825032230
         H           -0.000013179725     1.965280773749     7.020548594508     1.007825032230
         C            2.478112820275     0.567888773749     7.042463594508    12.000000000000
         H            2.490587820275     1.658141773750     7.015118594508     1.007825032230
         H            2.967023820275     0.220712773749     7.955909594508     1.007825032230
         H            3.001423820275     0.176416773749     6.166980594508     1.007825032230
         H           -2.857363179725     0.490810773749     5.954094594508     1.007825032230
         H           -3.082683179725    -0.042294226251     7.646249594508     1.007825032230
         H           -2.518132179725     1.610717773749     7.303149594508     1.007825032230
         C           -3.668445443746     7.803763943832    -0.577544364157    12.000000000000
         C           -4.847602899072     7.131253605090    -0.579910939089    12.000000000000
         C           -4.894963478901     5.696342177281    -0.580483850187    12.000000000000
         C           -3.653744858499     4.980742114708    -0.572823408458    12.000000000000
         C           -2.409429301220     7.113992810424    -0.577350021897    12.000000000000
         C           -2.425481523830     5.681133724653    -0.584354910767    12.000000000000
         C           -1.194748196161     7.786155968059    -0.575877841355    12.000000000000
         C            0.037954849212     7.099433419506    -0.578048545660    12.000000000000
         C            0.030328407694     5.669501333454    -0.583531930575    12.000000000000
         C           -1.200988687630     4.969282121665    -0.574562196642    12.000000000000
         C            1.277953646089     7.772871216944    -0.576672697099    12.000000000000
         C            2.485353904999     7.087708658987    -0.578947185004    12.000000000000
         C            2.486124505192     5.654782583990    -0.585884933992    12.000000000000
         C            1.254078739919     4.956089887414    -0.574256992403    12.000000000000
         C            3.751710411681     7.763923924730    -0.578820333623    12.000000000000
         C            4.923561876460     7.078792550739    -0.580876814331    12.000000000000
         C            4.955603091600     5.643459237119    -0.581037227138    12.000000000000
         C            3.706797354479     4.941221982083    -0.575945666969    12.000000000000
         H           -3.658525317484     8.890839192885    -0.575859375907     1.007825032230
         H           -1.189217509482     8.874132861109    -0.571905964913     1.007825032230
         H            1.284290059161     8.860845209238    -0.572513872958     1.007825032230
         H            3.753537907074     8.851047052722    -0.577297809308     1.007825032230
         H            5.869954523482     7.613806608405    -0.581802181374     1.007825032230
         H           -5.788235887228     7.676313986684    -0.581470786445     1.007825032230
         C           -6.091978138422     4.993271787393    -0.582356090678    12.000000000000
         C           -6.128665660043     3.582591942548    -0.581154913650    12.000000000000
         C           -3.664583919771     3.564193953494    -0.584080008267    12.000000000000
         C           -4.894302384424     2.861092549650    -0.574911023282    12.000000000000
         C           -2.437339174623     2.847623430834    -0.572248229731    12.000000000000
         C           -1.209232037322     3.547898708728    -0.585927256522    12.000000000000
         C            1.247137392437     3.534692525179    -0.586735862928    12.000000000000
         C            0.015171859844     2.833123613055    -0.575051679703    12.000000000000
         C            2.467640992715     2.821301751005    -0.574951621580    12.000000000000
         C            3.702545294854     3.524671928174    -0.588439582422    12.000000000000
         C            6.144976206658     4.927584139881    -0.582270672350    12.000000000000
         C            6.166584179136     3.516596249692    -0.580104118913    12.000000000000
         C            4.924605778734     2.808419699104    -0.573565372676    12.000000000000
         H            7.089901329916     5.466899539973    -0.586032553200     1.007825032230
         H           -7.031045930827     5.542699726607    -0.586589305630     1.007825032230
         C           -7.339702220848     2.858423308329    -0.582782081091    12.000000000000
         C           -7.364886137784     1.470335145333    -0.581016542964    12.000000000000
         C           -4.903508788672     1.444438585909    -0.585732807156    12.000000000000
         C           -6.132261332336     0.739951130803    -0.573442763173    12.000000000000
         C           -3.676878980242     0.726708916423    -0.575105090756    12.000000000000
         C           -2.445660765791     1.429652907012    -0.585414800957    12.000000000000
         C           -1.223604861027     0.715336275384    -0.573985536426    12.000000000000
         C            0.007633689588     1.417394922987    -0.575519882708    12.000000000000
         C            1.231215628021     0.702128464337    -0.594346468364    12.000000000000
         C            2.460816920806     1.403303809875    -0.574841959474    12.000000000000
         C            3.684426074471     0.687210201962    -0.575670745751    12.000000000000
         C            4.918704721813     1.391746334939    -0.588072567386    12.000000000000
         C            7.369797898236     2.779493976934    -0.581864538706    12.000000000000
         C            7.380158486396     1.391229281605    -0.580317855860    12.000000000000
         C            6.139795359397     0.674130396950    -0.573989514049    12.000000000000
         H           -8.279194979072     3.407129814874    -0.587079633213     1.007825032230
         H            8.315109291754     3.318129870373    -0.586075114505     1.007825032230
         C           -8.591760117307     0.724844326794    -0.580676115346    12.000000000000
         C           -8.599028783429    -0.632628032479    -0.578552990763    12.000000000000
         C           -6.139817318844    -0.674124863404    -0.585542332098    12.000000000000
         C           -7.380188291863    -1.391254415832    -0.578126270557    12.000000000000
         C           -4.918688659982    -1.391743244281    -0.573201833949    12.000000000000
         C           -3.684442475410    -0.687225541986    -0.584234074013    12.000000000000
         C           -2.460821219973    -1.403333405075    -0.573690987824    12.000000000000
         C           -1.231166192046    -0.702162091131    -0.585811366616    12.000000000000
         C           -0.007573805113    -1.417407075662    -0.578354842312    12.000000000000
         C            1.223643536163    -0.715263603514    -0.568349220363    12.000000000000
         C            2.445666469606    -1.429631515257    -0.580099233123    12.000000000000
         C            3.676862523121    -0.726695657806    -0.584239817518    12.000000000000
         C            6.132244666694    -0.739967066100    -0.585767791731    12.000000000000
         C            4.903514965779    -1.444445746791    -0.571926717191    12.000000000000
         C            8.599010668965     0.632615640417    -0.580455739716    12.000000000000
         C            8.591741308375    -0.724839093444    -0.578719359455    12.000000000000
         C            7.364858584664    -1.470320891856    -0.578949536148    12.000000000000
         H           -9.528310151544     1.276859222942    -0.582146042310     1.007825032230
         H            9.541406794881     1.174584262194    -0.581507771977     1.007825032230
         C           -7.369842089494    -2.779533372184    -0.576318062135    12.000000000000
         C           -4.924603288776    -2.808425483592    -0.584049694572    12.000000000000
         C           -6.166626675393    -3.516640419076    -0.577747854412    12.000000000000
         C           -3.702514539430    -3.524669775371    -0.573725625386    12.000000000000
         C           -2.467651164839    -2.821314189055    -0.585770263742    12.000000000000
         C           -0.015137653833    -2.833129871650    -0.585488675233    12.000000000000
         C           -1.247126020952    -3.534720401814    -0.573924721825    12.000000000000
         C            1.209240889918    -3.547902904894    -0.571385692034    12.000000000000
         C            2.437331842429    -2.847629964426    -0.585525450345    12.000000000000
         C            4.894298164045    -2.861111194537    -0.584704710273    12.000000000000
         C            3.664611075316    -3.564208071783    -0.571825290333    12.000000000000
         C            6.128634835020    -3.582572283968    -0.578479448375    12.000000000000
         C            7.339668484970    -2.858401533621    -0.576964222294    12.000000000000
         H           -9.541453290984    -1.174551692915    -0.577183574590     1.007825032230
         H            9.528257688346    -1.276907300155    -0.577469551694     1.007825032230
         H           -8.315169223574    -3.318138079463    -0.572145833605     1.007825032230
         H            8.279150962767    -3.407129016144    -0.572624666311     1.007825032230
         C           -6.144998368428    -4.927635499034    -0.576421856352    12.000000000000
         C           -3.706787527723    -4.941249940368    -0.586242824440    12.000000000000
         C           -4.955594237727    -5.643482199745    -0.578275689795    12.000000000000
         C           -2.486125505952    -5.654773800660    -0.573303153396    12.000000000000
         C           -1.254062515205    -4.956110276252    -0.584478759382    12.000000000000
         C            1.201008394143    -4.969268614444    -0.583297635124    12.000000000000
         C           -0.030340854139    -5.669508529390    -0.575454435460    12.000000000000
         C            3.653745921603    -4.980732001665    -0.582539635376    12.000000000000
         C            2.425488516150    -5.681162861778    -0.573162704824    12.000000000000
         C            6.091961438086    -4.993246189637    -0.576185221702    12.000000000000
         C            4.894972264885    -5.696336647208    -0.577421417532    12.000000000000
         H           -7.089896567766    -5.466988068489    -0.572019094671     1.007825032230
         H            7.031051029475    -5.542646762583    -0.572605441938     1.007825032230
         C           -4.923549501924    -7.078809325928    -0.578830458700    12.000000000000
         C           -2.485346267963    -7.087716304180    -0.581340351136    12.000000000000
         C           -3.751690071504    -7.763935383887    -0.581145672211    12.000000000000
         C           -0.037953136713    -7.099453100720    -0.581124625989    12.000000000000
         C           -1.277960280127    -7.772892610917    -0.583109318750    12.000000000000
         C            2.409440141001    -7.114010238253    -0.580261425178    12.000000000000
         C            1.194745757428    -7.786173591813    -0.582413716059    12.000000000000
         C            4.847616872773    -7.131250336830    -0.577754610518    12.000000000000
         C            3.668467426150    -7.803776219194    -0.580103044882    12.000000000000
         H           -5.869944530142    -7.613818824292    -0.577286421835     1.007825032230
         H            5.788245445663    -7.676320415565    -0.576627491036     1.007825032230
         H           -3.753531119175    -8.851059795487    -0.582981586640     1.007825032230
         H           -1.284308585620    -8.860863618748    -0.587536702609     1.007825032230
         H            1.189217394970    -8.874148846840    -0.586506352750     1.007825032230
         H            3.658542435098    -8.890848860304    -0.581757586304     1.007825032230

  Running in c1 symmetry.

  Rotational constants: A =      0.00058  B =      0.00057  C =      0.00035 [cm^-1]
  Rotational constants: A =     17.33464  B =     17.23495  C =     10.50436 [MHz]
  Nuclear repulsion = 17629.686390548500640

  Charge       = 1
  Multiplicity = 1
  Electrons    = 652
  Nalpha       = 326
  Nbeta        = 326

  ==> Algorithm <==

  SCF Algorithm Type is DF.
  DIIS enabled.
  MOM disabled.
  Fractional occupation disabled.
  Guess Type is SAD.
  Energy threshold   = 1.00e-08
  Density threshold  = 1.00e-08
  Integral threshold = 1.00e-12

  ==> Primary Basis <==

  Basis Set: JUN-CC-PVDZ
    Blend: JUN-CC-PVDZ
    Number of shells: 923
    Number of basis functions: 2019
    Number of Cartesian functions: 2122
    Spherical Harmonics?: true
    Max angular momentum: 2

   => Loading Basis Set <=

    Name: (JUN-CC-PVDZ AUX)
    Role: JKFIT
    Keyword: DF_BASIS_SCF
    atoms 1-2, 4-5, 10, 17-34, 41-53, 56-70, 73-89, 92-104, 109-119, 122-130 entry C          line   146 file /opt/software/pc2/EB-SW/software/PSI4/1.9-foss-2022a/share/psi4/basis/jun-cc-pvdz-jkfit.gbs 
    atoms 3, 6                                                               entry N          line   202 file /opt/software/pc2/EB-SW/software/PSI4/1.9-foss-2022a/share/psi4/basis/jun-cc-pvdz-jkfit.gbs 
    atoms 7-9, 11-16, 35-40, 54-55, 71-72, 90-91, 105-108, 120-121, 131-136  entry H          line    70 file /opt/software/pc2/EB-SW/software/PSI4/1.9-foss-2022a/share/psi4/basis/jun-cc-pvdz-jkfit.gbs 

  ==> Integral Setup <==

  ==> DiskDFJK: Density-Fitted J/K Matrices <==

    J tasked:                  Yes
    K tasked:                  Yes
    wK tasked:                  No
    OpenMP threads:             16
    Integrals threads:          16
    Memory [MiB]:            45776
    Algorithm:                Disk
    Integral Cache:           SAVE
    Schwarz Cutoff:          1E-12
    Fitting Condition:       1E-10

   => Auxiliary Basis Set <=

  Basis Set: (JUN-CC-PVDZ AUX)
    Blend: JUN-CC-PVDZ-JKFIT
    Number of shells: 3078
    Number of basis functions: 8896
    Number of Cartesian functions: 10198
    Spherical Harmonics?: true
    Max angular momentum: 3

  Minimum eigenvalue in the overlap matrix is 9.0356616391E-11.
  Reciprocal condition number of the overlap matrix is 3.9625805250E-12.
    Using canonical orthogonalization.
  Overall, 38 of 2019 possible MOs eliminated.


  ==> Pre-Iterations <==

  SCF Guess: Superposition of Atomic Densities via on-the-fly atomic UHF (no occupation information).

   -------------------------
    Irrep   Nso     Nmo    
   -------------------------
     A       2019    1981 
   -------------------------
    Total    2019    1981
   -------------------------

  ==> Iterations <==

                           Total Energy        Delta E     RMS |[F,P]|

   @DF-RHF iter SAD: -3967.13322611801914   -3.96713e+03   0.00000e+00 
   @DF-RHF iter   1: -3952.09644787673733    1.50368e+01   7.16558e-04 DIIS/ADIIS
   @DF-RHF iter   2: -3953.49198039478415   -1.39553e+00   2.33896e-04 DIIS/ADIIS
   @DF-RHF iter   3: -3953.61708798769723   -1.25108e-01   9.92186e-05 DIIS
   @DF-RHF iter   4: -3953.63935869370880   -2.22707e-02   4.04520e-05 DIIS
   @DF-RHF iter   5: -3953.64347174774730   -4.11305e-03   1.00475e-05 DIIS
   @DF-RHF iter   6: -3953.64389122049943   -4.19473e-04   4.57052e-06 DIIS
   @DF-RHF iter   7: -3953.64407125419439   -1.80034e-04   2.20119e-06 DIIS
   @DF-RHF iter   8: -3953.64413167623752   -6.04220e-05   1.11767e-06 DIIS
   @DF-RHF iter   9: -3953.64414905949161   -1.73833e-05   3.57802e-07 DIIS
   @DF-RHF iter  10: -3953.64415025323024   -1.19374e-06   1.45369e-07 DIIS
   @DF-RHF iter  11: -3953.64415040379663   -1.50566e-07   6.03000e-08 DIIS
   @DF-RHF iter  12: -3953.64415043685312   -3.30565e-08   2.97144e-08 DIIS
   @DF-RHF iter  13: -3953.64415044392217   -7.06905e-09   9.91314e-09 DIIS
  Energy and wave function converged.


  ==> Post-Iterations <==

    Orbital Energies [Eh]
    ---------------------

    Doubly Occupied:                                                      

       1A    -15.822892     2A    -15.822360     3A    -11.517823  
       4A    -11.448132     5A    -11.446579     6A    -11.438189  
       7A    -11.437958     8A    -11.316558     9A    -11.316135  
      10A    -11.316088    11A    -11.315523    12A    -11.315494  
      13A    -11.315286    14A    -11.315242    15A    -11.315113  
      16A    -11.314990    17A    -11.314670    18A    -11.314611  
      19A    -11.314453    20A    -11.314276    21A    -11.314233  
      22A    -11.314068    23A    -11.314006    24A    -11.313950  
      25A    -11.313742    26A    -11.313569    27A    -11.313416  
      28A    -11.313349    29A    -11.313283    30A    -11.313113  
      31A    -11.312955    32A    -11.312347    33A    -11.312306  
      34A    -11.312239    35A    -11.312159    36A    -11.312119  
      37A    -11.312060    38A    -11.312031    39A    -11.312006  
      40A    -11.311828    41A    -11.311781    42A    -11.311709  
      43A    -11.311579    44A    -11.311126    45A    -11.311091  
      46A    -11.311082    47A    -11.310831    48A    -11.310800  
      49A    -11.310579    50A    -11.310563    51A    -11.310546  
      52A    -11.310502    53A    -11.310463    54A    -11.310233  
      55A    -11.310203    56A    -11.310148    57A    -11.310120  
      58A    -11.310112    59A    -11.310098    60A    -11.309746  
      61A    -11.309734    62A    -11.309629    63A    -11.309598  
      64A    -11.309546    65A    -11.309506    66A    -11.309441  
      67A    -11.309414    68A    -11.309378    69A    -11.309210  
      70A    -11.309188    71A    -11.309121    72A    -11.309108  
      73A    -11.308938    74A    -11.308906    75A    -11.308873  
      76A    -11.308855    77A    -11.308815    78A    -11.308473  
      79A    -11.308457    80A    -11.302466    81A    -11.302418  
      82A    -11.302387    83A    -11.302383    84A    -11.302327  
      85A    -11.302322    86A    -11.302292    87A    -11.302282  
      88A    -11.302045    89A    -11.302026    90A    -11.301929  
      91A    -11.301849    92A    -11.301700    93A    -11.301674  
      94A    -11.301635    95A    -11.301597    96A    -11.301159  
      97A    -11.301153    98A    -11.300233    99A    -11.300207  
     100A    -11.300167   101A    -11.300129   102A    -11.299691  
     103A    -11.299685   104A     -1.566432   105A     -1.422056  
     106A     -1.305743   107A     -1.289871   108A     -1.289772  
     109A     -1.270660   110A     -1.270649   111A     -1.266317  
     112A     -1.250653   113A     -1.245533   114A     -1.238842  
     115A     -1.238755   116A     -1.226920   117A     -1.223201  
     118A     -1.223192   119A     -1.206082   120A     -1.206078  
     121A     -1.203223   122A     -1.193956   123A     -1.193952  
     124A     -1.178483   125A     -1.177634   126A     -1.165115  
     127A     -1.162882   128A     -1.162822   129A     -1.162308  
     130A     -1.160699   131A     -1.138241   132A     -1.138210  
     133A     -1.126027   134A     -1.126018   135A     -1.117747  
     136A     -1.117729   137A     -1.115308   138A     -1.107265  
     139A     -1.096406   140A     -1.096394   141A     -1.090047  
     142A     -1.087796   143A     -1.087775   144A     -1.075694  
     145A     -1.072317   146A     -1.072311   147A     -1.056895  
     148A     -1.056447   149A     -1.053345   150A     -1.050501  
     151A     -1.050495   152A     -1.039860   153A     -1.020826  
     154A     -1.020820   155A     -1.010815   156A     -1.005115  
     157A     -1.005091   158A     -0.985260   159A     -0.956321  
     160A     -0.956251   161A     -0.955307   162A     -0.954260  
     163A     -0.954208   164A     -0.943133   165A     -0.943046  
     166A     -0.940699   167A     -0.940612   168A     -0.939534  
     169A     -0.921229   170A     -0.917292   171A     -0.905416  
     172A     -0.900812   173A     -0.898064   174A     -0.897986  
     175A     -0.895838   176A     -0.892993   177A     -0.884026  
     178A     -0.884004   179A     -0.876816   180A     -0.876812  
     181A     -0.838706   182A     -0.834544   183A     -0.834465  
     184A     -0.832657   185A     -0.832624   186A     -0.832161  
     187A     -0.831868   188A     -0.831845   189A     -0.816728  
     190A     -0.811253   191A     -0.804643   192A     -0.801504  
     193A     -0.800447   194A     -0.782311   195A     -0.778471  
     196A     -0.776701   197A     -0.776633   198A     -0.774688  
     199A     -0.774542   200A     -0.774178   201A     -0.774135  
     202A     -0.770147   203A     -0.768627   204A     -0.763755  
     205A     -0.763723   206A     -0.748648   207A     -0.748640  
     208A     -0.736127   209A     -0.735107   210A     -0.735089  
     211A     -0.731564   212A     -0.731556   213A     -0.728233  
     214A     -0.718218   215A     -0.714327   216A     -0.705389  
     217A     -0.702537   218A     -0.700052   219A     -0.700026  
     220A     -0.699795   221A     -0.699733   222A     -0.698612  
     223A     -0.690748   224A     -0.690720   225A     -0.689351  
     226A     -0.688311   227A     -0.685640   228A     -0.685627  
     229A     -0.678580   230A     -0.669723   231A     -0.664049  
     232A     -0.664028   233A     -0.658115   234A     -0.658094  
     235A     -0.650124   236A     -0.650016   237A     -0.648546  
     238A     -0.648513   239A     -0.648178   240A     -0.648039  
     241A     -0.644330   242A     -0.644242   243A     -0.644228  
     244A     -0.643888   245A     -0.641137   246A     -0.641121  
     247A     -0.637684   248A     -0.626097   249A     -0.626066  
     250A     -0.625922   251A     -0.625905   252A     -0.622532  
     253A     -0.620554   254A     -0.618129   255A     -0.618112  
     256A     -0.615849   257A     -0.615800   258A     -0.609130  
     259A     -0.608346   260A     -0.608284   261A     -0.606976  
     262A     -0.603864   263A     -0.600128   264A     -0.595456  
     265A     -0.594201   266A     -0.585795   267A     -0.585703  
     268A     -0.584528   269A     -0.582687   270A     -0.582639  
     271A     -0.577924   272A     -0.577106   273A     -0.577097  
     274A     -0.566550   275A     -0.566448   276A     -0.564695  
     277A     -0.564683   278A     -0.558432   279A     -0.558425  
     280A     -0.547431   281A     -0.545971   282A     -0.545928  
     283A     -0.544294   284A     -0.544283   285A     -0.540051  
     286A     -0.530214   287A     -0.526497   288A     -0.526493  
     289A     -0.523105   290A     -0.519499   291A     -0.516097  
     292A     -0.516070   293A     -0.512020   294A     -0.508704  
     295A     -0.497254   296A     -0.497157   297A     -0.491504  
     298A     -0.491279   299A     -0.491166   300A     -0.483548  
     301A     -0.482854   302A     -0.457187   303A     -0.457157  
     304A     -0.436769   305A     -0.436753   306A     -0.434526  
     307A     -0.434522   308A     -0.434266   309A     -0.404002  
     310A     -0.403980   311A     -0.400336   312A     -0.389488  
     313A     -0.387196   314A     -0.387171   315A     -0.381555  
     316A     -0.381492   317A     -0.357714   318A     -0.352365  
     319A     -0.352354   320A     -0.350194   321A     -0.335607  
     322A     -0.304649   323A     -0.303807   324A     -0.303790  
     325A     -0.253725   326A     -0.253707  

    Virtual:                                                              

     327A     -0.060955   328A     -0.060806   329A     -0.057832  
     330A     -0.053412   331A     -0.044820   332A     -0.038680  
     333A     -0.021589   334A     -0.019752   335A     -0.016357  
     336A     -0.015376   337A     -0.015095   338A     -0.015024  
     339A     -0.008464   340A     -0.005079   341A      0.001587  
     342A      0.001736   343A      0.004075   344A      0.005834  
     345A      0.006297   346A      0.007962   347A      0.009265  
     348A      0.009477   349A      0.010836   350A      0.013246  
     351A      0.015766   352A      0.016845   353A      0.020024  
     354A      0.020119   355A      0.021293   356A      0.021345  
     357A      0.024502   358A      0.025415   359A      0.029112  
     360A      0.029367   361A      0.029760   362A      0.030642  
     363A      0.031774   364A      0.032613   365A      0.032626  
     366A      0.033918   367A      0.034410   368A      0.034775  
     369A      0.039931   370A      0.042504   371A      0.043105  
     372A      0.043822   373A      0.044007   374A      0.047593  
     375A      0.050089   376A      0.053476   377A      0.055376  
     378A      0.055821   379A      0.056114   380A      0.056263  
     381A      0.057606   382A      0.059657   383A      0.059807  
     384A      0.062218   385A      0.063116   386A      0.063352  
     387A      0.065222   388A      0.065761   389A      0.065806  
     390A      0.065814   391A      0.065892   392A      0.069316  
     393A      0.071406   394A      0.072793   395A      0.073724  
     396A      0.073824   397A      0.075441   398A      0.075948  
     399A      0.077729   400A      0.078244   401A      0.082392  
     402A      0.082777   403A      0.086402   404A      0.086603  
     405A      0.086788   406A      0.088752   407A      0.090437  
     408A      0.090923   409A      0.091965   410A      0.094988  
     411A      0.095727   412A      0.096048   413A      0.098967  
     414A      0.100417   415A      0.101774   416A      0.102311  
     417A      0.103414   418A      0.106399   419A      0.106769  
     420A      0.107079   421A      0.107251   422A      0.107614  
     423A      0.107719   424A      0.109888   425A      0.113631  
     426A      0.113991   427A      0.114518   428A      0.116200  
     429A      0.116717   430A      0.119559   431A      0.121402  
     432A      0.121579   433A      0.122828   434A      0.123255  
     435A      0.123795   436A      0.127776   437A      0.129058  
     438A      0.129977   439A      0.130414   440A      0.130833  
     441A      0.132414   442A      0.132646   443A      0.134424  
     444A      0.134499   445A      0.138250   446A      0.141339  
     447A      0.142987   448A      0.143204   449A      0.144166  
     450A      0.144264   451A      0.144524   452A      0.146291  
     453A      0.147710   454A      0.150361   455A      0.151215  
     456A      0.153742   457A      0.154069   458A      0.154920  
     459A      0.156918   460A      0.157006   461A      0.158007  
     462A      0.159424   463A      0.159745   464A      0.160665  
     465A      0.161000   466A      0.161275   467A      0.161462  
     468A      0.161824   469A      0.162259   470A      0.162970  
     471A      0.163286   472A      0.163702   473A      0.165655  
     474A      0.167984   475A      0.168043   476A      0.169069  
     477A      0.170083   478A      0.170511   479A      0.170679  
     480A      0.173930   481A      0.175048   482A      0.175238  
     483A      0.175686   484A      0.178339   485A      0.178407  
     486A      0.179122   487A      0.179193   488A      0.182482  
     489A      0.182719   490A      0.183082   491A      0.183586  
     492A      0.184687   493A      0.186329   494A      0.186708  
     495A      0.186844   496A      0.187739   497A      0.190281  
     498A      0.191471   499A      0.192719   500A      0.192984  
     501A      0.193337   502A      0.195562   503A      0.195750  
     504A      0.196042   505A      0.198563   506A      0.199745  
     507A      0.200272   508A      0.200459   509A      0.203666  
     510A      0.203964   511A      0.208319   512A      0.208599  
     513A      0.208922   514A      0.209348   515A      0.210478  
     516A      0.212726   517A      0.213060   518A      0.213167  
     519A      0.214947   520A      0.216176   521A      0.216829  
     522A      0.217125   523A      0.218177   524A      0.219533  
     525A      0.219872   526A      0.220372   527A      0.220885  
     528A      0.221236   529A      0.224781   530A      0.225028  
     531A      0.229381   532A      0.229471   533A      0.230059  
     534A      0.230711   535A      0.231286   536A      0.231800  
     537A      0.232316   538A      0.232789   539A      0.233695  
     540A      0.237396   541A      0.238010   542A      0.238479  
     543A      0.239390   544A      0.239935   545A      0.239999  
     546A      0.243408   547A      0.244499   548A      0.244558  
     549A      0.246569   550A      0.246975   551A      0.247432  
     552A      0.249716   553A      0.251004   554A      0.253098  
     555A      0.254273   556A      0.254671   557A      0.255046  
     558A      0.255854   559A      0.257324   560A      0.259292  
     561A      0.259743   562A      0.260132   563A      0.260886  
     564A      0.261101   565A      0.263279   566A      0.265667  
     567A      0.266429   568A      0.266733   569A      0.267485  
     570A      0.268842   571A      0.269133   572A      0.269648  
     573A      0.271247   574A      0.272236   575A      0.273189  
     576A      0.273399   577A      0.274422   578A      0.274872  
     579A      0.276271   580A      0.276896   581A      0.278017  
     582A      0.278998   583A      0.280155   584A      0.280944  
     585A      0.281697   586A      0.281956   587A      0.283603  
     588A      0.284303   589A      0.285459   590A      0.285938  
     591A      0.286696   592A      0.287753   593A      0.288057  
     594A      0.289183   595A      0.290911   596A      0.292058  
     597A      0.293746   598A      0.293935   599A      0.296009  
     600A      0.296487   601A      0.296764   602A      0.297343  
     603A      0.298895   604A      0.299365   605A      0.300144  
     606A      0.301699   607A      0.302112   608A      0.302406  
     609A      0.303356   610A      0.304210   611A      0.304481  
     612A      0.306781   613A      0.308491   614A      0.310004  
     615A      0.313371   616A      0.314736   617A      0.314875  
     618A      0.316143   619A      0.316948   620A      0.319180  
     621A      0.320034   622A      0.321151   623A      0.321542  
     624A      0.322293   625A      0.323015   626A      0.325605  
     627A      0.327900   628A      0.328533   629A      0.329879  
     630A      0.331535   631A      0.331913   632A      0.332666  
     633A      0.333023   634A      0.334716   635A      0.334886  
     636A      0.335055   637A      0.335724   638A      0.337239  
     639A      0.338172   640A      0.339648   641A      0.342591  
     642A      0.344064   643A      0.345205   644A      0.346099  
     645A      0.347572   646A      0.347674   647A      0.347969  
     648A      0.348418   649A      0.348528   650A      0.348657  
     651A      0.350509   652A      0.350938   653A      0.351864  
     654A      0.352149   655A      0.352790   656A      0.353383  
     657A      0.354060   658A      0.354923   659A      0.355688  
     660A      0.356425   661A      0.356672   662A      0.357729  
     663A      0.359889   664A      0.360212   665A      0.361054  
     666A      0.361822   667A      0.362454   668A      0.363042  
     669A      0.364410   670A      0.364748   671A      0.366402  
     672A      0.367096   673A      0.367121   674A      0.367868  
     675A      0.368239   676A      0.369657   677A      0.370355  
     678A      0.371861   679A      0.373727   680A      0.375565  
     681A      0.375786   682A      0.378819   683A      0.379226  
     684A      0.381055   685A      0.381164   686A      0.382072  
     687A      0.382557   688A      0.383464   689A      0.383836  
     690A      0.384332   691A      0.384669   692A      0.385034  
     693A      0.386312   694A      0.387204   695A      0.388487  
     696A      0.388674   697A      0.391164   698A      0.391577  
     699A      0.392209   700A      0.394833   701A      0.401141  
     702A      0.401242   703A      0.402112   704A      0.403373  
     705A      0.403804   706A      0.404139   707A      0.405178  
     708A      0.405489   709A      0.406641   710A      0.406973  
     711A      0.407337   712A      0.407529   713A      0.409099  
     714A      0.409255   715A      0.409666   716A      0.412528  
     717A      0.412966   718A      0.414185   719A      0.414489  
     720A      0.417272   721A      0.417615   722A      0.419014  
     723A      0.419294   724A      0.420276   725A      0.420373  
     726A      0.421716   727A      0.421957   728A      0.426453  
     729A      0.426577   730A      0.426970   731A      0.427168  
     732A      0.428179   733A      0.429279   734A      0.430490  
     735A      0.431043   736A      0.431606   737A      0.431836  
     738A      0.434832   739A      0.436602   740A      0.437104  
     741A      0.437855   742A      0.437985   743A      0.441017  
     744A      0.442208   745A      0.442434   746A      0.443921  
     747A      0.445241   748A      0.445725   749A      0.446675  
     750A      0.448181   751A      0.448351   752A      0.452311  
     753A      0.454113   754A      0.454920   755A      0.455617  
     756A      0.455779   757A      0.456267   758A      0.456965  
     759A      0.458423   760A      0.458768   761A      0.459180  
     762A      0.459819   763A      0.466791   764A      0.467000  
     765A      0.467584   766A      0.468991   767A      0.469068  
     768A      0.469527   769A      0.469800   770A      0.471121  
     771A      0.473384   772A      0.475124   773A      0.475514  
     774A      0.475852   775A      0.481638   776A      0.484713  
     777A      0.485035   778A      0.485055   779A      0.487246  
     780A      0.489484   781A      0.489690   782A      0.491340  
     783A      0.491438   784A      0.495764   785A      0.496583  
     786A      0.496963   787A      0.502027   788A      0.504007  
     789A      0.509406   790A      0.510041   791A      0.512121  
     792A      0.513324   793A      0.513432   794A      0.516240  
     795A      0.517092   796A      0.518991   797A      0.519182  
     798A      0.522998   799A      0.523921   800A      0.524437  
     801A      0.524627   802A      0.526828   803A      0.526883  
     804A      0.528545   805A      0.529426   806A      0.529785  
     807A      0.529979   808A      0.530770   809A      0.534188  
     810A      0.536449   811A      0.539805   812A      0.540218  
     813A      0.540997   814A      0.541334   815A      0.545438  
     816A      0.546916   817A      0.547227   818A      0.548526  
     819A      0.549388   820A      0.552776   821A      0.554418  
     822A      0.555111   823A      0.555774   824A      0.556668  
     825A      0.564235   826A      0.568663   827A      0.570067  
     828A      0.570405   829A      0.571226   830A      0.571442  
     831A      0.573500   832A      0.576448   833A      0.578815  
     834A      0.582337   835A      0.582741   836A      0.583306  
     837A      0.588454   838A      0.590505   839A      0.591512  
     840A      0.597268   841A      0.606043   842A      0.606295  
     843A      0.607903   844A      0.609764   845A      0.609852  
     846A      0.610845   847A      0.611000   848A      0.615930  
     849A      0.618444   850A      0.618844   851A      0.623777  
     852A      0.624939   853A      0.630936   854A      0.633994  
     855A      0.636071   856A      0.639053   857A      0.639075  
     858A      0.640585   859A      0.641363   860A      0.642437  
     861A      0.642669   862A      0.643295   863A      0.648278  
     864A      0.648974   865A      0.651926   866A      0.652104  
     867A      0.652272   868A      0.656388   869A      0.658247  
     870A      0.661271   871A      0.664102   872A      0.669786  
     873A      0.670352   874A      0.671311   875A      0.673281  
     876A      0.679902   877A      0.681237   878A      0.683514  
     879A      0.684401   880A      0.690443   881A      0.692430  
     882A      0.692820   883A      0.695051   884A      0.696133  
     885A      0.696450   886A      0.699962   887A      0.700809  
     888A      0.701579   889A      0.704724   890A      0.707463  
     891A      0.711316   892A      0.722634   893A      0.723606  
     894A      0.732611   895A      0.734935   896A      0.735626  
     897A      0.739546   898A      0.739742   899A      0.743751  
     900A      0.745580   901A      0.745945   902A      0.748788  
     903A      0.749313   904A      0.751371   905A      0.753570  
     906A      0.754113   907A      0.756695   908A      0.756992  
     909A      0.758742   910A      0.761440   911A      0.762633  
     912A      0.766111   913A      0.766599   914A      0.767546  
     915A      0.768258   916A      0.769033   917A      0.769695  
     918A      0.777671   919A      0.779168   920A      0.779637  
     921A      0.781617   922A      0.782936   923A      0.785254  
     924A      0.786175   925A      0.787222   926A      0.787810  
     927A      0.789225   928A      0.791059   929A      0.791892  
     930A      0.795131   931A      0.797019   932A      0.797285  
     933A      0.798375   934A      0.799033   935A      0.803297  
     936A      0.806402   937A      0.808032   938A      0.810000  
     939A      0.811632   940A      0.811825   941A      0.812823  
     942A      0.815494   943A      0.817645   944A      0.818122  
     945A      0.819897   946A      0.820413   947A      0.820572  
     948A      0.821414   949A      0.821900   950A      0.824833  
     951A      0.826463   952A      0.827345   953A      0.828729  
     954A      0.829667   955A      0.831078   956A      0.831659  
     957A      0.833416   958A      0.837612   959A      0.838863  
     960A      0.839353   961A      0.840960   962A      0.841911  
     963A      0.842547   964A      0.843486   965A      0.846486  
     966A      0.849551   967A      0.851119   968A      0.851342  
     969A      0.854325   970A      0.858513   971A      0.858547  
     972A      0.861037   973A      0.863788   974A      0.866661  
     975A      0.867863   976A      0.868285   977A      0.869300  
     978A      0.871889   979A      0.873217   980A      0.873389  
     981A      0.873822   982A      0.874170   983A      0.877157  
     984A      0.878755   985A      0.879985   986A      0.882010  
     987A      0.884133   988A      0.884925   989A      0.885324  
     990A      0.889429   991A      0.889600   992A      0.889962  
     993A      0.895046   994A      0.895625   995A      0.898117  
     996A      0.899791   997A      0.900744   998A      0.901678  
     999A      0.902052  1000A      0.903274  1001A      0.903929  
    1002A      0.904679  1003A      0.905014  1004A      0.908017  
    1005A      0.908266  1006A      0.908451  1007A      0.908989  
    1008A      0.913264  1009A      0.916919  1010A      0.917566  
    1011A      0.919494  1012A      0.919761  1013A      0.922149  
    1014A      0.925066  1015A      0.932589  1016A      0.933858  
    1017A      0.934058  1018A      0.937880  1019A      0.944261  
    1020A      0.944734  1021A      0.945098  1022A      0.945446  
    1023A      0.950788  1024A      0.951567  1025A      0.953644  
    1026A      0.955040  1027A      0.956463  1028A      0.956531  
    1029A      0.956686  1030A      0.957002  1031A      0.960446  
    1032A      0.963633  1033A      0.965210  1034A      0.966763  
    1035A      0.967170  1036A      0.970945  1037A      0.971013  
    1038A      0.971486  1039A      0.972016  1040A      0.974137  
    1041A      0.980722  1042A      0.981008  1043A      0.981733  
    1044A      0.982221  1045A      0.984440  1046A      0.985006  
    1047A      0.987048  1048A      0.987452  1049A      0.989273  
    1050A      0.995860  1051A      0.996411  1052A      0.997359  
    1053A      0.997760  1054A      0.998241  1055A      0.998561  
    1056A      0.998749  1057A      0.999190  1058A      1.002910  
    1059A      1.003623  1060A      1.003665  1061A      1.004648  
    1062A      1.004768  1063A      1.011332  1064A      1.011547  
    1065A      1.011947  1066A      1.013680  1067A      1.015480  
    1068A      1.015907  1069A      1.017719  1070A      1.018257  
    1071A      1.018453  1072A      1.018776  1073A      1.019821  
    1074A      1.020426  1075A      1.020839  1076A      1.021306  
    1077A      1.022319  1078A      1.022597  1079A      1.023142  
    1080A      1.023606  1081A      1.024169  1082A      1.025199  
    1083A      1.025709  1084A      1.026627  1085A      1.027140  
    1086A      1.028167  1087A      1.028380  1088A      1.029352  
    1089A      1.029675  1090A      1.030978  1091A      1.031252  
    1092A      1.031702  1093A      1.031805  1094A      1.032341  
    1095A      1.033481  1096A      1.034180  1097A      1.034368  
    1098A      1.035454  1099A      1.037306  1100A      1.038660  
    1101A      1.039002  1102A      1.040338  1103A      1.040456  
    1104A      1.042379  1105A      1.042895  1106A      1.046959  
    1107A      1.047649  1108A      1.048331  1109A      1.048786  
    1110A      1.050694  1111A      1.051325  1112A      1.051971  
    1113A      1.052522  1114A      1.053933  1115A      1.054275  
    1116A      1.061062  1117A      1.062244  1118A      1.063354  
    1119A      1.069413  1120A      1.071136  1121A      1.071452  
    1122A      1.072614  1123A      1.077609  1124A      1.078900  
    1125A      1.079075  1126A      1.081071  1127A      1.082183  
    1128A      1.083719  1129A      1.084831  1130A      1.085174  
    1131A      1.088365  1132A      1.088474  1133A      1.089366  
    1134A      1.093241  1135A      1.093661  1136A      1.096292  
    1137A      1.096896  1138A      1.097287  1139A      1.100599  
    1140A      1.101744  1141A      1.102284  1142A      1.102634  
    1143A      1.107988  1144A      1.108004  1145A      1.110512  
    1146A      1.113196  1147A      1.113858  1148A      1.114181  
    1149A      1.118699  1150A      1.120328  1151A      1.121202  
    1152A      1.126594  1153A      1.126683  1154A      1.131656  
    1155A      1.132712  1156A      1.135092  1157A      1.136581  
    1158A      1.136869  1159A      1.138108  1160A      1.138911  
    1161A      1.142649  1162A      1.143710  1163A      1.143946  
    1164A      1.151088  1165A      1.153016  1166A      1.153188  
    1167A      1.153324  1168A      1.155688  1169A      1.155998  
    1170A      1.156648  1171A      1.161846  1172A      1.163093  
    1173A      1.163988  1174A      1.166086  1175A      1.166714  
    1176A      1.168529  1177A      1.169842  1178A      1.173041  
    1179A      1.173695  1180A      1.174855  1181A      1.175161  
    1182A      1.178495  1183A      1.184489  1184A      1.184774  
    1185A      1.198503  1186A      1.198728  1187A      1.199273  
    1188A      1.203240  1189A      1.204039  1190A      1.206178  
    1191A      1.211001  1192A      1.212981  1193A      1.213253  
    1194A      1.215336  1195A      1.219943  1196A      1.220282  
    1197A      1.221139  1198A      1.222248  1199A      1.226456  
    1200A      1.236228  1201A      1.236361  1202A      1.239441  
    1203A      1.241568  1204A      1.241754  1205A      1.245018  
    1206A      1.245841  1207A      1.245864  1208A      1.247948  
    1209A      1.253220  1210A      1.254222  1211A      1.256722  
    1212A      1.256911  1213A      1.259420  1214A      1.260808  
    1215A      1.262407  1216A      1.263104  1217A      1.265193  
    1218A      1.270930  1219A      1.271074  1220A      1.271210  
    1221A      1.271625  1222A      1.273075  1223A      1.277548  
    1224A      1.277861  1225A      1.278809  1226A      1.282172  
    1227A      1.282321  1228A      1.286642  1229A      1.286738  
    1230A      1.289743  1231A      1.291069  1232A      1.291437  
    1233A      1.292920  1234A      1.294094  1235A      1.298380  
    1236A      1.300123  1237A      1.303271  1238A      1.306926  
    1239A      1.307017  1240A      1.308407  1241A      1.309489  
    1242A      1.311900  1243A      1.314373  1244A      1.314526  
    1245A      1.318638  1246A      1.320183  1247A      1.321556  
    1248A      1.323429  1249A      1.324407  1250A      1.325127  
    1251A      1.330860  1252A      1.337746  1253A      1.338447  
    1254A      1.341120  1255A      1.344884  1256A      1.345764  
    1257A      1.346149  1258A      1.346696  1259A      1.349343  
    1260A      1.356860  1261A      1.357374  1262A      1.358691  
    1263A      1.359579  1264A      1.359680  1265A      1.360221  
    1266A      1.362096  1267A      1.363928  1268A      1.364463  
    1269A      1.365475  1270A      1.370913  1271A      1.372316  
    1272A      1.374897  1273A      1.375434  1274A      1.376804  
    1275A      1.377750  1276A      1.377777  1277A      1.379336  
    1278A      1.381008  1279A      1.382917  1280A      1.386279  
    1281A      1.386840  1282A      1.387292  1283A      1.389884  
    1284A      1.390363  1285A      1.393360  1286A      1.398257  
    1287A      1.398553  1288A      1.399903  1289A      1.400855  
    1290A      1.401157  1291A      1.402595  1292A      1.405383  
    1293A      1.412560  1294A      1.415006  1295A      1.418545  
    1296A      1.419816  1297A      1.420453  1298A      1.421262  
    1299A      1.422592  1300A      1.428514  1301A      1.434815  
    1302A      1.434903  1303A      1.435987  1304A      1.438229  
    1305A      1.441757  1306A      1.446621  1307A      1.447006  
    1308A      1.450118  1309A      1.454550  1310A      1.456163  
    1311A      1.456320  1312A      1.466985  1313A      1.467575  
    1314A      1.477168  1315A      1.489398  1316A      1.490445  
    1317A      1.490826  1318A      1.491361  1319A      1.493971  
    1320A      1.503652  1321A      1.503725  1322A      1.514851  
    1323A      1.529527  1324A      1.533768  1325A      1.543186  
    1326A      1.544279  1327A      1.548384  1328A      1.551543  
    1329A      1.554120  1330A      1.555040  1331A      1.555729  
    1332A      1.556871  1333A      1.557905  1334A      1.560824  
    1335A      1.561051  1336A      1.561596  1337A      1.564633  
    1338A      1.565079  1339A      1.565178  1340A      1.566019  
    1341A      1.567086  1342A      1.569656  1343A      1.570601  
    1344A      1.571265  1345A      1.572931  1346A      1.574925  
    1347A      1.576113  1348A      1.576759  1349A      1.577220  
    1350A      1.580404  1351A      1.581003  1352A      1.585206  
    1353A      1.585752  1354A      1.586272  1355A      1.587028  
    1356A      1.587608  1357A      1.588317  1358A      1.589017  
    1359A      1.590012  1360A      1.591079  1361A      1.591208  
    1362A      1.593509  1363A      1.595475  1364A      1.602303  
    1365A      1.602538  1366A      1.602627  1367A      1.606754  
    1368A      1.606967  1369A      1.607293  1370A      1.614254  
    1371A      1.615098  1372A      1.617846  1373A      1.618081  
    1374A      1.618268  1375A      1.619378  1376A      1.619428  
    1377A      1.619515  1378A      1.621321  1379A      1.627193  
    1380A      1.627508  1381A      1.628268  1382A      1.628873  
    1383A      1.632187  1384A      1.638260  1385A      1.639503  
    1386A      1.643255  1387A      1.646111  1388A      1.646432  
    1389A      1.646950  1390A      1.647981  1391A      1.649904  
    1392A      1.659834  1393A      1.660037  1394A      1.660489  
    1395A      1.665039  1396A      1.666573  1397A      1.666638  
    1398A      1.669602  1399A      1.671312  1400A      1.672430  
    1401A      1.672576  1402A      1.674855  1403A      1.675809  
    1404A      1.676444  1405A      1.683094  1406A      1.687532  
    1407A      1.688615  1408A      1.694014  1409A      1.696345  
    1410A      1.698348  1411A      1.698380  1412A      1.698846  
    1413A      1.700535  1414A      1.701304  1415A      1.714090  
    1416A      1.715868  1417A      1.718844  1418A      1.730474  
    1419A      1.737276  1420A      1.738088  1421A      1.738685  
    1422A      1.742200  1423A      1.752618  1424A      1.752822  
    1425A      1.759061  1426A      1.759568  1427A      1.763186  
    1428A      1.767270  1429A      1.771155  1430A      1.772609  
    1431A      1.774199  1432A      1.777218  1433A      1.778168  
    1434A      1.778615  1435A      1.780641  1436A      1.781619  
    1437A      1.783314  1438A      1.783775  1439A      1.786946  
    1440A      1.787044  1441A      1.787443  1442A      1.787989  
    1443A      1.789916  1444A      1.794201  1445A      1.795787  
    1446A      1.807242  1447A      1.807321  1448A      1.810748  
    1449A      1.811053  1450A      1.813378  1451A      1.813581  
    1452A      1.815786  1453A      1.815909  1454A      1.816862  
    1455A      1.820608  1456A      1.821258  1457A      1.822458  
    1458A      1.823844  1459A      1.824131  1460A      1.826220  
    1461A      1.829110  1462A      1.832306  1463A      1.833045  
    1464A      1.833708  1465A      1.834346  1466A      1.834773  
    1467A      1.835165  1468A      1.835977  1469A      1.836694  
    1470A      1.839740  1471A      1.840312  1472A      1.853281  
    1473A      1.853944  1474A      1.855519  1475A      1.856129  
    1476A      1.856540  1477A      1.861475  1478A      1.865591  
    1479A      1.866108  1480A      1.867093  1481A      1.869894  
    1482A      1.870780  1483A      1.872458  1484A      1.872719  
    1485A      1.874904  1486A      1.875399  1487A      1.876182  
    1488A      1.880096  1489A      1.882888  1490A      1.887446  
    1491A      1.888166  1492A      1.889165  1493A      1.889450  
    1494A      1.889848  1495A      1.890693  1496A      1.892640  
    1497A      1.894164  1498A      1.894756  1499A      1.896469  
    1500A      1.901458  1501A      1.903679  1502A      1.905088  
    1503A      1.905532  1504A      1.908157  1505A      1.908967  
    1506A      1.909677  1507A      1.911215  1508A      1.911470  
    1509A      1.911541  1510A      1.917402  1511A      1.918776  
    1512A      1.920468  1513A      1.921582  1514A      1.922704  
    1515A      1.923804  1516A      1.930832  1517A      1.932201  
    1518A      1.935176  1519A      1.939748  1520A      1.942169  
    1521A      1.942413  1522A      1.943816  1523A      1.944278  
    1524A      1.945495  1525A      1.955998  1526A      1.957245  
    1527A      1.958212  1528A      1.960911  1529A      1.961934  
    1530A      1.963373  1531A      1.966303  1532A      1.966723  
    1533A      1.967159  1534A      1.968041  1535A      1.969626  
    1536A      1.970142  1537A      1.970537  1538A      1.971361  
    1539A      1.974597  1540A      1.977393  1541A      1.978103  
    1542A      1.981022  1543A      1.983023  1544A      1.983865  
    1545A      1.985683  1546A      1.989760  1547A      1.992103  
    1548A      1.992413  1549A      1.997453  1550A      1.999979  
    1551A      2.002663  1552A      2.003442  1553A      2.006366  
    1554A      2.006628  1555A      2.008829  1556A      2.009393  
    1557A      2.010422  1558A      2.010599  1559A      2.015732  
    1560A      2.017191  1561A      2.019164  1562A      2.019444  
    1563A      2.020906  1564A      2.025851  1565A      2.028018  
    1566A      2.029928  1567A      2.030690  1568A      2.031161  
    1569A      2.032133  1570A      2.033073  1571A      2.033285  
    1572A      2.033701  1573A      2.036811  1574A      2.038418  
    1575A      2.039070  1576A      2.040070  1577A      2.041229  
    1578A      2.042176  1579A      2.042402  1580A      2.043919  
    1581A      2.044468  1582A      2.047003  1583A      2.047190  
    1584A      2.047812  1585A      2.048198  1586A      2.051280  
    1587A      2.051430  1588A      2.051904  1589A      2.053269  
    1590A      2.056994  1591A      2.060194  1592A      2.061621  
    1593A      2.061827  1594A      2.062493  1595A      2.063423  
    1596A      2.064527  1597A      2.067177  1598A      2.068341  
    1599A      2.070027  1600A      2.075179  1601A      2.076058  
    1602A      2.076925  1603A      2.077740  1604A      2.077884  
    1605A      2.078540  1606A      2.078833  1607A      2.079978  
    1608A      2.080999  1609A      2.085189  1610A      2.085764  
    1611A      2.086490  1612A      2.087365  1613A      2.092649  
    1614A      2.092819  1615A      2.094426  1616A      2.095397  
    1617A      2.095641  1618A      2.097029  1619A      2.104675  
    1620A      2.105121  1621A      2.106921  1622A      2.107146  
    1623A      2.108344  1624A      2.109505  1625A      2.110069  
    1626A      2.110322  1627A      2.114103  1628A      2.114350  
    1629A      2.121856  1630A      2.122141  1631A      2.130227  
    1632A      2.131729  1633A      2.131791  1634A      2.133021  
    1635A      2.138297  1636A      2.138955  1637A      2.140492  
    1638A      2.140766  1639A      2.142409  1640A      2.144209  
    1641A      2.146150  1642A      2.147434  1643A      2.147607  
    1644A      2.149161  1645A      2.149817  1646A      2.151438  
    1647A      2.151577  1648A      2.151896  1649A      2.153681  
    1650A      2.154927  1651A      2.156635  1652A      2.159795  
    1653A      2.164365  1654A      2.164523  1655A      2.168276  
    1656A      2.170160  1657A      2.173822  1658A      2.174021  
    1659A      2.174455  1660A      2.174614  1661A      2.175850  
    1662A      2.179440  1663A      2.183236  1664A      2.184493  
    1665A      2.185094  1666A      2.187547  1667A      2.188638  
    1668A      2.188823  1669A      2.192380  1670A      2.196869  
    1671A      2.197839  1672A      2.199389  1673A      2.200117  
    1674A      2.211156  1675A      2.212599  1676A      2.213988  
    1677A      2.214999  1678A      2.216538  1679A      2.217978  
    1680A      2.222015  1681A      2.225160  1682A      2.233867  
    1683A      2.234439  1684A      2.235100  1685A      2.241567  
    1686A      2.242635  1687A      2.246525  1688A      2.247878  
    1689A      2.254772  1690A      2.255221  1691A      2.258099  
    1692A      2.259821  1693A      2.263387  1694A      2.274160  
    1695A      2.275760  1696A      2.275818  1697A      2.277661  
    1698A      2.279759  1699A      2.281517  1700A      2.281889  
    1701A      2.282867  1702A      2.284115  1703A      2.285264  
    1704A      2.289248  1705A      2.292048  1706A      2.292673  
    1707A      2.292946  1708A      2.295208  1709A      2.295947  
    1710A      2.296607  1711A      2.298663  1712A      2.299108  
    1713A      2.306271  1714A      2.316790  1715A      2.321189  
    1716A      2.321806  1717A      2.330707  1718A      2.334792  
    1719A      2.338409  1720A      2.339961  1721A      2.341485  
    1722A      2.342338  1723A      2.343045  1724A      2.346654  
    1725A      2.369080  1726A      2.370124  1727A      2.373725  
    1728A      2.378317  1729A      2.381872  1730A      2.392024  
    1731A      2.393820  1732A      2.401992  1733A      2.403285  
    1734A      2.415100  1735A      2.415189  1736A      2.418553  
    1737A      2.418775  1738A      2.422900  1739A      2.423196  
    1740A      2.442441  1741A      2.442880  1742A      2.444508  
    1743A      2.448524  1744A      2.452856  1745A      2.457496  
    1746A      2.458708  1747A      2.462768  1748A      2.467669  
    1749A      2.468474  1750A      2.489368  1751A      2.489585  
    1752A      2.490932  1753A      2.492785  1754A      2.493670  
    1755A      2.494942  1756A      2.498469  1757A      2.499352  
    1758A      2.500856  1759A      2.501962  1760A      2.506101  
    1761A      2.506293  1762A      2.508320  1763A      2.514624  
    1764A      2.521839  1765A      2.523497  1766A      2.532166  
    1767A      2.535972  1768A      2.536081  1769A      2.536449  
    1770A      2.537310  1771A      2.540780  1772A      2.540812  
    1773A      2.544035  1774A      2.546052  1775A      2.552435  
    1776A      2.552535  1777A      2.563675  1778A      2.563900  
    1779A      2.564219  1780A      2.564750  1781A      2.567098  
    1782A      2.568440  1783A      2.581395  1784A      2.583235  
    1785A      2.591065  1786A      2.592101  1787A      2.594302  
    1788A      2.595828  1789A      2.598373  1790A      2.599214  
    1791A      2.599655  1792A      2.604454  1793A      2.607131  
    1794A      2.607445  1795A      2.612723  1796A      2.615557  
    1797A      2.616180  1798A      2.619308  1799A      2.622057  
    1800A      2.622415  1801A      2.623356  1802A      2.628535  
    1803A      2.629335  1804A      2.635059  1805A      2.635913  
    1806A      2.637470  1807A      2.641615  1808A      2.641691  
    1809A      2.641974  1810A      2.642956  1811A      2.643749  
    1812A      2.646473  1813A      2.647812  1814A      2.654174  
    1815A      2.669685  1816A      2.672005  1817A      2.680678  
    1818A      2.681457  1819A      2.681576  1820A      2.682220  
    1821A      2.682662  1822A      2.683548  1823A      2.686050  
    1824A      2.695679  1825A      2.703413  1826A      2.709181  
    1827A      2.709972  1828A      2.714477  1829A      2.721294  
    1830A      2.725060  1831A      2.729568  1832A      2.730050  
    1833A      2.745279  1834A      2.748592  1835A      2.749575  
    1836A      2.750901  1837A      2.751948  1838A      2.752050  
    1839A      2.755186  1840A      2.758200  1841A      2.760370  
    1842A      2.764397  1843A      2.764665  1844A      2.766079  
    1845A      2.766495  1846A      2.777319  1847A      2.777565  
    1848A      2.790196  1849A      2.790343  1850A      2.791725  
    1851A      2.791928  1852A      2.794243  1853A      2.795777  
    1854A      2.809872  1855A      2.814832  1856A      2.815331  
    1857A      2.820477  1858A      2.821836  1859A      2.824652  
    1860A      2.844712  1861A      2.845622  1862A      2.861693  
    1863A      2.869459  1864A      2.869632  1865A      2.879314  
    1866A      2.881411  1867A      2.886220  1868A      2.886349  
    1869A      2.914102  1870A      2.916195  1871A      2.916837  
    1872A      2.927397  1873A      2.927911  1874A      2.942928  
    1875A      2.943614  1876A      2.979697  1877A      2.980332  
    1878A      2.984312  1879A      2.986791  1880A      2.990120  
    1881A      2.997435  1882A      2.998160  1883A      2.999685  
    1884A      3.007632  1885A      3.007788  1886A      3.016025  
    1887A      3.023391  1888A      3.053007  1889A      3.060234  
    1890A      3.064192  1891A      3.064544  1892A      3.071674  
    1893A      3.073132  1894A      3.077278  1895A      3.078080  
    1896A      3.083110  1897A      3.084771  1898A      3.093329  
    1899A      3.094477  1900A      3.098678  1901A      3.099328  
    1902A      3.100797  1903A      3.101598  1904A      3.105259  
    1905A      3.114078  1906A      3.117074  1907A      3.124855  
    1908A      3.126351  1909A      3.126839  1910A      3.144672  
    1911A      3.145155  1912A      3.171975  1913A      3.203708  
    1914A      3.210655  1915A      3.211222  1916A      3.211759  
    1917A      3.212730  1918A      3.215074  1919A      3.219031  
    1920A      3.222145  1921A      3.225365  1922A      3.226147  
    1923A      3.243270  1924A      3.244668  1925A      3.245466  
    1926A      3.253159  1927A      3.310881  1928A      3.311999  
    1929A      3.319566  1930A      3.365056  1931A      3.379003  
    1932A      3.381101  1933A      3.384710  1934A      3.394151  
    1935A      3.397711  1936A      3.409656  1937A      3.413956  
    1938A      3.414596  1939A      3.420372  1940A      3.423352  
    1941A      3.430440  1942A      3.433476  1943A      3.442654  
    1944A      3.447189  1945A      3.458608  1946A      3.487624  
    1947A      3.524053  1948A      3.525709  1949A      3.532213  
    1950A      3.536267  1951A      3.540437  1952A      3.586117  
    1953A      3.588337  1954A      3.614552  1955A      3.616929  
    1956A      3.654814  1957A      3.696440  1958A      3.699829  
    1959A      3.700626  1960A      3.712090  1961A      3.727677  
    1962A      3.729435  1963A      3.792696  1964A      3.793621  
    1965A      3.822076  1966A      3.825096  1967A      3.854791  
    1968A      3.862805  1969A      3.886579  1970A      3.888222  
    1971A      3.898537  1972A      3.899615  1973A      3.908074  
    1974A      3.913029  1975A      3.920065  1976A      3.974049  
    1977A      3.976637  1978A      4.019509  1979A      4.176615  
    1980A      4.248974  1981A      4.340879  

    Final Occupation by Irrep:
              A 
    DOCC [   326 ]
    NA   [   326 ]
    NB   [   326 ]

  @DF-RHF Final Energy: -3953.64415044392217

   => Energetics <=

    Nuclear Repulsion Energy =          17629.6863905485006399
    One-Electron Energy =              -40472.7619018896439229
    Two-Electron Energy =               18889.4313608972224756
    Total Energy =                      -3953.6441504439208074

Computation Completed


Properties will be evaluated at   0.000000,   0.000000,   0.000000 [a0]

Properties computed using the SCF density matrix


 Multipole Moments:

 ------------------------------------------------------------------------------------
     Multipole            Electronic (a.u.)      Nuclear  (a.u.)        Total (a.u.)
 ------------------------------------------------------------------------------------

 L = 1.  Multiply by 2.5417464519 to convert [e a0] to [Debye]
 Dipole X            :          0.0015215            0.0004804            0.0020019
 Dipole Y            :         -1.5274351            1.8866171            0.3591820
 Dipole Z            :        -33.7620652           46.0997595           12.3376943
 Magnitude           :                                                   12.3429217

 ------------------------------------------------------------------------------------

*** tstop() called on n2cn0686.ab2021.local at Sat Jan 27 00:21:21 2024
Module time:
	user time   =   28361.35 seconds =     472.69 minutes
	system time =    3969.22 seconds =      66.15 minutes
	total time  =       3640 seconds =      60.67 minutes
Total time:
	user time   =   28361.35 seconds =     472.69 minutes
	system time =    3969.22 seconds =      66.15 minutes
	total time  =       3640 seconds =      60.67 minutes

  //>>>>>>>>>>>>>>>>>>>>>>>>>>>>>>>>>>>//
  //            Monomer A HF           //
  //<<<<<<<<<<<<<<<<<<<<<<<<<<<<<<<<<<<//

   => Libint2 <=

    Primary   basis highest AM E, G, H:  5, 4, 3
    Auxiliary basis highest AM E, G, H:  6, 5, 4
    Onebody   basis highest AM E, G, H:  6, 5, 4
    Solid Harmonics ordering:            gaussian

*** tstart() called on n2cn0686.ab2021.local
*** at Sat Jan 27 00:21:21 2024

   => Loading Basis Set <=

    Name: JUN-CC-PVDZ
    Role: ORBITAL
    Keyword: BASIS
    atoms 1-2, 4-5, 10, 17-34, 41-53, 56-70, 73-89, 92-104, 109-119, 122-130 entry C          line   164 file /opt/software/pc2/EB-SW/software/PSI4/1.9-foss-2022a/share/psi4/basis/jun-cc-pvdz.gbs 
    atoms 3, 6                                                               entry N          line   198 file /opt/software/pc2/EB-SW/software/PSI4/1.9-foss-2022a/share/psi4/basis/jun-cc-pvdz.gbs 
    atoms 7-9, 11-16, 35-40, 54-55, 71-72, 90-91, 105-108, 120-121, 131-136  entry H          line    36 file /opt/software/pc2/EB-SW/software/PSI4/1.9-foss-2022a/share/psi4/basis/jun-cc-pvdz.gbs 


         ---------------------------------------------------------
                                   SCF
               by Justin Turney, Rob Parrish, Andy Simmonett
                          and Daniel G. A. Smith
                              RHF Reference
                       16 Threads,  61035 MiB Core
         ---------------------------------------------------------

  ==> Geometry <==

    Molecular point group: c1
    Full point group: C1

    Geometry (in Angstrom), charge = 1, multiplicity = 1:

       Center              X                  Y                   Z               Mass       
    ------------   -----------------  -----------------  -----------------  -----------------
         C            0.680062820275    -1.215917226251     7.028597594508    12.000000000000
         C           -0.680508179725    -1.215533226251     7.026569594508    12.000000000000
         N           -1.085639179725     0.102790773749     7.025571594508    14.003074004430
[...]
    1579A      2.162132  1580A      2.162731  1581A      2.164499  
    1582A      2.171221  1583A      2.171500  1584A      2.179546  
    1585A      2.180729  1586A      2.181164  1587A      2.182147  
    1588A      2.187612  1589A      2.188620  1590A      2.188924  
    1591A      2.191340  1592A      2.191837  1593A      2.193538  
    1594A      2.194949  1595A      2.196308  1596A      2.197929  
    1597A      2.199934  1598A      2.200398  1599A      2.200567  
    1600A      2.200874  1601A      2.201453  1602A      2.203038  
    1603A      2.204905  1604A      2.205610  1605A      2.209290  
    1606A      2.213712  1607A      2.213914  1608A      2.217175  
    1609A      2.220133  1610A      2.222195  1611A      2.222698  
    1612A      2.224245  1613A      2.224717  1614A      2.224779  
    1615A      2.228766  1616A      2.232012  1617A      2.232289  
    1618A      2.233084  1619A      2.238687  1620A      2.238839  
    1621A      2.239471  1622A      2.241248  1623A      2.247408  
    1624A      2.247739  1625A      2.248190  1626A      2.248613  
    1627A      2.251971  1628A      2.260274  1629A      2.261514  
    1630A      2.263332  1631A      2.264827  1632A      2.266439  
    1633A      2.269495  1634A      2.273083  1635A      2.275210  
    1636A      2.277610  1637A      2.282796  1638A      2.284244  
    1639A      2.290218  1640A      2.290984  1641A      2.296286  
    1642A      2.296748  1643A      2.299665  1644A      2.303712  
    1645A      2.304125  1646A      2.309027  1647A      2.314345  
    1648A      2.315653  1649A      2.324487  1650A      2.324866  
    1651A      2.325178  1652A      2.327098  1653A      2.329380  
    1654A      2.330521  1655A      2.331070  1656A      2.332932  
    1657A      2.334250  1658A      2.335018  1659A      2.336680  
    1660A      2.339727  1661A      2.341349  1662A      2.341939  
    1663A      2.342156  1664A      2.342378  1665A      2.344831  
    1666A      2.345779  1667A      2.346291  1668A      2.349039  
    1669A      2.349392  1670A      2.367967  1671A      2.372220  
    1672A      2.372848  1673A      2.383524  1674A      2.386563  
    1675A      2.387938  1676A      2.390214  1677A      2.391695  
    1678A      2.392661  1679A      2.396925  1680A      2.418287  
    1681A      2.419467  1682A      2.423493  1683A      2.427491  
    1684A      2.431867  1685A      2.441460  1686A      2.443162  
    1687A      2.446218  1688A      2.450352  1689A      2.452025  
    1690A      2.453046  1691A      2.458540  1692A      2.464275  
    1693A      2.464355  1694A      2.467702  1695A      2.467981  
    1696A      2.471888  1697A      2.472124  1698A      2.472381  
    1699A      2.480157  1700A      2.490974  1701A      2.491383  
    1702A      2.494546  1703A      2.501550  1704A      2.506014  
    1705A      2.507097  1706A      2.508526  1707A      2.511446  
    1708A      2.516196  1709A      2.539046  1710A      2.539121  
    1711A      2.540063  1712A      2.541801  1713A      2.542723  
    1714A      2.544890  1715A      2.547533  1716A      2.548467  
    1717A      2.549139  1718A      2.551034  1719A      2.556500  
    1720A      2.556655  1721A      2.564182  1722A      2.571075  
    1723A      2.571528  1724A      2.577760  1725A      2.579966  
    1726A      2.583668  1727A      2.584155  1728A      2.585047  
    1729A      2.586218  1730A      2.588474  1731A      2.588515  
    1732A      2.593186  1733A      2.593486  1734A      2.601270  
    1735A      2.601425  1736A      2.612726  1737A      2.612863  
    1738A      2.613178  1739A      2.613741  1740A      2.616090  
    1741A      2.617443  1742A      2.632526  1743A      2.635731  
    1744A      2.640510  1745A      2.641358  1746A      2.643577  
    1747A      2.645343  1748A      2.646633  1749A      2.647433  
    1750A      2.648571  1751A      2.649141  1752A      2.652680  
    1753A      2.653275  1754A      2.655743  1755A      2.656086  
    1756A      2.663156  1757A      2.665958  1758A      2.666053  
    1759A      2.667537  1760A      2.670344  1761A      2.670499  
    1762A      2.673542  1763A      2.676415  1764A      2.677476  
    1765A      2.678411  1766A      2.684287  1767A      2.685610  
    1768A      2.686997  1769A      2.691030  1770A      2.691213  
    1771A      2.691545  1772A      2.692327  1773A      2.696021  
    1774A      2.697265  1775A      2.704037  1776A      2.720613  
    1777A      2.730630  1778A      2.730721  1779A      2.730866  
    1780A      2.730903  1781A      2.731881  1782A      2.738368  
    1783A      2.750169  1784A      2.752553  1785A      2.759872  
    1786A      2.760750  1787A      2.770719  1788A      2.772406  
    1789A      2.775774  1790A      2.779565  1791A      2.780193  
    1792A      2.799077  1793A      2.799836  1794A      2.801520  
    1795A      2.802155  1796A      2.802187  1797A      2.808698  
    1798A      2.810299  1799A      2.811545  1800A      2.814878  
    1801A      2.815490  1802A      2.815820  1803A      2.816227  
    1804A      2.827929  1805A      2.828192  1806A      2.836449  
    1807A      2.840096  1808A      2.840910  1809A      2.841464  
    1810A      2.841641  1811A      2.845390  1812A      2.859967  
    1813A      2.864818  1814A      2.865358  1815A      2.869592  
    1816A      2.871171  1817A      2.874253  1818A      2.875872  
    1819A      2.892898  1820A      2.895873  1821A      2.896759  
    1822A      2.912666  1823A      2.913514  1824A      2.917640  
    1825A      2.917760  1826A      2.924963  1827A      2.927395  
    1828A      2.929572  1829A      2.934833  1830A      2.934860  
    1831A      2.947395  1832A      2.963052  1833A      2.964674  
    1834A      2.965279  1835A      2.972840  1836A      2.976159  
    1837A      2.991881  1838A      2.992472  1839A      2.995907  
    1840A      3.011892  1841A      3.029290  1842A      3.029942  
    1843A      3.035289  1844A      3.038578  1845A      3.039489  
    1846A      3.046813  1847A      3.047460  1848A      3.048001  
    1849A      3.057475  1850A      3.057585  1851A      3.063286  
    1852A      3.072824  1853A      3.108450  1854A      3.112512  
    1855A      3.112962  1856A      3.122346  1857A      3.126942  
    1858A      3.127481  1859A      3.132353  1860A      3.134096  
    1861A      3.141953  1862A      3.142671  1863A      3.145470  
    1864A      3.148252  1865A      3.148810  1866A      3.149400  
    1867A      3.150118  1868A      3.153495  1869A      3.162115  
    1870A      3.167617  1871A      3.173128  1872A      3.174625  
    1873A      3.175153  1874A      3.193047  1875A      3.193524  
    1876A      3.220028  1877A      3.252763  1878A      3.259366  
    1879A      3.260623  1880A      3.261363  1881A      3.261950  
    1882A      3.264289  1883A      3.268106  1884A      3.271112  
    1885A      3.274417  1886A      3.275279  1887A      3.287313  
    1888A      3.292521  1889A      3.294299  1890A      3.295205  
    1891A      3.302095  1892A      3.304481  1893A      3.318246  
    1894A      3.361107  1895A      3.362197  1896A      3.369985  
    1897A      3.392767  1898A      3.415471  1899A      3.429605  
    1900A      3.431968  1901A      3.437017  1902A      3.445517  
    1903A      3.449101  1904A      3.460881  1905A      3.464521  
    1906A      3.465202  1907A      3.470839  1908A      3.473863  
    1909A      3.480928  1910A      3.484604  1911A      3.493432  
    1912A      3.509061  1913A      3.524587  1914A      3.538493  
    1915A      3.570286  1916A      3.574343  1917A      3.575970  
    1918A      3.582395  1919A      3.589871  1920A      3.636462  
    1921A      3.638731  1922A      3.644964  1923A      3.664568  
    1924A      3.666737  1925A      3.704978  1926A      3.747250  
    1927A      3.749125  1928A      3.750389  1929A      3.757982  
    1930A      3.763037  1931A      3.778576  1932A      3.778617  
    1933A      3.816448  1934A      3.841876  1935A      3.843136  
    1936A      3.868081  1937A      3.871425  1938A      3.874562  
    1939A      3.904521  1940A      3.912880  1941A      3.937590  
    1942A      3.939356  1943A      3.948168  1944A      3.949142  
    1945A      3.958062  1946A      3.958462  1947A      3.964373  
    1948A      3.970826  1949A      4.024600  1950A      4.027399  
    1951A      4.070825  1952A      4.206499  1953A      4.208440  
    1954A      4.228748  1955A      4.301371  1956A      4.347478  
    1957A      4.364921  1958A      4.393303  1959A      4.482283  
    1960A      4.734877  1961A      4.773666  1962A      4.829225  
    1963A      4.846620  1964A      4.936343  1965A      5.048725  
    1966A      5.056633  1967A      5.065602  1968A      5.110504  
    1969A      5.125104  1970A      5.390487  1971A      5.421682  
    1972A      5.733202  1973A      5.750302  1974A      6.067247  
    1975A     18.200546  1976A     18.452796  1977A     18.470670  
    1978A     18.558397  1979A     18.832690  1980A     25.340961  
    1981A     25.375336  

    Final Occupation by Irrep:
              A 
    DOCC [   300 ]
    NA   [   300 ]
    NB   [   300 ]

  @DF-RHF Final Energy: -3650.33756678293412

   => Energetics <=

    Nuclear Repulsion Energy =          15611.4211649754324753
    One-Electron Energy =              -36072.0735396196396323
    Two-Electron Energy =               16810.3148078612721292
    Total Energy =                      -3650.3375667829350277

Computation Completed


Properties will be evaluated at   0.000000,   0.000000,   0.000000 [a0]

Properties computed using the SCF density matrix


 Multipole Moments:

 ------------------------------------------------------------------------------------
     Multipole            Electronic (a.u.)      Nuclear  (a.u.)        Total (a.u.)
 ------------------------------------------------------------------------------------

 L = 1.  Multiply by 2.5417464519 to convert [e a0] to [Debye]
 Dipole X            :         -0.0009082            0.0002112           -0.0006971
 Dipole Y            :          0.0041828           -0.0044281           -0.0002453
 Dipole Z            :        656.9900145         -656.9913469           -0.0013324
 Magnitude           :                                                    0.0015236

 ------------------------------------------------------------------------------------

*** tstop() called on n2cn0686.ab2021.local at Sat Jan 27 01:36:32 2024
Module time:
	user time   =   20331.87 seconds =     338.86 minutes
	system time =    1377.18 seconds =      22.95 minutes
	total time  =       2890 seconds =      48.17 minutes
Total time:
	user time   =   54905.26 seconds =     915.09 minutes
	system time =    5918.54 seconds =      98.64 minutes
	total time  =       8151 seconds =     135.85 minutes
  Constructing Basis Sets for SAPT...

   => Loading Basis Set <=

    Name: (JUN-CC-PVDZ AUX)
    Role: RIFIT
    Keyword: DF_BASIS_SAPT
    atoms 1-2, 4-5, 10, 17-34, 41-53, 56-70, 73-89, 92-104, 109-119, 122-130 entry C          line   100 file /opt/software/pc2/EB-SW/software/PSI4/1.9-foss-2022a/share/psi4/basis/jun-cc-pvdz-ri.gbs 
    atoms 3, 6                                                               entry N          line   144 file /opt/software/pc2/EB-SW/software/PSI4/1.9-foss-2022a/share/psi4/basis/jun-cc-pvdz-ri.gbs 
    atoms 7-9, 11-16, 35-40, 54-55, 71-72, 90-91, 105-108, 120-121, 131-136  entry H          line    30 file /opt/software/pc2/EB-SW/software/PSI4/1.9-foss-2022a/share/psi4/basis/jun-cc-pvdz-ri.gbs 

   => Loading Basis Set <=

    Name: (JUN-CC-PVDZ AUX)
    Role: JKFIT
    Keyword: DF_BASIS_ELST
    atoms 1-2, 4-5, 10, 17-34, 41-53, 56-70, 73-89, 92-104, 109-119, 122-130 entry C          line   146 file /opt/software/pc2/EB-SW/software/PSI4/1.9-foss-2022a/share/psi4/basis/jun-cc-pvdz-jkfit.gbs 
    atoms 3, 6                                                               entry N          line   202 file /opt/software/pc2/EB-SW/software/PSI4/1.9-foss-2022a/share/psi4/basis/jun-cc-pvdz-jkfit.gbs 
    atoms 7-9, 11-16, 35-40, 54-55, 71-72, 90-91, 105-108, 120-121, 131-136  entry H          line    70 file /opt/software/pc2/EB-SW/software/PSI4/1.9-foss-2022a/share/psi4/basis/jun-cc-pvdz-jkfit.gbs 


  //>>>>>>>>>>>>>>>>>>>>>>>>>>>>>>>>>>>//
  //               SSAPT0              //
  //<<<<<<<<<<<<<<<<<<<<<<<<<<<<<<<<<<<//


*** tstart() called on n2cn0686.ab2021.local
*** at Sat Jan 27 01:36:33 2024

        SAPT0  
    Ed Hohenstein
     6 June 2009

      Orbital Information
  --------------------------
    NSO        =      2019
    NMO        =      1981
    NRI        =      7157
    NRI (Elst) =      8896
    NOCC A     =        26
    NOCC B     =       300
    FOCC A     =         7
    FOCC B     =        96
    NVIR A     =      1955
    NVIR B     =      1681

    Elst10,r            =    -0.007256851364 [Eh]
    Exch10              =    -0.000000169369 [Eh]
    Exch10 (S^2)        =    -0.000000169369 [Eh]

    Iter     Energy [mEh]          dE [mEh]         Residual      Time [s]
       1      -0.00940741       0.009407411       0.842956873           224
       2      -0.00854508      -0.000862330       0.173174877           416
       3      -0.00922906       0.000683976       0.033107544           603
       4      -0.00922806      -0.000001001       0.012631388           798
       5      -0.00921406      -0.000013994       0.002704035           969
       6      -0.00921443       0.000000372       0.001397947          1143
       7      -0.00921501       0.000000573       0.000594459          1333
       8      -0.00921500      -0.000000006       0.000225105          1570
       9      -0.00921494      -0.000000066       0.000069873          1738
      10      -0.00921492      -0.000000011       0.000015382          1914
      11      -0.00921493       0.000000006       0.000005392          2084
      12      -0.00921493       0.000000001       0.000001744          2297
      13      -0.00921493      -0.000000001       0.000000686          2499

    CHF Iterations converged


    Iter     Energy [mEh]          dE [mEh]         Residual      Time [s]
       1      -3.15711359       3.157113586      30.784773709           218
       2      -2.04933793      -1.107775653       3.500221875           412
       3      -2.04417910      -0.005158828       1.233166862           650
       4      -2.08229058       0.038111479       0.370733286           901
       5      -2.08683664       0.004546059       0.125659010          1188
       6      -2.08642162      -0.000415022       0.081580151          1409
       7      -2.08535919      -0.001062428       0.039491167          1641
       8      -2.08548639       0.000127196       0.024565765          1894
       9      -2.08577959       0.000293205       0.014690306          2150
      10      -2.08568222      -0.000097377       0.010860634          2365
      11      -2.08563916      -0.000043057       0.004601546          2598
      12      -2.08564570       0.000006537       0.002180878          2833
      13      -2.08565590       0.000010204       0.000944329          3153
      14      -2.08565805       0.000002150       0.000509867          3406
      15      -2.08565611      -0.000001940       0.000346249          3671
      16      -2.08565446      -0.000001647       0.000150341          3969
      17      -2.08565553       0.000001060       0.000055923          4327
      18      -2.08565565       0.000000128       0.000024072          4582
      19      -2.08565554      -0.000000110       0.000015224          4827
      20      -2.08565549      -0.000000051       0.000006991          5103
      21      -2.08565552       0.000000025       0.000003360          5349
      22      -2.08565553       0.000000010       0.000001419          5674
      23      -2.08565552      -0.000000002       0.000000491          5907

    CHF Iterations converged

    Ind20,r (A<-B)      =    -0.000009214931 [Eh]
    Ind20,r (B<-A)      =    -0.002085655525 [Eh]
    Ind20,r             =    -0.002094870455 [Eh]
    Exch-Ind20,r (A<-B) =     0.000000021524 [Eh]
    Exch-Ind20,r (B<-A) =     0.000000115136 [Eh]
    Exch-Ind20,r        =     0.000000136659 [Eh]
    Disp20              =    -0.001015754144 [Eh]
    Disp20 (SS)         =    -0.000507877072 [Eh]
    Disp20 (OS)         =    -0.000507877072 [Eh]
    Exch-Disp20         =     0.000000043248 [Eh]
    Exch-Disp20 (SS)    =     0.000000032382 [Eh]
    Exch-Disp20 (OS)    =     0.000000010865 [Eh]

    SAPT Results 
  --------------------------------------------------------------------------------------------------------
    Electrostatics                 -7.25685136 [mEh]      -4.55374298 [kcal/mol]     -19.05286063 [kJ/mol]
      Elst10,r                     -7.25685136 [mEh]      -4.55374298 [kcal/mol]     -19.05286063 [kJ/mol]

    Exchange                       -0.00016937 [mEh]      -0.00010628 [kcal/mol]      -0.00044468 [kJ/mol]
      Exch10                       -0.00016937 [mEh]      -0.00010628 [kcal/mol]      -0.00044468 [kJ/mol]
      Exch10(S^2)                  -0.00016937 [mEh]      -0.00010628 [kcal/mol]      -0.00044468 [kJ/mol]

    Induction                      -2.11598655 [mEh]      -1.32780161 [kcal/mol]      -5.55552193 [kJ/mol]
      Ind20,r                      -2.09487046 [mEh]      -1.31455106 [kcal/mol]      -5.50008162 [kJ/mol]
      Exch-Ind20,r                  0.00013666 [mEh]       0.00008576 [kcal/mol]       0.00035880 [kJ/mol]
      delta HF,r (2)               -0.02125276 [mEh]      -0.01333631 [kcal/mol]      -0.05579910 [kJ/mol]

    Dispersion                     -1.01571090 [mEh]      -0.63736821 [kcal/mol]      -2.66674859 [kJ/mol]
      Disp20                       -1.01575414 [mEh]      -0.63739535 [kcal/mol]      -2.66686214 [kJ/mol]
      Exch-Disp20                   0.00004325 [mEh]       0.00002714 [kcal/mol]       0.00011355 [kJ/mol]
      Disp20 (SS)                  -0.50787707 [mEh]      -0.31869767 [kcal/mol]      -1.33343107 [kJ/mol]
      Disp20 (OS)                  -0.50787707 [mEh]      -0.31869767 [kcal/mol]      -1.33343107 [kJ/mol]
      Exch-Disp20 (SS)              0.00003238 [mEh]       0.00002032 [kcal/mol]       0.00008502 [kJ/mol]
      Exch-Disp20 (OS)              0.00001087 [mEh]       0.00000682 [kcal/mol]       0.00002853 [kJ/mol]

  Total HF                         -9.37300728 [mEh]      -5.88165087 [kcal/mol]     -24.60882724 [kJ/mol]
  Total SAPT0                     -10.38871818 [mEh]      -6.51901908 [kcal/mol]     -27.27557583 [kJ/mol]

  Special recipe for scaled SAPT0 (see Manual):
    Electrostatics sSAPT0          -7.25685136 [mEh]      -4.55374298 [kcal/mol]     -19.05286063 [kJ/mol]
    Exchange sSAPT0                -0.00016937 [mEh]      -0.00010628 [kcal/mol]      -0.00044468 [kJ/mol]
    Induction sSAPT0               -2.11598655 [mEh]      -1.32780161 [kcal/mol]      -5.55552193 [kJ/mol]
    Dispersion sSAPT0              -1.01571090 [mEh]      -0.63736821 [kcal/mol]      -2.66674859 [kJ/mol]
  Total sSAPT0                    -10.38871818 [mEh]      -6.51901908 [kcal/mol]     -27.27557583 [kJ/mol]
  --------------------------------------------------------------------------------------------------------

*** tstop() called on n2cn0686.ab2021.local at Sat Jan 27 08:53:23 2024
Module time:
	user time   =   90189.05 seconds =    1503.15 minutes
	system time =    4560.34 seconds =      76.01 minutes
	total time  =      26210 seconds =     436.83 minutes
Total time:
	user time   =  145095.73 seconds =    2418.26 minutes
	system time =   10478.88 seconds =     174.65 minutes
	total time  =      34362 seconds =     572.70 minutes

    Psi4 stopped on: Saturday, 27 January 2024 08:53AM
    Psi4 wall time for execution: 9:32:43.02

*** Psi4 exiting successfully. Buy a developer a beer!
