
    -----------------------------------------------------------------------
          Psi4: An Open-Source Ab Initio Electronic Structure Package
                               Psi4 1.9 release

                         Git: Rev {} zzzzzzz 


    D. G. A. Smith, L. A. Burns, A. C. Simmonett, R. M. Parrish,
    M. C. Schieber, R. Galvelis, P. Kraus, H. Kruse, R. Di Remigio,
    A. Alenaizan, A. M. James, S. Lehtola, J. P. Misiewicz, M. Scheurer,
    R. A. Shaw, J. B. Schriber, Y. Xie, Z. L. Glick, D. A. Sirianni,
    J. S. O'Brien, J. M. Waldrop, A. Kumar, E. G. Hohenstein,
    B. P. Pritchard, B. R. Brooks, H. F. Schaefer III, A. Yu. Sokolov,
    K. Patkowski, A. E. DePrince III, U. Bozkaya, R. A. King,
    F. A. Evangelista, J. M. Turney, T. D. Crawford, C. D. Sherrill,
    J. Chem. Phys. 152(18) 184108 (2020). https://doi.org/10.1063/5.0006002

                            Additional Code Authors
    E. T. Seidl, C. L. Janssen, E. F. Valeev, M. L. Leininger,
    J. F. Gonthier, R. M. Richard, H. R. McAlexander, M. Saitow, X. Wang,
    P. Verma, M. H. Lechner, A. Jiang, S. Behnle, A. G. Heide,
    M. F. Herbst, and D. L. Poole

             Previous Authors, Complete List of Code Contributors,
                       and Citations for Specific Modules
    https://github.com/psi4/psi4/blob/master/codemeta.json
    https://github.com/psi4/psi4/graphs/contributors
    http://psicode.org/psi4manual/master/introduction.html#citing-psifour

    -----------------------------------------------------------------------


    Psi4 started on: Saturday, 27 January 2024 10:40AM

    Process ID: 1556933
    Host:       n2cn0436
    PSIDATADIR: /opt/software/pc2/EB-SW/software/PSI4/1.9-foss-2022a/share/psi4
    Memory:     500.0 MiB
    Threads:    16
    
  ==> Input File <==

--------------------------------------------------------------------------
memory 64 GB # how much memory is available ! Depends on the nodes/cores !

molecule dimer {
# monomer A
-1 1    # Charge and multiplicity
B -1.977592e-04  2.742729e-04 3.400034
F  1.123153e-16  1.430594e-17 4.812819
F  1.147860e+00  6.757812e-01 2.928893
F  1.191806e-02 -1.332011e+00 2.929095
F -1.159666e+00  6.560735e-01 2.929174
--
# monomer B
0 1     # Charge and multiplicity
C   -3.66844126402057      7.80375217008252      0.00190004133558
C   -4.84759871934653      7.13124183134024     -0.00046653359696
C   -4.89495929917518      5.69633040353158     -0.00103944469517
C   -3.65374067877320      4.98073034095895      0.00662099703436
C   -2.40942512149445      7.11398103667468      0.00209438359570
C   -2.42547734410473      5.68112195090346     -0.00491050527438
C   -1.19474401643570      7.78614419430947      0.00356656413763
C   0.03795902893699      7.09942164575698      0.00139585983271
C   0.03033258741920      5.66948955970466     -0.00408752508301
C   -1.20098450790502      4.96927034791531      0.00488220885047
C   1.27795782581485      7.77285944319479      0.00277170839332
C   2.48535808472416      7.08769688523756      0.00049722048857
C   2.48612868491717      5.65477081024076     -0.00644052849921
C   1.25408291964399      4.95607811366431      0.00518741308898
C   3.75171459140595      7.76391215098033      0.00062407186893
C   4.92356605618520      7.07878077698995     -0.00143240883900
C   4.95560727132542      5.64344746336949     -0.00159282164606
C   3.70680153420475      4.94121020833308      0.00349873852374
H   -3.65852113775815      8.89082741913536      0.00358502958574
H   -1.18921332975660      8.87412108735996      0.00753844057883
H   1.28429423888630      8.86083343548850      0.00693053253426
H   3.75354208679975      8.85103527897216      0.00214659618464
H   5.86995870320703      7.61379483465560     -0.00235777588134
H   -5.78823170750226      7.67630221293400     -0.00202638095293
C   -6.09197395869619      4.99326001364347     -0.00291168518608
C   -6.12866148031747      3.58258016879823     -0.00171050815740
C   -3.66457974004527      3.56418217974434     -0.00463560277484
C   -4.89429820469869      2.86108077590057      0.00453338221034
C   -2.43733499489796      2.84761165708481      0.00719617576166
C   -1.20922785759670      3.54788693497833     -0.00648285103018
C   1.24714157216223      3.53468075142962     -0.00729145743546
C   0.01517603956900      2.83311183930540      0.00439272578912
C   2.46764517244071      2.82128997725533      0.00449278391269
C   3.70254947457969      3.52466015442405     -0.00899517692985
C   6.14498038638375      4.92757236613191     -0.00282626685777
C   6.16658835886151      3.51658447594213     -0.00065971342101
C   4.92460995845939      2.80840792535402      0.00587903281610
H   7.08990550964105      5.46688776622306     -0.00658814770723
H   -7.03104175110130      5.54268795285765     -0.00714490013730
C   -7.33969804112295      2.85841153457957     -0.00333767559888
C   -7.36488195805880      1.47032337158330     -0.00157213747140
C   -4.90350460894690      1.44442681216000     -0.00628840166334
C   -6.13225715261081      0.73993935705394      0.00600164231964
C   -3.67687480051673      0.72669714267312      0.00433931473643
C   -2.44565658606518      1.42964113326212     -0.00597039546461
C   -1.22360068130162      0.71532450163492      0.00545886906656
C   0.00763786931376      1.41738314923765      0.00392452278437
C   1.23121980774686      0.70211669058719     -0.01490206287210
C   2.46082110053113      1.40329203612573      0.00460244601878
C   3.68443025419614      0.68719842821222      0.00377365974158
C   4.91870890153864      1.39173456118907     -0.00862816189375
C   7.36980207796101      2.77948220318441     -0.00242013321349
C   7.38016266612146      1.39121750785509     -0.00087345036788
C   6.13979953912259      0.67411862320065      0.00545489144369
H   -8.27919079934664      3.40711804112415     -0.00763522772059
H   8.31511347147953      3.31811809662368     -0.00663070901292
C   -8.59175593758115      0.72483255304480     -0.00123170985383
C   -8.59902460370342     -0.63263980622873      0.00089141472904
C   -6.13981313911873     -0.67413663715361     -0.00609792660607
C   -7.38018411213749     -1.39126618958160      0.00131813493501
C   -4.91868448025621     -1.39175501803000      0.00624257154343
C   -3.68443829568458     -0.68723731573599     -0.00478966852105
C   -2.46081704024768     -1.40334517882457      0.00575341766833
C   -1.23116201232071     -0.70217386488055     -0.00636696112346
C   -0.00756962538737     -1.41741884941102      0.00108956317991
C   1.22364771588843     -0.71527537726392      0.01109518512883
C   2.44567064933149     -1.42964328900682     -0.00065482763106
C   3.67686670284649     -0.72670743155550     -0.00479541202602
C   6.13224884641929     -0.73997883984993     -0.00632338623858
C   4.90351914550401     -1.44445752054090      0.00751768830159
C   8.59901484869081      0.63260386666793     -0.00101133422380
C   8.59174548810050     -0.72485086719319      0.00072504603735
C   7.36486276438985     -1.47033266560598      0.00049486934466
H   -9.52830597181814      1.27684744919284     -0.00270163681798
H   9.54141097460619      1.17457248844457     -0.00206336648518
C   -7.36983790976868     -2.77954514593389      0.00312634335708
C   -4.92459910905015     -2.80843725734101     -0.00460528907921
C   -6.16662249566744     -3.51665219282533      0.00169655107992
C   -3.70251035970491     -3.52468154912026      0.00571878010666
C   -2.46764698511392     -2.82132596280400     -0.00632585824990
C   -0.01513347410770     -2.83314164539971     -0.00604426974092
C   -1.24712184122656     -3.53473217556300      0.00551968366725
C   1.20924506964357     -3.54791467864352      0.00805871345849
C   2.43733602215464     -2.84764173817541     -0.00608104485234
C   4.89430234377080     -2.86112296828604     -0.00526030478103
C   3.66461525504104     -3.56421984553201      0.00761911515957
C   6.12863901474565     -3.58258405771778      0.00096495711699
C   7.33967266469532     -2.85841330737039      0.00248018319869
H   -9.54144911125902     -1.17456346666430      0.00226083090216
H   9.52826186807155     -1.27691907390448      0.00197485379837
H   -8.31516504384864     -3.31814985321231      0.00729857188773
H   8.27915514249207     -3.40714078989363      0.00681973918158
C   -6.14499418870218     -4.92764727278338      0.00302254913999
C   -3.70678334799751     -4.94126171411716     -0.00679841894792
C   -4.95559005800169     -5.64349397349412      0.00116871569699
C   -2.48612132622665     -5.65478557440947      0.00614125209662
C   -1.25405833548005     -4.95612205000132     -0.00503435388927
C   1.20101257386816     -4.96928038819302     -0.00385322963129
C   -0.03033667441341     -5.66952030313900      0.00398997003238
C   3.65375010132847     -4.98074377541453     -0.00309522988330
C   2.42549269587528     -5.68117463552727      0.00628170066869
C   6.09196561781097     -4.99325796338655      0.00325918379042
C   4.89497644461045     -5.69634842095790      0.00202298796027
H   -7.08989238804069     -5.46699984223871      0.00742531082125
H   7.03105520920009     -5.54265853633254      0.00683896355417
C   -4.92354532219813     -7.07882109967734      0.00061394679214
C   -2.48534208823777     -7.08772807792913     -0.00189594564379
C   -3.75168589177895     -7.76394715763627     -0.00170126671874
C   -0.03794895698805     -7.09946487446944     -0.00168022049625
C   -1.27795610040136     -7.77290438466689     -0.00366491325785
C   2.40944432072629     -7.11402201200282     -0.00081701968533
C   1.19474993715296     -7.78618536556242     -0.00296931056689
C   4.84762105249800     -7.13126211057943      0.00168979497423
C   3.66847160587561     -7.80378799294376     -0.00065863938960
H   -5.86994035041618     -7.61383059804164      0.00215798365757
H   5.78824962538815     -7.67633218931421      0.00281691445618
H   -3.75352693944918     -8.85107156923607     -0.00353718114765
H   -1.28430440589466     -8.86087539249706     -0.00809229711623
H   1.18922157469537     -8.87416062058945     -0.00706194725726
H   3.65854661482387     -8.89086063405326     -0.00231318081200

    units angstrom      # Angstroms are the default
    no_reorient         # Geometry fixed, default
    symmetry c1         # C1 symmetry, default
}

set {
    scf_type DF         # Density fitting, faster than exact integrals
    freeze_core True    # Freeze core electrons
    basis jun-cc-pVDZ   # Jun-cc-pVDZ basis set, recommended for sSAPT0 in https://doi.org/10.1063/1.4867135
}

energy('ssapt0')        # Compute sSAPT0 energy, includes also SAPT0
--------------------------------------------------------------------------

  Memory set to  59.605 GiB by Python driver.

Scratch directory: /tmp/
   => Loading Basis Set <=

    Name: JUN-CC-PVDZ
    Role: ORBITAL
    Keyword: BASIS
    atoms 1                                                   entry B          line   130 file /opt/software/pc2/EB-SW/software/PSI4/1.9-foss-2022a/share/psi4/basis/jun-cc-pvdz.gbs 
    atoms 2-5                                                 entry F          line   266 file /opt/software/pc2/EB-SW/software/PSI4/1.9-foss-2022a/share/psi4/basis/jun-cc-pvdz.gbs 
    atoms 6-23, 30-42, 45-59, 62-78, 81-93, 98-108, 111-119   entry C          line   164 file /opt/software/pc2/EB-SW/software/PSI4/1.9-foss-2022a/share/psi4/basis/jun-cc-pvdz.gbs 
    atoms 24-29, 43-44, 60-61, 79-80, 94-97, 109-110, 120-125 entry H          line    36 file /opt/software/pc2/EB-SW/software/PSI4/1.9-foss-2022a/share/psi4/basis/jun-cc-pvdz.gbs 

   => Loading Basis Set <=

    Name: JUN-CC-PVDZ
    Role: ORBITAL
    Keyword: BASIS
    atoms 1                                                   entry B          line   130 file /opt/software/pc2/EB-SW/software/PSI4/1.9-foss-2022a/share/psi4/basis/jun-cc-pvdz.gbs 
    atoms 2-5                                                 entry F          line   266 file /opt/software/pc2/EB-SW/software/PSI4/1.9-foss-2022a/share/psi4/basis/jun-cc-pvdz.gbs 
    atoms 6-23, 30-42, 45-59, 62-78, 81-93, 98-108, 111-119   entry C          line   164 file /opt/software/pc2/EB-SW/software/PSI4/1.9-foss-2022a/share/psi4/basis/jun-cc-pvdz.gbs 
    atoms 24-29, 43-44, 60-61, 79-80, 94-97, 109-110, 120-125 entry H          line    36 file /opt/software/pc2/EB-SW/software/PSI4/1.9-foss-2022a/share/psi4/basis/jun-cc-pvdz.gbs 


  //>>>>>>>>>>>>>>>>>>>>>>>>>>>>>>>>>>>//
  //              Dimer HF             //
  //<<<<<<<<<<<<<<<<<<<<<<<<<<<<<<<<<<<//

   => Libint2 <=

    Primary   basis highest AM E, G, H:  5, 4, 3
    Auxiliary basis highest AM E, G, H:  6, 5, 4
    Onebody   basis highest AM E, G, H:  6, 5, 4
    Solid Harmonics ordering:            gaussian

*** tstart() called on n2cn0436
*** at Sat Jan 27 10:40:42 2024

   => Loading Basis Set <=

    Name: JUN-CC-PVDZ
    Role: ORBITAL
    Keyword: BASIS
    atoms 1                                                   entry B          line   130 file /opt/software/pc2/EB-SW/software/PSI4/1.9-foss-2022a/share/psi4/basis/jun-cc-pvdz.gbs 
    atoms 2-5                                                 entry F          line   266 file /opt/software/pc2/EB-SW/software/PSI4/1.9-foss-2022a/share/psi4/basis/jun-cc-pvdz.gbs 
    atoms 6-23, 30-42, 45-59, 62-78, 81-93, 98-108, 111-119   entry C          line   164 file /opt/software/pc2/EB-SW/software/PSI4/1.9-foss-2022a/share/psi4/basis/jun-cc-pvdz.gbs 
    atoms 24-29, 43-44, 60-61, 79-80, 94-97, 109-110, 120-125 entry H          line    36 file /opt/software/pc2/EB-SW/software/PSI4/1.9-foss-2022a/share/psi4/basis/jun-cc-pvdz.gbs 


         ---------------------------------------------------------
                                   SCF
               by Justin Turney, Rob Parrish, Andy Simmonett
                          and Daniel G. A. Smith
                              RHF Reference
                       16 Threads,  61035 MiB Core
         ---------------------------------------------------------

  ==> Geometry <==

    Molecular point group: c1
    Full point group: C1

    Geometry (in Angstrom), charge = -1, multiplicity = 1:

       Center              X                  Y                   Z               Mass       
    ------------   -----------------  -----------------  -----------------  -----------------
         B           -0.000201921932     0.000288800891     3.165854096523    11.009305360000
         F           -0.000004162732     0.000014527991     4.578639096523    18.998403162730
         F            1.147855837268     0.675795727991     2.694713096523    18.998403162730
         F            0.011913897268    -1.331996472009     2.694915096523    18.998403162730
         F           -1.159670162732     0.656088027991     2.694994096523    18.998403162730
         C           -3.668445426752     7.803766698073    -0.232279862141    12.000000000000
         C           -4.847602882078     7.131256359331    -0.234646437074    12.000000000000
         C           -4.894963461907     5.696344931522    -0.235219348172    12.000000000000
         C           -3.653744841505     4.980744868950    -0.227558906442    12.000000000000
         C           -2.409429284226     7.113995564665    -0.232085519881    12.000000000000
         C           -2.425481506836     5.681136478894    -0.239090408751    12.000000000000
         C           -1.194748179167     7.786158722300    -0.230613339339    12.000000000000
         C            0.037954866205     7.099436173748    -0.232784043644    12.000000000000
         C            0.030328424687     5.669504087695    -0.238267428560    12.000000000000
         C           -1.200988670637     4.969284875906    -0.229297694626    12.000000000000
         C            1.277953663083     7.772873971185    -0.231408195084    12.000000000000
         C            2.485353921992     7.087711413228    -0.233682682988    12.000000000000
         C            2.486124522185     5.654785338231    -0.240620431976    12.000000000000
         C            1.254078756912     4.956092641655    -0.228992490388    12.000000000000
         C            3.751710428674     7.763926678971    -0.233555831608    12.000000000000
         C            4.923561893453     7.078795304981    -0.235612312316    12.000000000000
         C            4.955603108594     5.643461991360    -0.235772725123    12.000000000000
         C            3.706797371473     4.941224736324    -0.230681164953    12.000000000000
         H           -3.658525300490     8.890841947126    -0.230594873891     1.007825032230
         H           -1.189217492488     8.874135615351    -0.226641462898     1.007825032230
         H            1.284290076155     8.860847963479    -0.227249370943     1.007825032230
         H            3.753537924068     8.851049806963    -0.232033307292     1.007825032230
         H            5.869954540475     7.613809362646    -0.236537679358     1.007825032230
         H           -5.788235870234     7.676316740925    -0.236206284430     1.007825032230
         C           -6.091978121428     4.993274541634    -0.237091588663    12.000000000000
         C           -6.128665643049     3.582594696789    -0.235890411634    12.000000000000
         C           -3.664583902777     3.564196707735    -0.238815506252    12.000000000000
         C           -4.894302367430     2.861095303891    -0.229646521266    12.000000000000
         C           -2.437339157630     2.847626185075    -0.226983727715    12.000000000000
         C           -1.209232020328     3.547901462969    -0.240662754507    12.000000000000
         C            1.247137409430     3.534695279420    -0.241471360912    12.000000000000
         C            0.015171876837     2.833126367296    -0.229787177688    12.000000000000
         C            2.467641009709     2.821304505246    -0.229687119564    12.000000000000
         C            3.702545311848     3.524674682415    -0.243175080407    12.000000000000
         C            6.144976223652     4.927586894122    -0.237006170335    12.000000000000
         C            6.166584196130     3.516599003933    -0.234839616898    12.000000000000
         C            4.924605795728     2.808422453345    -0.228300870661    12.000000000000
         H            7.089901346909     5.466902294214    -0.240768051184     1.007825032230
         H           -7.031045913833     5.542702480848    -0.241324803614     1.007825032230
         C           -7.339702203855     2.858426062570    -0.237517579076    12.000000000000
         C           -7.364886120791     1.470337899574    -0.235752040948    12.000000000000
         C           -4.903508771679     1.444441340151    -0.240468305140    12.000000000000
         C           -6.132261315343     0.739953885044    -0.228178261157    12.000000000000
         C           -3.676878963248     0.726711670664    -0.229840588740    12.000000000000
         C           -2.445660748797     1.429655661253    -0.240150298941    12.000000000000
         C           -1.223604844033     0.715339029625    -0.228721034410    12.000000000000
         C            0.007633706582     1.417397677228    -0.230255380692    12.000000000000
         C            1.231215645015     0.702131218578    -0.249081966349    12.000000000000
         C            2.460816937799     1.403306564116    -0.229577457458    12.000000000000
         C            3.684426091464     0.687212956203    -0.230406243735    12.000000000000
         C            4.918704738807     1.391749089180    -0.242808065371    12.000000000000
         C            7.369797915229     2.779496731175    -0.236600036690    12.000000000000
         C            7.380158503390     1.391232035846    -0.235053353845    12.000000000000
         C            6.139795376391     0.674133151191    -0.228725012033    12.000000000000
         H           -8.279194962078     3.407132569115    -0.241815131197     1.007825032230
         H            8.315109308748     3.318132624614    -0.240810612490     1.007825032230
         C           -8.591760100313     0.724847081035    -0.235411613331    12.000000000000
         C           -8.599028766435    -0.632625278238    -0.233288488748    12.000000000000
         C           -6.139817301850    -0.674122109163    -0.240277830083    12.000000000000
         C           -7.380188274869    -1.391251661591    -0.232861768542    12.000000000000
         C           -4.918688642988    -1.391740490039    -0.227937331933    12.000000000000
         C           -3.684442458416    -0.687222787745    -0.238969571998    12.000000000000
         C           -2.460821202979    -1.403330650834    -0.228426485808    12.000000000000
         C           -1.231166175052    -0.702159336890    -0.240546864600    12.000000000000
         C           -0.007573788119    -1.417404321420    -0.233090340297    12.000000000000
         C            1.223643553157    -0.715260849273    -0.223084718348    12.000000000000
         C            2.445666486600    -1.429628761016    -0.234834731108    12.000000000000
         C            3.676862540115    -0.726692903565    -0.238975315503    12.000000000000
         C            6.132244683688    -0.739964311859    -0.240503289715    12.000000000000
         C            4.903514982772    -1.444442992550    -0.226662215175    12.000000000000
         C            8.599010685959     0.632618394658    -0.235191237701    12.000000000000
         C            8.591741325369    -0.724836339203    -0.233454857439    12.000000000000
         C            7.364858601658    -1.470318137615    -0.233685034132    12.000000000000
         H           -9.528310134550     1.276861977183    -0.236881540295     1.007825032230
         H            9.541406811874     1.174587016435    -0.236243269962     1.007825032230
         C           -7.369842072500    -2.779530617943    -0.231053560120    12.000000000000
         C           -4.924603271782    -2.808422729350    -0.238785192556    12.000000000000
         C           -6.166626658399    -3.516637664835    -0.232483352397    12.000000000000
         C           -3.702514522437    -3.524667021130    -0.228461123370    12.000000000000
         C           -2.467651147846    -2.821311434813    -0.240505761727    12.000000000000
         C           -0.015137636839    -2.833127117409    -0.240224173218    12.000000000000
         C           -1.247126003958    -3.534717647572    -0.228660219810    12.000000000000
         C            1.209240906912    -3.547900150653    -0.226121190018    12.000000000000
         C            2.437331859423    -2.847627210185    -0.240260948329    12.000000000000
         C            4.894298181039    -2.861108440295    -0.239440208258    12.000000000000
         C            3.664611092309    -3.564205317541    -0.226560788317    12.000000000000
         C            6.128634852014    -3.582569529727    -0.233214946360    12.000000000000
         C            7.339668501964    -2.858398779380    -0.231699720278    12.000000000000
         H           -9.541453273991    -1.174548938674    -0.231919072575     1.007825032230
         H            9.528257705340    -1.276904545914    -0.232205049678     1.007825032230
         H           -8.315169206580    -3.318135325222    -0.226881331589     1.007825032230
         H            8.279150979760    -3.407126261903    -0.227360164295     1.007825032230
         C           -6.144998351434    -4.927632744793    -0.231157354337    12.000000000000
         C           -3.706787510729    -4.941247186127    -0.240978322425    12.000000000000
         C           -4.955594220733    -5.643479445504    -0.233011187780    12.000000000000
         C           -2.486125488958    -5.654771046419    -0.228038651380    12.000000000000
         C           -1.254062498212    -4.956107522011    -0.239214257366    12.000000000000
         C            1.201008411136    -4.969265860202    -0.238033133108    12.000000000000
         C           -0.030340837145    -5.669505775148    -0.230189933444    12.000000000000
         C            3.653745938597    -4.980729247424    -0.237275133360    12.000000000000
         C            2.425488533144    -5.681160107537    -0.227898202808    12.000000000000
         C            6.091961455079    -4.993243435396    -0.230920719686    12.000000000000
         C            4.894972281879    -5.696333892967    -0.232156915517    12.000000000000
         H           -7.089896550772    -5.466985314248    -0.226754592656     1.007825032230
         H            7.031051046468    -5.542644008342    -0.227340939923     1.007825032230
         C           -4.923549484930    -7.078806571687    -0.233565956685    12.000000000000
         C           -2.485346250970    -7.087713549939    -0.236075849121    12.000000000000
         C           -3.751690054511    -7.763932629646    -0.235881170196    12.000000000000
         C           -0.037953119720    -7.099450346479    -0.235860123973    12.000000000000
         C           -1.277960263133    -7.772889856676    -0.237844816735    12.000000000000
         C            2.409440157995    -7.114007484012    -0.234996923162    12.000000000000
         C            1.194745774421    -7.786170837572    -0.237149214044    12.000000000000
         C            4.847616889766    -7.131247582589    -0.232490108503    12.000000000000
         C            3.668467443144    -7.803773464953    -0.234838542866    12.000000000000
         H           -5.869944513148    -7.613816070051    -0.232021919819     1.007825032230
         H            5.788245462656    -7.676317661324    -0.231362989021     1.007825032230
         H           -3.753531102181    -8.851057041246    -0.237717084624     1.007825032230
         H           -1.284308568626    -8.860860864507    -0.242272200593     1.007825032230
         H            1.189217411964    -8.874146092599    -0.241241850734     1.007825032230
         H            3.658542452092    -8.890846106063    -0.236493084289     1.007825032230

  Running in c1 symmetry.

  Rotational constants: A =      0.00068  B =      0.00068  C =      0.00035 [cm^-1]
  Rotational constants: A =     20.26876  B =     20.26528  C =     10.55117 [MHz]
  Nuclear repulsion = 17773.024623975037684

  Charge       = -1
  Multiplicity = 1
  Electrons    = 642
  Nalpha       = 321
  Nbeta        = 321

  ==> Algorithm <==

  SCF Algorithm Type is DF.
  DIIS enabled.
  MOM disabled.
  Fractional occupation disabled.
  Guess Type is SAD.
  Energy threshold   = 1.00e-08
  Density threshold  = 1.00e-08
  Integral threshold = 1.00e-12

  ==> Primary Basis <==

  Basis Set: JUN-CC-PVDZ
    Blend: JUN-CC-PVDZ
    Number of shells: 880
    Number of basis functions: 1938
    Number of Cartesian functions: 2039
    Spherical Harmonics?: true
    Max angular momentum: 2

   => Loading Basis Set <=

    Name: (JUN-CC-PVDZ AUX)
    Role: JKFIT
    Keyword: DF_BASIS_SCF
    atoms 1                                                   entry B          line    90 file /opt/software/pc2/EB-SW/software/PSI4/1.9-foss-2022a/share/psi4/basis/jun-cc-pvdz-jkfit.gbs 
    atoms 2-5                                                 entry F          line   314 file /opt/software/pc2/EB-SW/software/PSI4/1.9-foss-2022a/share/psi4/basis/jun-cc-pvdz-jkfit.gbs 
    atoms 6-23, 30-42, 45-59, 62-78, 81-93, 98-108, 111-119   entry C          line   146 file /opt/software/pc2/EB-SW/software/PSI4/1.9-foss-2022a/share/psi4/basis/jun-cc-pvdz-jkfit.gbs 
    atoms 24-29, 43-44, 60-61, 79-80, 94-97, 109-110, 120-125 entry H          line    70 file /opt/software/pc2/EB-SW/software/PSI4/1.9-foss-2022a/share/psi4/basis/jun-cc-pvdz-jkfit.gbs 

  ==> Integral Setup <==

  ==> DiskDFJK: Density-Fitted J/K Matrices <==

    J tasked:                  Yes
    K tasked:                  Yes
    wK tasked:                  No
    OpenMP threads:             16
    Integrals threads:          16
    Memory [MiB]:            45776
    Algorithm:                Disk
    Integral Cache:           SAVE
    Schwarz Cutoff:          1E-12
    Fitting Condition:       1E-10

   => Auxiliary Basis Set <=

  Basis Set: (JUN-CC-PVDZ AUX)
    Blend: JUN-CC-PVDZ-JKFIT
    Number of shells: 2943
    Number of basis functions: 8531
    Number of Cartesian functions: 9791
    Spherical Harmonics?: true
    Max angular momentum: 3

  Minimum eigenvalue in the overlap matrix is 8.1994785323E-11.
  Reciprocal condition number of the overlap matrix is 3.4007422666E-12.
    Using canonical orthogonalization.
  Overall, 40 of 1938 possible MOs eliminated.


  ==> Pre-Iterations <==

  SCF Guess: Superposition of Atomic Densities via on-the-fly atomic UHF (no occupation information).

   -------------------------
    Irrep   Nso     Nmo    
   -------------------------
     A       1938    1898 
   -------------------------
    Total    1938    1898
   -------------------------

  ==> Iterations <==

                           Total Energy        Delta E     RMS |[F,P]|

   @DF-RHF iter SAD: -4085.20952079379094   -4.08521e+03   0.00000e+00 
   @DF-RHF iter   1: -4071.50064719652346    1.37089e+01   7.92931e-04 ADIIS/DIIS
   @DF-RHF iter   2: -4072.91046688266442   -1.40982e+00   3.13450e-04 ADIIS/DIIS
   @DF-RHF iter   3: -4073.08252791484165   -1.72061e-01   1.08282e-04 ADIIS/DIIS
   @DF-RHF iter   4: -4073.10661716441064   -2.40892e-02   4.46571e-05 DIIS
   @DF-RHF iter   5: -4073.11140607770358   -4.78891e-03   1.31376e-05 DIIS
   @DF-RHF iter   6: -4073.11198758726869   -5.81510e-04   4.85633e-06 DIIS
   @DF-RHF iter   7: -4073.11217702883096   -1.89442e-04   2.64237e-06 DIIS
   @DF-RHF iter   8: -4073.11224384350317   -6.68147e-05   1.26238e-06 DIIS
   @DF-RHF iter   9: -4073.11226620978505   -2.23663e-05   4.62321e-07 DIIS
   @DF-RHF iter  10: -4073.11226775413479   -1.54435e-06   1.84693e-07 DIIS
   @DF-RHF iter  11: -4073.11226800547774   -2.51343e-07   7.15393e-08 DIIS
   @DF-RHF iter  12: -4073.11226805546266   -4.99849e-08   4.21357e-08 DIIS
   @DF-RHF iter  13: -4073.11226807481489   -1.93522e-08   2.19557e-08 DIIS
   @DF-RHF iter  14: -4073.11226808093215   -6.11726e-09   1.55334e-08 DIIS
   @DF-RHF iter  15: -4073.11226808574338   -4.81123e-09   1.06919e-08 DIIS
   @DF-RHF iter  16: -4073.11226808938409   -3.64071e-09   5.92517e-09 DIIS
  Energy and wave function converged.


  ==> Post-Iterations <==

    Orbital Energies [Eh]
    ---------------------

    Doubly Occupied:                                                      

       1A    -26.097282     2A    -26.097129     3A    -26.097096  
       4A    -26.086876     5A    -11.196156     6A    -11.196148  
       7A    -11.196143     8A    -11.196131     9A    -11.196127  
      10A    -11.196120    11A    -11.196068    12A    -11.196063  
      13A    -11.196058    14A    -11.196058    15A    -11.196049  
      16A    -11.196046    17A    -11.195223    18A    -11.195197  
      19A    -11.195189    20A    -11.195116    21A    -11.195107  
      22A    -11.195094    23A    -11.193106    24A    -11.193102  
      25A    -11.193100    26A    -11.193096    27A    -11.193091  
      28A    -11.193088    29A    -11.191720    30A    -11.191707  
      31A    -11.191692    32A    -11.191653    33A    -11.191650  
      34A    -11.191647    35A    -11.191645    36A    -11.191639  
      37A    -11.191636    38A    -11.191615    39A    -11.191605  
      40A    -11.191544    41A    -11.191494    42A    -11.191398  
      43A    -11.191393    44A    -11.191271    45A    -11.191263  
      46A    -11.191197    47A    -11.190783    48A    -11.190719  
      49A    -11.190714    50A    -11.190539    51A    -11.190514  
      52A    -11.190459    53A    -11.190032    54A    -11.189961  
      55A    -11.189959    56A    -11.189840    57A    -11.189835  
      58A    -11.189763    59A    -11.189590    60A    -11.189548  
      61A    -11.189537    62A    -11.189491    63A    -11.189485  
      64A    -11.189460    65A    -11.188086    66A    -11.188085  
      67A    -11.188071    68A    -11.187989    69A    -11.187987  
      70A    -11.187975    71A    -11.187786    72A    -11.187783  
      73A    -11.187740    74A    -11.187688    75A    -11.187685  
      76A    -11.187648    77A    -11.186714    78A    -11.186688  
      79A    -11.186677    80A    -11.186628    81A    -11.186611  
      82A    -11.186582    83A    -11.185693    84A    -11.185646  
      85A    -11.185638    86A    -11.185535    87A    -11.185530  
      88A    -11.185489    89A    -11.183158    90A    -11.183105  
      91A    -11.183059    92A    -11.182414    93A    -11.182232  
      94A    -11.182198    95A    -11.180527    96A    -11.180170  
      97A    -11.180024    98A    -11.178921    99A    -11.178766  
     100A    -11.178363   101A     -7.566362   102A     -1.439701  
     103A     -1.382527   104A     -1.382350   105A     -1.373524  
     106A     -1.178110   107A     -1.167188   108A     -1.167182  
     109A     -1.150846   110A     -1.150838   111A     -1.140684  
     112A     -1.133190   113A     -1.126815   114A     -1.115029  
     115A     -1.115024   116A     -1.106315   117A     -1.106310  
     118A     -1.083934   119A     -1.083925   120A     -1.079886  
     121A     -1.077701   122A     -1.077698   123A     -1.058873  
     124A     -1.045945   125A     -1.045193   126A     -1.043519  
     127A     -1.040352   128A     -1.040330   129A     -1.018979  
     130A     -1.018962   131A     -1.010084   132A     -1.010081  
     133A     -0.997072   134A     -0.997042   135A     -0.993036  
     136A     -0.978235   137A     -0.978228   138A     -0.971823  
     139A     -0.971820   140A     -0.971468   141A     -0.954159  
     142A     -0.947215   143A     -0.947160   144A     -0.939307  
     145A     -0.937172   146A     -0.934325   147A     -0.929936  
     148A     -0.929891   149A     -0.924868   150A     -0.900895  
     151A     -0.900850   152A     -0.887981   153A     -0.887926  
     154A     -0.839861   155A     -0.839820   156A     -0.833635  
     157A     -0.833589   158A     -0.830730   159A     -0.819757  
     160A     -0.819698   161A     -0.819228   162A     -0.818187  
     163A     -0.818129   164A     -0.805213   165A     -0.804717  
     166A     -0.784708   167A     -0.777297   168A     -0.777279  
     169A     -0.773852   170A     -0.773180   171A     -0.766232  
     172A     -0.766224   173A     -0.761927   174A     -0.761925  
     175A     -0.718860   176A     -0.718843   177A     -0.713066  
     178A     -0.713047   179A     -0.711495   180A     -0.711474  
     181A     -0.711124   182A     -0.698790   183A     -0.689385  
     184A     -0.679806   185A     -0.667507   186A     -0.658672  
     187A     -0.658658   188A     -0.656175   189A     -0.656152  
     190A     -0.655965   191A     -0.646441   192A     -0.643293  
     193A     -0.643278   194A     -0.632047   195A     -0.632037  
     196A     -0.630911   197A     -0.619054   198A     -0.619051  
     199A     -0.614841   200A     -0.614402   201A     -0.614391  
     202A     -0.610185   203A     -0.586086   204A     -0.583097  
     205A     -0.583068   206A     -0.582738   207A     -0.579315  
     208A     -0.579300   209A     -0.572767   210A     -0.572322  
     211A     -0.570905   212A     -0.570878   213A     -0.566626  
     214A     -0.566591   215A     -0.560681   216A     -0.558154  
     217A     -0.558058   218A     -0.557505   219A     -0.548594  
     220A     -0.548571   221A     -0.541815   222A     -0.541812  
     223A     -0.539863   224A     -0.529985   225A     -0.529252  
     226A     -0.529021   227A     -0.529007   228A     -0.528363  
     229A     -0.528352   230A     -0.527217   231A     -0.527202  
     232A     -0.527157   233A     -0.522020   234A     -0.522017  
     235A     -0.520157   236A     -0.515459   237A     -0.512964  
     238A     -0.512953   239A     -0.506360   240A     -0.506337  
     241A     -0.506189   242A     -0.499880   243A     -0.499871  
     244A     -0.496065   245A     -0.496028   246A     -0.495862  
     247A     -0.494357   248A     -0.492821   249A     -0.489071  
     250A     -0.489051   251A     -0.485130   252A     -0.483292  
     253A     -0.483287   254A     -0.478930   255A     -0.478827  
     256A     -0.475982   257A     -0.466321   258A     -0.466315  
     259A     -0.460682   260A     -0.460647   261A     -0.459421  
     262A     -0.459372   263A     -0.456329   264A     -0.448629  
     265A     -0.448623   266A     -0.447730   267A     -0.447703  
     268A     -0.443034   269A     -0.443016   270A     -0.438136  
     271A     -0.436497   272A     -0.436403   273A     -0.429728  
     274A     -0.427273   275A     -0.427244   276A     -0.422129  
     277A     -0.422097   278A     -0.415753   279A     -0.414779  
     280A     -0.412601   281A     -0.412550   282A     -0.410466  
     283A     -0.410451   284A     -0.410264   285A     -0.406229  
     286A     -0.398912   287A     -0.397210   288A     -0.397196  
     289A     -0.389296   290A     -0.373438   291A     -0.373371  
     292A     -0.369816   293A     -0.369280   294A     -0.367331  
     295A     -0.366235   296A     -0.366139   297A     -0.337860  
     298A     -0.337838   299A     -0.319941   300A     -0.319931  
     301A     -0.315066   302A     -0.315014   303A     -0.310304  
     304A     -0.285699   305A     -0.285678   306A     -0.281460  
     307A     -0.267175   308A     -0.267171   309A     -0.262683  
     310A     -0.257330   311A     -0.257194   312A     -0.236132  
     313A     -0.232746   314A     -0.229490   315A     -0.229434  
     316A     -0.217970   317A     -0.192328   318A     -0.181007  
     319A     -0.180903   320A     -0.135354   321A     -0.135271  

    Virtual:                                                              

     322A      0.056529   323A      0.056609   324A      0.094634  
     325A      0.094658   326A      0.095231   327A      0.097136  
     328A      0.097426   329A      0.102473   330A      0.102809  
     331A      0.104858   332A      0.106150   333A      0.106233  
     334A      0.110364   335A      0.110373   336A      0.121641  
     337A      0.121651   338A      0.130655   339A      0.131542  
     340A      0.134674   341A      0.137431   342A      0.137699  
     343A      0.138639   344A      0.139452   345A      0.140456  
     346A      0.140736   347A      0.141047   348A      0.141343  
     349A      0.142651   350A      0.143008   351A      0.143038  
     352A      0.148931   353A      0.149381   354A      0.149523  
     355A      0.149679   356A      0.149720   357A      0.150200  
     358A      0.157339   359A      0.160295   360A      0.161958  
     361A      0.162191   362A      0.162206   363A      0.163639  
     364A      0.164518   365A      0.165023   366A      0.171505  
     367A      0.171648   368A      0.172090   369A      0.172279  
     370A      0.172911   371A      0.174043   372A      0.174233  
     373A      0.175208   374A      0.175384   375A      0.176691  
     376A      0.179178   377A      0.179253   378A      0.180003  
     379A      0.180024   380A      0.187786   381A      0.187806  
     382A      0.189925   383A      0.195385   384A      0.195520  
     385A      0.196023   386A      0.198417   387A      0.198432  
     388A      0.202465   389A      0.203420   390A      0.203988  
     391A      0.204359   392A      0.205086   393A      0.213055  
     394A      0.214656   395A      0.215639   396A      0.215919  
     397A      0.216036   398A      0.217776   399A      0.219512  
     400A      0.221198   401A      0.221369   402A      0.222596  
     403A      0.223310   404A      0.223333   405A      0.224047  
     406A      0.225664   407A      0.225758   408A      0.226768  
     409A      0.226779   410A      0.229696   411A      0.230020  
     412A      0.233747   413A      0.235125   414A      0.239081  
     415A      0.239095   416A      0.242491   417A      0.242580  
     418A      0.243026   419A      0.243161   420A      0.243295  
     421A      0.243534   422A      0.250202   423A      0.251393  
     424A      0.251760   425A      0.252706   426A      0.253749  
     427A      0.257189   428A      0.257511   429A      0.257783  
     430A      0.259886   431A      0.260101   432A      0.260613  
     433A      0.261870   434A      0.262505   435A      0.263448  
     436A      0.269483   437A      0.269594   438A      0.272175  
     439A      0.272364   440A      0.272397   441A      0.273142  
     442A      0.273289   443A      0.273644   444A      0.273831  
     445A      0.273965   446A      0.275097   447A      0.275525  
     448A      0.275792   449A      0.276483   450A      0.277898  
     451A      0.277998   452A      0.281302   453A      0.282083  
     454A      0.284154   455A      0.284838   456A      0.289362  
     457A      0.291288   458A      0.291565   459A      0.291592  
     460A      0.291725   461A      0.291778   462A      0.292758  
     463A      0.293082   464A      0.294705   465A      0.295861  
     466A      0.296053   467A      0.297853   468A      0.297891  
     469A      0.304105   470A      0.305064   471A      0.305259  
     472A      0.305786   473A      0.308153   474A      0.309956  
     475A      0.313534   476A      0.315655   477A      0.315692  
     478A      0.315871   479A      0.318496   480A      0.318707  
     481A      0.320457   482A      0.320772   483A      0.321131  
     484A      0.321931   485A      0.324173   486A      0.325551  
     487A      0.327509   488A      0.327964   489A      0.328521  
     490A      0.329836   491A      0.330056   492A      0.331762  
     493A      0.338091   494A      0.338147   495A      0.338711  
     496A      0.340864   497A      0.341934   498A      0.342129  
     499A      0.342432   500A      0.343132   501A      0.343689  
     502A      0.344040   503A      0.344297   504A      0.347169  
     505A      0.347847   506A      0.349173   507A      0.349904  
     508A      0.350003   509A      0.351797   510A      0.352758  
     511A      0.358720   512A      0.358742   513A      0.360055  
     514A      0.362594   515A      0.363019   516A      0.365752  
     517A      0.365960   518A      0.366741   519A      0.367350  
     520A      0.367779   521A      0.368944   522A      0.369147  
     523A      0.369885   524A      0.371812   525A      0.372108  
     526A      0.373294   527A      0.373350   528A      0.374557  
     529A      0.374677   530A      0.374881   531A      0.375772  
     532A      0.378640   533A      0.380651   534A      0.380875  
     535A      0.381043   536A      0.381612   537A      0.384791  
     538A      0.386100   539A      0.386254   540A      0.387913  
     541A      0.389204   542A      0.389486   543A      0.390007  
     544A      0.391002   545A      0.391635   546A      0.391803  
     547A      0.392436   548A      0.393518   549A      0.396062  
     550A      0.397003   551A      0.397128   552A      0.398384  
     553A      0.399275   554A      0.401621   555A      0.402653  
     556A      0.402753   557A      0.403754   558A      0.406340  
     559A      0.406398   560A      0.407199   561A      0.409906  
     562A      0.411753   563A      0.412383   564A      0.415383  
     565A      0.419220   566A      0.421686   567A      0.422788  
     568A      0.422994   569A      0.423422   570A      0.423944  
     571A      0.424640   572A      0.424923   573A      0.425855  
     574A      0.426379   575A      0.429779   576A      0.430532  
     577A      0.430621   578A      0.433458   579A      0.436188  
     580A      0.436248   581A      0.438384   582A      0.438465  
     583A      0.441254   584A      0.441622   585A      0.442819  
     586A      0.444616   587A      0.444669   588A      0.446078  
     589A      0.447311   590A      0.447826   591A      0.450249  
     592A      0.450448   593A      0.454047   594A      0.455084  
     595A      0.456218   596A      0.456578   597A      0.458780  
     598A      0.458914   599A      0.459580   600A      0.459978  
     601A      0.460716   602A      0.461158   603A      0.461805  
     604A      0.463447   605A      0.463815   606A      0.465065  
     607A      0.465661   608A      0.466208   609A      0.466232  
     610A      0.466785   611A      0.470535   612A      0.470808  
     613A      0.472008   614A      0.472051   615A      0.472085  
     616A      0.472843   617A      0.474225   618A      0.474525  
     619A      0.474738   620A      0.475456   621A      0.475818  
     622A      0.476867   623A      0.477136   624A      0.477250  
     625A      0.477507   626A      0.479334   627A      0.481735  
     628A      0.481815   629A      0.483589   630A      0.483707  
     631A      0.485742   632A      0.485925   633A      0.486152  
     634A      0.488919   635A      0.490520   636A      0.490693  
     637A      0.491061   638A      0.491203   639A      0.492294  
     640A      0.497043   641A      0.497068   642A      0.499589  
     643A      0.499664   644A      0.500277   645A      0.501405  
     646A      0.502411   647A      0.503016   648A      0.503151  
     649A      0.504173   650A      0.504386   651A      0.504604  
     652A      0.504786   653A      0.505135   654A      0.505338  
     655A      0.508013   656A      0.510066   657A      0.511058  
     658A      0.515169   659A      0.515968   660A      0.517011  
     661A      0.517075   662A      0.517547   663A      0.517987  
     664A      0.518266   665A      0.518474   666A      0.518995  
     667A      0.521280   668A      0.521343   669A      0.522717  
     670A      0.522900   671A      0.526660   672A      0.527281  
     673A      0.529192   674A      0.530917   675A      0.533534  
     676A      0.534799   677A      0.535491   678A      0.536312  
     679A      0.537775   680A      0.538461   681A      0.540268  
     682A      0.541719   683A      0.541916   684A      0.542989  
     685A      0.543647   686A      0.543801   687A      0.543923  
     688A      0.545317   689A      0.545409   690A      0.548073  
     691A      0.549621   692A      0.550078   693A      0.550225  
     694A      0.550286   695A      0.551119   696A      0.551858  
     697A      0.553479   698A      0.554985   699A      0.556299  
     700A      0.556501   701A      0.557471   702A      0.560217  
     703A      0.560550   704A      0.561125   705A      0.561827  
     706A      0.562661   707A      0.565627   708A      0.566709  
     709A      0.566804   710A      0.567173   711A      0.567499  
     712A      0.568901   713A      0.569247   714A      0.569949  
     715A      0.570981   716A      0.575445   717A      0.576238  
     718A      0.577141   719A      0.577591   720A      0.578824  
     721A      0.579621   722A      0.582279   723A      0.583684  
     724A      0.584444   725A      0.585011   726A      0.585362  
     727A      0.588020   728A      0.589620   729A      0.590388  
     730A      0.590535   731A      0.591316   732A      0.591744  
     733A      0.595379   734A      0.597930   735A      0.599456  
     736A      0.599927   737A      0.600610   738A      0.602055  
     739A      0.602445   740A      0.607851   741A      0.608308  
     742A      0.609630   743A      0.610216   744A      0.611914  
     745A      0.617337   746A      0.618476   747A      0.622940  
     748A      0.625585   749A      0.626199   750A      0.627926  
     751A      0.629413   752A      0.629769   753A      0.630021  
     754A      0.630975   755A      0.631420   756A      0.633292  
     757A      0.634490   758A      0.634833   759A      0.638787  
     760A      0.638860   761A      0.642371   762A      0.642735  
     763A      0.647840   764A      0.648312   765A      0.649172  
     766A      0.649761   767A      0.652438   768A      0.653275  
     769A      0.653468   770A      0.654700   771A      0.657661  
     772A      0.658758   773A      0.661900   774A      0.665033  
     775A      0.668155   776A      0.669016   777A      0.670662  
     778A      0.671893   779A      0.672524   780A      0.672691  
     781A      0.675052   782A      0.675281   783A      0.676167  
     784A      0.676596   785A      0.679685   786A      0.682933  
     787A      0.684919   788A      0.685087   789A      0.686424  
     790A      0.686688   791A      0.687389   792A      0.697609  
     793A      0.698679   794A      0.701371   795A      0.705253  
     796A      0.709497   797A      0.711593   798A      0.714006  
     799A      0.714998   800A      0.715946   801A      0.718475  
     802A      0.721693   803A      0.721837   804A      0.727714  
     805A      0.729971   806A      0.730682   807A      0.731276  
     808A      0.731562   809A      0.735886   810A      0.739247  
     811A      0.739781   812A      0.742795   813A      0.745964  
     814A      0.747379   815A      0.748583   816A      0.750079  
     817A      0.751722   818A      0.754200   819A      0.755818  
     820A      0.757394   821A      0.760760   822A      0.760945  
     823A      0.762338   824A      0.765097   825A      0.765429  
     826A      0.768583   827A      0.769071   828A      0.775895  
     829A      0.778449   830A      0.783241   831A      0.783978  
     832A      0.784926   833A      0.785907   834A      0.799051  
     835A      0.800003   836A      0.800747   837A      0.800987  
     838A      0.806672   839A      0.807465   840A      0.809058  
     841A      0.813595   842A      0.819326   843A      0.822612  
     844A      0.823509   845A      0.823586   846A      0.824824  
     847A      0.831032   848A      0.831458   849A      0.843718  
     850A      0.847839   851A      0.849037   852A      0.854516  
     853A      0.855962   854A      0.862102   855A      0.862670  
     856A      0.863819   857A      0.865107   858A      0.866541  
     859A      0.867330   860A      0.868589   861A      0.870782  
     862A      0.871220   863A      0.872399   864A      0.878412  
     865A      0.879098   866A      0.880453   867A      0.881425  
     868A      0.882392   869A      0.884073   870A      0.885511  
     871A      0.887172   872A      0.892378   873A      0.893376  
     874A      0.895355   875A      0.896383   876A      0.897715  
     877A      0.902809   878A      0.904536   879A      0.904775  
     880A      0.908874   881A      0.912201   882A      0.912339  
     883A      0.918217   884A      0.920343   885A      0.921287  
     886A      0.922413   887A      0.925133   888A      0.925764  
     889A      0.928934   890A      0.929356   891A      0.930286  
     892A      0.932127   893A      0.935483   894A      0.936446  
     895A      0.938422   896A      0.939555   897A      0.940225  
     898A      0.944101   899A      0.944425   900A      0.944896  
     901A      0.945209   902A      0.949315   903A      0.949797  
     904A      0.951782   905A      0.952319   906A      0.953836  
     907A      0.955478   908A      0.958813   909A      0.961607  
     910A      0.961710   911A      0.963189   912A      0.965508  
     913A      0.970055   914A      0.970536   915A      0.971707  
     916A      0.972927   917A      0.973755   918A      0.978655  
     919A      0.978872   920A      0.980741   921A      0.982250  
     922A      0.982822   923A      0.985209   924A      0.985323  
     925A      0.986700   926A      0.987973   927A      0.988749  
     928A      0.993003   929A      0.993886   930A      0.997143  
     931A      0.998703   932A      0.998971   933A      1.000829  
     934A      1.002146   935A      1.004515   936A      1.005588  
     937A      1.007375   938A      1.008964   939A      1.009663  
     940A      1.009991   941A      1.015367   942A      1.015570  
     943A      1.015889   944A      1.016140   945A      1.016513  
     946A      1.018086   947A      1.018981   948A      1.021261  
     949A      1.021363   950A      1.021827   951A      1.023439  
     952A      1.025169   953A      1.025738   954A      1.029804  
     955A      1.030407   956A      1.032336   957A      1.039319  
     958A      1.040966   959A      1.047045   960A      1.047216  
     961A      1.051896   962A      1.052705   963A      1.055965  
     964A      1.056407   965A      1.059651   966A      1.060068  
     967A      1.063935   968A      1.064747   969A      1.065241  
     970A      1.068618   971A      1.070251   972A      1.071014  
     973A      1.071034   974A      1.072158   975A      1.072248  
     976A      1.076748   977A      1.081664   978A      1.081975  
     979A      1.084841   980A      1.086015   981A      1.087154  
     982A      1.087903   983A      1.091086   984A      1.091538  
     985A      1.093514   986A      1.096724   987A      1.096865  
     988A      1.099474   989A      1.102456   990A      1.104206  
     991A      1.107995   992A      1.112955   993A      1.112997  
     994A      1.114191   995A      1.115044   996A      1.115195  
     997A      1.116024   998A      1.117776   999A      1.119690  
    1000A      1.121940  1001A      1.122073  1002A      1.123286  
    1003A      1.123944  1004A      1.127478  1005A      1.127703  
    1006A      1.129911  1007A      1.131026  1008A      1.132285  
    1009A      1.132540  1010A      1.132866  1011A      1.136924  
    1012A      1.137122  1013A      1.138075  1014A      1.138132  
    1015A      1.139098  1016A      1.139868  1017A      1.140136  
    1018A      1.142207  1019A      1.142529  1020A      1.143616  
    1021A      1.144180  1022A      1.145096  1023A      1.145526  
    1024A      1.145823  1025A      1.146646  1026A      1.147287  
    1027A      1.148728  1028A      1.148886  1029A      1.149518  
    1030A      1.151451  1031A      1.151798  1032A      1.152112  
    1033A      1.152718  1034A      1.153116  1035A      1.153869  
    1036A      1.154174  1037A      1.154310  1038A      1.155404  
    1039A      1.158092  1040A      1.160852  1041A      1.161726  
    1042A      1.161987  1043A      1.168269  1044A      1.168473  
    1045A      1.169898  1046A      1.172396  1047A      1.173840  
    1048A      1.174434  1049A      1.175937  1050A      1.176203  
    1051A      1.177673  1052A      1.178191  1053A      1.179938  
    1054A      1.181239  1055A      1.181928  1056A      1.182928  
    1057A      1.187398  1058A      1.187558  1059A      1.192508  
    1060A      1.193810  1061A      1.195548  1062A      1.196921  
    1063A      1.197506  1064A      1.199981  1065A      1.200742  
    1066A      1.202122  1067A      1.205783  1068A      1.207125  
    1069A      1.207475  1070A      1.208152  1071A      1.208172  
    1072A      1.215014  1073A      1.219760  1074A      1.220841  
    1075A      1.221319  1076A      1.222197  1077A      1.223595  
    1078A      1.224702  1079A      1.226125  1080A      1.226955  
    1081A      1.228058  1082A      1.228851  1083A      1.235621  
    1084A      1.237588  1085A      1.238789  1086A      1.239494  
    1087A      1.241751  1088A      1.242425  1089A      1.242922  
    1090A      1.244131  1091A      1.247044  1092A      1.252475  
    1093A      1.253050  1094A      1.256566  1095A      1.256772  
    1096A      1.257580  1097A      1.258371  1098A      1.259672  
    1099A      1.264011  1100A      1.265151  1101A      1.267583  
    1102A      1.270246  1103A      1.270954  1104A      1.274904  
    1105A      1.275035  1106A      1.277251  1107A      1.278690  
    1108A      1.279054  1109A      1.279948  1110A      1.280753  
    1111A      1.281224  1112A      1.282106  1113A      1.282487  
    1114A      1.286202  1115A      1.289225  1116A      1.289964  
    1117A      1.291831  1118A      1.294190  1119A      1.298746  
    1120A      1.300517  1121A      1.301299  1122A      1.305615  
    1123A      1.307838  1124A      1.315553  1125A      1.319453  
    1126A      1.320817  1127A      1.322335  1128A      1.324220  
    1129A      1.324665  1130A      1.325777  1131A      1.328885  
    1132A      1.329005  1133A      1.332943  1134A      1.333643  
    1135A      1.333936  1136A      1.337935  1137A      1.339467  
    1138A      1.346713  1139A      1.347294  1140A      1.354094  
    1141A      1.354706  1142A      1.357041  1143A      1.358312  
    1144A      1.359829  1145A      1.361107  1146A      1.361676  
    1147A      1.361905  1148A      1.364926  1149A      1.369563  
    1150A      1.371192  1151A      1.371499  1152A      1.374782  
    1153A      1.379834  1154A      1.381597  1155A      1.382825  
    1156A      1.383551  1157A      1.384528  1158A      1.385621  
    1159A      1.388661  1160A      1.391817  1161A      1.395202  
    1162A      1.395448  1163A      1.396112  1164A      1.396226  
    1165A      1.397980  1166A      1.399621  1167A      1.399761  
    1168A      1.402949  1169A      1.407192  1170A      1.408682  
    1171A      1.409526  1172A      1.409909  1173A      1.410335  
    1174A      1.426445  1175A      1.426831  1176A      1.428448  
    1177A      1.428900  1178A      1.429349  1179A      1.430061  
    1180A      1.430671  1181A      1.431105  1182A      1.431166  
    1183A      1.431400  1184A      1.442919  1185A      1.443132  
    1186A      1.444181  1187A      1.444307  1188A      1.450698  
    1189A      1.451401  1190A      1.454867  1191A      1.455726  
    1192A      1.457187  1193A      1.459381  1194A      1.460006  
    1195A      1.466671  1196A      1.468124  1197A      1.473416  
    1198A      1.475235  1199A      1.476606  1200A      1.476756  
    1201A      1.477119  1202A      1.477876  1203A      1.478260  
    1204A      1.478703  1205A      1.486850  1206A      1.487747  
    1207A      1.489599  1208A      1.490438  1209A      1.491797  
    1210A      1.497628  1211A      1.499417  1212A      1.499992  
    1213A      1.501635  1214A      1.502926  1215A      1.505465  
    1216A      1.505766  1217A      1.510293  1218A      1.510666  
    1219A      1.510834  1220A      1.517287  1221A      1.517825  
    1222A      1.520542  1223A      1.525191  1224A      1.527033  
    1225A      1.527247  1226A      1.527664  1227A      1.528938  
    1228A      1.535138  1229A      1.535967  1230A      1.537546  
    1231A      1.542618  1232A      1.543378  1233A      1.544120  
    1234A      1.548185  1235A      1.550904  1236A      1.550930  
    1237A      1.554608  1238A      1.559539  1239A      1.560352  
    1240A      1.560954  1241A      1.562202  1242A      1.570198  
    1243A      1.570250  1244A      1.573765  1245A      1.582660  
    1246A      1.587443  1247A      1.588830  1248A      1.590114  
    1249A      1.591786  1250A      1.604436  1251A      1.605075  
    1252A      1.609587  1253A      1.618299  1254A      1.625879  
    1255A      1.625906  1256A      1.651530  1257A      1.654097  
    1258A      1.655778  1259A      1.656713  1260A      1.668269  
    1261A      1.674258  1262A      1.677268  1263A      1.677699  
    1264A      1.678784  1265A      1.679842  1266A      1.680116  
    1267A      1.683314  1268A      1.684563  1269A      1.685015  
    1270A      1.687076  1271A      1.687797  1272A      1.688137  
    1273A      1.690925  1274A      1.691407  1275A      1.692535  
    1276A      1.693455  1277A      1.696546  1278A      1.696851  
    1279A      1.699444  1280A      1.700119  1281A      1.701190  
    1282A      1.703138  1283A      1.703946  1284A      1.705273  
    1285A      1.707011  1286A      1.708392  1287A      1.709145  
    1288A      1.709367  1289A      1.710198  1290A      1.712411  
    1291A      1.712966  1292A      1.713299  1293A      1.714662  
    1294A      1.716790  1295A      1.717026  1296A      1.718713  
    1297A      1.720704  1298A      1.721699  1299A      1.723877  
    1300A      1.724394  1301A      1.726106  1302A      1.728032  
    1303A      1.736316  1304A      1.737711  1305A      1.737969  
    1306A      1.738276  1307A      1.739495  1308A      1.739574  
    1309A      1.740388  1310A      1.741594  1311A      1.744091  
    1312A      1.744571  1313A      1.745761  1314A      1.751251  
    1315A      1.751707  1316A      1.756263  1317A      1.761381  
    1318A      1.762060  1319A      1.763252  1320A      1.764243  
    1321A      1.770582  1322A      1.770869  1323A      1.773316  
    1324A      1.776880  1325A      1.777085  1326A      1.781224  
    1327A      1.783567  1328A      1.783680  1329A      1.784186  
    1330A      1.787871  1331A      1.788656  1332A      1.792704  
    1333A      1.793238  1334A      1.796782  1335A      1.796958  
    1336A      1.797091  1337A      1.800045  1338A      1.806484  
    1339A      1.816972  1340A      1.817294  1341A      1.819008  
    1342A      1.819213  1343A      1.833826  1344A      1.834204  
    1345A      1.835558  1346A      1.839824  1347A      1.848206  
    1348A      1.851979  1349A      1.852233  1350A      1.856826  
    1351A      1.876584  1352A      1.876864  1353A      1.883743  
    1354A      1.889200  1355A      1.891478  1356A      1.893842  
    1357A      1.894387  1358A      1.894582  1359A      1.895094  
    1360A      1.897933  1361A      1.901071  1362A      1.901315  
    1363A      1.902856  1364A      1.907153  1365A      1.916205  
    1366A      1.918038  1367A      1.918064  1368A      1.919152  
    1369A      1.920634  1370A      1.921148  1371A      1.921374  
    1372A      1.928225  1373A      1.928906  1374A      1.933546  
    1375A      1.933719  1376A      1.934477  1377A      1.935387  
    1378A      1.938575  1379A      1.938715  1380A      1.940153  
    1381A      1.941913  1382A      1.942051  1383A      1.946221  
    1384A      1.946580  1385A      1.951294  1386A      1.952786  
    1387A      1.953449  1388A      1.953959  1389A      1.955033  
    1390A      1.956552  1391A      1.959392  1392A      1.961778  
    1393A      1.970414  1394A      1.970729  1395A      1.972939  
    1396A      1.973356  1397A      1.976684  1398A      1.981390  
    1399A      1.984845  1400A      1.988898  1401A      1.989031  
    1402A      1.991185  1403A      1.993494  1404A      1.996205  
    1405A      1.999811  1406A      2.000035  1407A      2.001131  
    1408A      2.001211  1409A      2.006866  1410A      2.007483  
    1411A      2.009756  1412A      2.011609  1413A      2.012078  
    1414A      2.014024  1415A      2.014617  1416A      2.015384  
    1417A      2.016285  1418A      2.021111  1419A      2.022039  
    1420A      2.023967  1421A      2.027844  1422A      2.029475  
    1423A      2.030386  1424A      2.032529  1425A      2.033814  
    1426A      2.036397  1427A      2.037859  1428A      2.039179  
    1429A      2.040019  1430A      2.042164  1431A      2.047321  
    1432A      2.047930  1433A      2.050491  1434A      2.054171  
    1435A      2.055228  1436A      2.057056  1437A      2.058337  
    1438A      2.059287  1439A      2.062762  1440A      2.063727  
    1441A      2.068662  1442A      2.069762  1443A      2.073082  
    1444A      2.077302  1445A      2.078264  1446A      2.083364  
    1447A      2.083893  1448A      2.088410  1449A      2.088591  
    1450A      2.089012  1451A      2.089324  1452A      2.090145  
    1453A      2.093639  1454A      2.096397  1455A      2.099332  
    1456A      2.100503  1457A      2.102020  1458A      2.103423  
    1459A      2.104378  1460A      2.104687  1461A      2.106261  
    1462A      2.106431  1463A      2.107254  1464A      2.109427  
    1465A      2.111622  1466A      2.115133  1467A      2.117454  
    1468A      2.121510  1469A      2.123418  1470A      2.125394  
    1471A      2.126209  1472A      2.129504  1473A      2.130434  
    1474A      2.133970  1475A      2.134839  1476A      2.137791  
    1477A      2.141200  1478A      2.141569  1479A      2.143025  
    1480A      2.145230  1481A      2.146721  1482A      2.148073  
    1483A      2.149724  1484A      2.150181  1485A      2.150496  
    1486A      2.151360  1487A      2.153480  1488A      2.155168  
    1489A      2.155357  1490A      2.155489  1491A      2.155977  
    1492A      2.156836  1493A      2.156971  1494A      2.157881  
    1495A      2.158847  1496A      2.160662  1497A      2.160951  
    1498A      2.161257  1499A      2.166160  1500A      2.166999  
    1501A      2.168503  1502A      2.168882  1503A      2.170789  
    1504A      2.171431  1505A      2.174970  1506A      2.175570  
    1507A      2.178386  1508A      2.180366  1509A      2.181034  
    1510A      2.181317  1511A      2.182108  1512A      2.185456  
    1513A      2.186513  1514A      2.188423  1515A      2.192359  
    1516A      2.193240  1517A      2.194154  1518A      2.194647  
    1519A      2.195190  1520A      2.197561  1521A      2.198889  
    1522A      2.202747  1523A      2.204215  1524A      2.204796  
    1525A      2.207481  1526A      2.207583  1527A      2.207879  
    1528A      2.211026  1529A      2.213565  1530A      2.214844  
    1531A      2.215721  1532A      2.216672  1533A      2.216919  
    1534A      2.218558  1535A      2.219573  1536A      2.226919  
    1537A      2.227971  1538A      2.228339  1539A      2.231414  
    1540A      2.231601  1541A      2.237988  1542A      2.238311  
    1543A      2.239521  1544A      2.240089  1545A      2.240928  
    1546A      2.242608  1547A      2.248468  1548A      2.250330  
    1549A      2.250687  1550A      2.252400  1551A      2.254194  
    1552A      2.256274  1553A      2.263381  1554A      2.264079  
    1555A      2.267338  1556A      2.268016  1557A      2.269034  
    1558A      2.269189  1559A      2.270071  1560A      2.271013  
    1561A      2.275267  1562A      2.276189  1563A      2.276510  
    1564A      2.277309  1565A      2.278774  1566A      2.279507  
    1567A      2.280371  1568A      2.287302  1569A      2.289120  
    1570A      2.291043  1571A      2.291922  1572A      2.292531  
    1573A      2.295078  1574A      2.295564  1575A      2.296414  
    1576A      2.298118  1577A      2.299900  1578A      2.300066  
    1579A      2.305258  1580A      2.306315  1581A      2.311392  
    1582A      2.313100  1583A      2.313825  1584A      2.315325  
    1585A      2.316089  1586A      2.318835  1587A      2.324390  
    1588A      2.327158  1589A      2.329656  1590A      2.333764  
    1591A      2.339708  1592A      2.342210  1593A      2.343260  
    1594A      2.349810  1595A      2.350905  1596A      2.351826  
    1597A      2.353466  1598A      2.355289  1599A      2.359151  
    1600A      2.361618  1601A      2.365151  1602A      2.367956  
    1603A      2.372061  1604A      2.373096  1605A      2.376769  
    1606A      2.392952  1607A      2.393421  1608A      2.395465  
    1609A      2.396739  1610A      2.397790  1611A      2.398078  
    1612A      2.399076  1613A      2.400475  1614A      2.404736  
    1615A      2.405749  1616A      2.408884  1617A      2.411400  
    1618A      2.411638  1619A      2.411998  1620A      2.413129  
    1621A      2.414327  1622A      2.414727  1623A      2.417097  
    1624A      2.424697  1625A      2.425954  1626A      2.427298  
    1627A      2.431154  1628A      2.448771  1629A      2.452087  
    1630A      2.454225  1631A      2.456413  1632A      2.459451  
    1633A      2.465594  1634A      2.471838  1635A      2.484031  
    1636A      2.486918  1637A      2.489878  1638A      2.494660  
    1639A      2.495954  1640A      2.498656  1641A      2.501760  
    1642A      2.509279  1643A      2.512638  1644A      2.513741  
    1645A      2.524266  1646A      2.528679  1647A      2.533446  
    1648A      2.533667  1649A      2.536796  1650A      2.537971  
    1651A      2.539320  1652A      2.539954  1653A      2.558248  
    1654A      2.558703  1655A      2.568942  1656A      2.570501  
    1657A      2.572992  1658A      2.574693  1659A      2.577089  
    1660A      2.585668  1661A      2.608394  1662A      2.610247  
    1663A      2.610558  1664A      2.611869  1665A      2.612436  
    1666A      2.614464  1667A      2.615727  1668A      2.617465  
    1669A      2.620900  1670A      2.623822  1671A      2.629809  
    1672A      2.630043  1673A      2.632898  1674A      2.636366  
    1675A      2.639405  1676A      2.648038  1677A      2.649261  
    1678A      2.649395  1679A      2.652540  1680A      2.652949  
    1681A      2.653888  1682A      2.654628  1683A      2.656788  
    1684A      2.660786  1685A      2.669266  1686A      2.669727  
    1687A      2.680475  1688A      2.681435  1689A      2.681972  
    1690A      2.682259  1691A      2.682722  1692A      2.687453  
    1693A      2.701980  1694A      2.710548  1695A      2.711281  
    1696A      2.714429  1697A      2.716068  1698A      2.717464  
    1699A      2.718951  1700A      2.721744  1701A      2.723058  
    1702A      2.723715  1703A      2.723790  1704A      2.733874  
    1705A      2.736455  1706A      2.737074  1707A      2.738954  
    1708A      2.740015  1709A      2.745949  1710A      2.746316  
    1711A      2.747029  1712A      2.756395  1713A      2.757750  
    1714A      2.760156  1715A      2.760729  1716A      2.762333  
    1717A      2.762767  1718A      2.764213  1719A      2.765303  
    1720A      2.767244  1721A      2.785371  1722A      2.788352  
    1723A      2.792138  1724A      2.796260  1725A      2.796799  
    1726A      2.800537  1727A      2.800585  1728A      2.825642  
    1729A      2.840471  1730A      2.842015  1731A      2.850620  
    1732A      2.853081  1733A      2.853493  1734A      2.854405  
    1735A      2.871276  1736A      2.871310  1737A      2.873419  
    1738A      2.873427  1739A      2.883713  1740A      2.886267  
    1741A      2.887812  1742A      2.888333  1743A      2.888582  
    1744A      2.890187  1745A      2.895734  1746A      2.904117  
    1747A      2.904392  1748A      2.910987  1749A      2.914465  
    1750A      2.916946  1751A      2.918484  1752A      2.919155  
    1753A      2.936536  1754A      2.936940  1755A      2.939348  
    1756A      2.940302  1757A      2.944596  1758A      2.947874  
    1759A      2.971720  1760A      2.972440  1761A      2.983405  
    1762A      2.983599  1763A      2.992728  1764A      2.995668  
    1765A      2.996989  1766A      3.002568  1767A      3.003211  
    1768A      3.031810  1769A      3.033124  1770A      3.033577  
    1771A      3.043049  1772A      3.062011  1773A      3.062719  
    1774A      3.099254  1775A      3.099855  1776A      3.104224  
    1777A      3.106639  1778A      3.115635  1779A      3.118568  
    1780A      3.119053  1781A      3.127057  1782A      3.127854  
    1783A      3.128002  1784A      3.141712  1785A      3.172275  
    1786A      3.172587  1787A      3.176232  1788A      3.191662  
    1789A      3.196709  1790A      3.197664  1791A      3.198020  
    1792A      3.202848  1793A      3.204487  1794A      3.207917  
    1795A      3.209022  1796A      3.214563  1797A      3.214849  
    1798A      3.220364  1799A      3.221638  1800A      3.222495  
    1801A      3.226718  1802A      3.238024  1803A      3.238767  
    1804A      3.239321  1805A      3.244665  1806A      3.256659  
    1807A      3.258828  1808A      3.281536  1809A      3.283133  
    1810A      3.287339  1811A      3.321434  1812A      3.326242  
    1813A      3.328810  1814A      3.330764  1815A      3.333121  
    1816A      3.333963  1817A      3.340250  1818A      3.341479  
    1819A      3.344830  1820A      3.345858  1821A      3.366556  
    1822A      3.369201  1823A      3.376991  1824A      3.379214  
    1825A      3.386296  1826A      3.435783  1827A      3.436286  
    1828A      3.467299  1829A      3.490948  1830A      3.513032  
    1831A      3.515952  1832A      3.531714  1833A      3.535559  
    1834A      3.540439  1835A      3.547782  1836A      3.548661  
    1837A      3.550818  1838A      3.557090  1839A      3.564273  
    1840A      3.566982  1841A      3.581904  1842A      3.608874  
    1843A      3.611252  1844A      3.644717  1845A      3.651130  
    1846A      3.655176  1847A      3.659597  1848A      3.683598  
    1849A      3.719987  1850A      3.724371  1851A      3.742202  
    1852A      3.744239  1853A      3.779462  1854A      3.825725  
    1855A      3.828100  1856A      3.830716  1857A      3.845436  
    1858A      3.845991  1859A      3.887949  1860A      3.912375  
    1861A      3.917441  1862A      3.942905  1863A      3.946239  
    1864A      3.988958  1865A      3.992516  1866A      4.017946  
    1867A      4.018641  1868A      4.028118  1869A      4.032395  
    1870A      4.043943  1871A      4.050889  1872A      4.054051  
    1873A      4.098208  1874A      4.101407  1875A      4.143261  
    1876A      4.153998  1877A      4.157734  1878A      4.169452  
    1879A      4.181318  1880A      4.190589  1881A      4.192953  
    1882A      4.197235  1883A      4.200373  1884A      4.265899  
    1885A      4.268774  1886A      4.276188  1887A      4.359332  
    1888A      4.402332  1889A      4.426965  1890A      4.430405  
    1891A      4.488944  1892A      4.549212  1893A      4.639899  
    1894A      4.640259  1895A      4.665700  1896A      4.732949  
    1897A      4.769694  1898A      4.770060  

    Final Occupation by Irrep:
              A 
    DOCC [   321 ]
    NA   [   321 ]
    NB   [   321 ]

  @DF-RHF Final Energy: -4073.11226808938409

   => Energetics <=

    Nuclear Repulsion Energy =          17773.0246239750376844
    One-Electron Energy =              -41035.9562603298691101
    Two-Electron Energy =               19189.8193682654491568
    Total Energy =                      -4073.1122680893822690

Computation Completed


Properties will be evaluated at   0.000000,   0.000000,   0.000000 [a0]

Properties computed using the SCF density matrix


 Multipole Moments:

 ------------------------------------------------------------------------------------
     Multipole            Electronic (a.u.)      Nuclear  (a.u.)        Total (a.u.)
 ------------------------------------------------------------------------------------

 L = 1.  Multiply by 2.5417464519 to convert [e a0] to [Debye]
 Dipole X            :          0.0019410           -0.0000548            0.0018863
 Dipole Y            :          0.0017380           -0.0002464            0.0014916
 Dipole Z            :         15.8733572          -20.2342882           -4.3609311
 Magnitude           :                                                    4.3609317

 ------------------------------------------------------------------------------------

*** tstop() called on n2cn0436 at Sat Jan 27 13:53:54 2024
Module time:
	user time   =   27132.21 seconds =     452.20 minutes
	system time =    2404.23 seconds =      40.07 minutes
	total time  =      11592 seconds =     193.20 minutes
Total time:
	user time   =   27132.21 seconds =     452.20 minutes
	system time =    2404.23 seconds =      40.07 minutes
	total time  =      11592 seconds =     193.20 minutes

  //>>>>>>>>>>>>>>>>>>>>>>>>>>>>>>>>>>>//
  //            Monomer A HF           //
  //<<<<<<<<<<<<<<<<<<<<<<<<<<<<<<<<<<<//

   => Libint2 <=

    Primary   basis highest AM E, G, H:  5, 4, 3
    Auxiliary basis highest AM E, G, H:  6, 5, 4
    Onebody   basis highest AM E, G, H:  6, 5, 4
    Solid Harmonics ordering:            gaussian

*** tstart() called on n2cn0436
*** at Sat Jan 27 13:53:54 2024

   => Loading Basis Set <=

    Name: JUN-CC-PVDZ
    Role: ORBITAL
    Keyword: BASIS
    atoms 1                                                   entry B          line   130 file /opt/software/pc2/EB-SW/software/PSI4/1.9-foss-2022a/share/psi4/basis/jun-cc-pvdz.gbs 
    atoms 2-5                                                 entry F          line   266 file /opt/software/pc2/EB-SW/software/PSI4/1.9-foss-2022a/share/psi4/basis/jun-cc-pvdz.gbs 
    atoms 6-23, 30-42, 45-59, 62-78, 81-93, 98-108, 111-119   entry C          line   164 file /opt/software/pc2/EB-SW/software/PSI4/1.9-foss-2022a/share/psi4/basis/jun-cc-pvdz.gbs 
    atoms 24-29, 43-44, 60-61, 79-80, 94-97, 109-110, 120-125 entry H          line    36 file /opt/software/pc2/EB-SW/software/PSI4/1.9-foss-2022a/share/psi4/basis/jun-cc-pvdz.gbs 


         ---------------------------------------------------------
                                   SCF
               by Justin Turney, Rob Parrish, Andy Simmonett
                          and Daniel G. A. Smith
                              RHF Reference
                       16 Threads,  61035 MiB Core
         ---------------------------------------------------------

  ==> Geometry <==

    Molecular point group: c1
    Full point group: C1

    Geometry (in Angstrom), charge = -1, multiplicity = 1:

       Center              X                  Y                   Z               Mass       
    ------------   -----------------  -----------------  -----------------  -----------------
         B           -0.000201921932     0.000288800891     3.165854096523    11.009305360000
         F           -0.000004162732     0.000014527991     4.578639096523    18.998403162730
         F            1.147855837268     0.675795727991     2.694713096523    18.998403162730
         F            0.011913897268    -1.331996472009     2.694915096523    18.998403162730
         F           -1.159670162732     0.656088027991     2.694994096523    18.998403162730
      Gh(C)          -3.668445426752     7.803766698073    -0.232279862141    12.000000000000
      Gh(C)          -4.847602882078     7.131256359331    -0.234646437074    12.000000000000
      Gh(C)          -4.894963461907     5.696344931522    -0.235219348172    12.000000000000
      Gh(C)          -3.653744841505     4.980744868950    -0.227558906442    12.000000000000
      Gh(C)          -2.409429284226     7.113995564665    -0.232085519881    12.000000000000
      Gh(C)          -2.425481506836     5.681136478894    -0.239090408751    12.000000000000
      Gh(C)          -1.194748179167     7.786158722300    -0.230613339339    12.000000000000
      Gh(C)           0.037954866205     7.099436173748    -0.232784043644    12.000000000000
      Gh(C)           0.030328424687     5.669504087695    -0.238267428560    12.000000000000
      Gh(C)          -1.200988670637     4.969284875906    -0.229297694626    12.000000000000
      Gh(C)           1.277953663083     7.772873971185    -0.231408195084    12.000000000000
      Gh(C)           2.485353921992     7.087711413228    -0.233682682988    12.000000000000
      Gh(C)           2.486124522185     5.654785338231    -0.240620431976    12.000000000000
      Gh(C)           1.254078756912     4.956092641655    -0.228992490388    12.000000000000
      Gh(C)           3.751710428674     7.763926678971    -0.233555831608    12.000000000000
      Gh(C)           4.923561893453     7.078795304981    -0.235612312316    12.000000000000
      Gh(C)           4.955603108594     5.643461991360    -0.235772725123    12.000000000000
      Gh(C)           3.706797371473     4.941224736324    -0.230681164953    12.000000000000
      Gh(H)          -3.658525300490     8.890841947126    -0.230594873891     1.007825032230
      Gh(H)          -1.189217492488     8.874135615351    -0.226641462898     1.007825032230
      Gh(H)           1.284290076155     8.860847963479    -0.227249370943     1.007825032230
      Gh(H)           3.753537924068     8.851049806963    -0.232033307292     1.007825032230
      Gh(H)           5.869954540475     7.613809362646    -0.236537679358     1.007825032230
[...]
    1507A      2.131152  1508A      2.132655  1509A      2.133653  
    1510A      2.134607  1511A      2.139216  1512A      2.143244  
    1513A      2.143405  1514A      2.143475  1515A      2.144387  
    1516A      2.144496  1517A      2.146059  1518A      2.152131  
    1519A      2.154989  1520A      2.159699  1521A      2.159974  
    1522A      2.160519  1523A      2.161287  1524A      2.161691  
    1525A      2.162363  1526A      2.164159  1527A      2.166279  
    1528A      2.166874  1529A      2.173152  1530A      2.173650  
    1531A      2.175008  1532A      2.180312  1533A      2.182005  
    1534A      2.183623  1535A      2.184385  1536A      2.192298  
    1537A      2.192662  1538A      2.194433  1539A      2.195178  
    1540A      2.196106  1541A      2.199399  1542A      2.200511  
    1543A      2.201143  1544A      2.202258  1545A      2.202994  
    1546A      2.204043  1547A      2.206093  1548A      2.207288  
    1549A      2.212573  1550A      2.212990  1551A      2.216063  
    1552A      2.220319  1553A      2.222881  1554A      2.223270  
    1555A      2.223815  1556A      2.224464  1557A      2.227993  
    1558A      2.231176  1559A      2.231728  1560A      2.232372  
    1561A      2.233060  1562A      2.234986  1563A      2.236159  
    1564A      2.238190  1565A      2.240999  1566A      2.241212  
    1567A      2.244890  1568A      2.246909  1569A      2.249032  
    1570A      2.249361  1571A      2.257728  1572A      2.259666  
    1573A      2.264498  1574A      2.268783  1575A      2.274072  
    1576A      2.274447  1577A      2.277030  1578A      2.278627  
    1579A      2.281230  1580A      2.284458  1581A      2.284650  
    1582A      2.294851  1583A      2.296055  1584A      2.297056  
    1585A      2.299060  1586A      2.305471  1587A      2.306232  
    1588A      2.311871  1589A      2.325359  1590A      2.327329  
    1591A      2.327714  1592A      2.329113  1593A      2.330596  
    1594A      2.330850  1595A      2.333617  1596A      2.335060  
    1597A      2.335807  1598A      2.336760  1599A      2.341038  
    1600A      2.341752  1601A      2.342450  1602A      2.344164  
    1603A      2.345588  1604A      2.346351  1605A      2.346451  
    1606A      2.349678  1607A      2.350058  1608A      2.355619  
    1609A      2.372144  1610A      2.377086  1611A      2.380530  
    1612A      2.385713  1613A      2.388636  1614A      2.395441  
    1615A      2.397692  1616A      2.409501  1617A      2.411995  
    1618A      2.419217  1619A      2.420458  1620A      2.425523  
    1621A      2.428086  1622A      2.435009  1623A      2.443557  
    1624A      2.444840  1625A      2.453248  1626A      2.456314  
    1627A      2.465259  1628A      2.465775  1629A      2.468417  
    1630A      2.469180  1631A      2.472024  1632A      2.472360  
    1633A      2.491506  1634A      2.492002  1635A      2.500355  
    1636A      2.502367  1637A      2.506423  1638A      2.508182  
    1639A      2.512199  1640A      2.516946  1641A      2.540001  
    1642A      2.540402  1643A      2.540776  1644A      2.543063  
    1645A      2.544067  1646A      2.547062  1647A      2.548270  
    1648A      2.549615  1649A      2.550295  1650A      2.556076  
    1651A      2.556953  1652A      2.557117  1653A      2.564367  
    1654A      2.571562  1655A      2.571941  1656A      2.582473  
    1657A      2.585407  1658A      2.585646  1659A      2.585831  
    1660A      2.587523  1661A      2.588079  1662A      2.589625  
    1663A      2.593302  1664A      2.593946  1665A      2.602287  
    1666A      2.602652  1667A      2.611763  1668A      2.614063  
    1669A      2.614302  1670A      2.615176  1671A      2.615360  
    1672A      2.618851  1673A      2.633174  1674A      2.642134  
    1675A      2.642845  1676A      2.645879  1677A      2.647644  
    1678A      2.649722  1679A      2.650705  1680A      2.651209  
    1681A      2.654113  1682A      2.656983  1683A      2.657045  
    1684A      2.666251  1685A      2.668481  1686A      2.668556  
    1687A      2.671221  1688A      2.671648  1689A      2.674264  
    1690A      2.680681  1691A      2.680845  1692A      2.686401  
    1693A      2.688137  1694A      2.691012  1695A      2.691682  
    1696A      2.692416  1697A      2.694551  1698A      2.695441  
    1699A      2.697073  1700A      2.699499  1701A      2.708991  
    1702A      2.723116  1703A      2.726172  1704A      2.730810  
    1705A      2.731055  1706A      2.731916  1707A      2.731958  
    1708A      2.757171  1709A      2.766019  1710A      2.766830  
    1711A      2.777076  1712A      2.780905  1713A      2.783117  
    1714A      2.783404  1715A      2.800065  1716A      2.800148  
    1717A      2.802417  1718A      2.802449  1719A      2.809282  
    1720A      2.810847  1721A      2.813670  1722A      2.814934  
    1723A      2.816888  1724A      2.819206  1725A      2.820133  
    1726A      2.830904  1727A      2.831078  1728A      2.840825  
    1729A      2.844353  1730A      2.844959  1731A      2.845684  
    1732A      2.847306  1733A      2.864278  1734A      2.864520  
    1735A      2.870886  1736A      2.871850  1737A      2.872382  
    1738A      2.875499  1739A      2.884793  1740A      2.896141  
    1741A      2.897067  1742A      2.906935  1743A      2.907990  
    1744A      2.918642  1745A      2.918784  1746A      2.921148  
    1747A      2.927952  1748A      2.931386  1749A      2.937356  
    1750A      2.937704  1751A      2.964054  1752A      2.967958  
    1753A      2.968489  1754A      2.976430  1755A      2.995040  
    1756A      2.995844  1757A      3.031074  1758A      3.031489  
    1759A      3.038631  1760A      3.040941  1761A      3.049738  
    1762A      3.050306  1763A      3.050499  1764A      3.058351  
    1765A      3.058435  1766A      3.067870  1767A      3.073308  
    1768A      3.109496  1769A      3.111201  1770A      3.114170  
    1771A      3.124001  1772A      3.129750  1773A      3.129968  
    1774A      3.137913  1775A      3.139335  1776A      3.142147  
    1777A      3.143417  1778A      3.150376  1779A      3.150630  
    1780A      3.154939  1781A      3.155362  1782A      3.155655  
    1783A      3.162219  1784A      3.168627  1785A      3.173326  
    1786A      3.177801  1787A      3.178135  1788A      3.192603  
    1789A      3.194794  1790A      3.220871  1791A      3.258204  
    1792A      3.261865  1793A      3.262349  1794A      3.263221  
    1795A      3.263393  1796A      3.265603  1797A      3.271023  
    1798A      3.273762  1799A      3.276066  1800A      3.276735  
    1801A      3.296402  1802A      3.299438  1803A      3.307331  
    1804A      3.314432  1805A      3.363451  1806A      3.364197  
    1807A      3.390891  1808A      3.418794  1809A      3.439698  
    1810A      3.441305  1811A      3.457050  1812A      3.458591  
    1813A      3.462020  1814A      3.467313  1815A      3.475173  
    1816A      3.476703  1817A      3.479864  1818A      3.487047  
    1819A      3.489774  1820A      3.498180  1821A      3.510264  
    1822A      3.535683  1823A      3.557795  1824A      3.579141  
    1825A      3.580340  1826A      3.589158  1827A      3.591179  
    1828A      3.644895  1829A      3.648369  1830A      3.671758  
    1831A      3.673864  1832A      3.707925  1833A      3.754861  
    1834A      3.758797  1835A      3.760636  1836A      3.771598  
    1837A      3.778753  1838A      3.793791  1839A      3.844521  
    1840A      3.847894  1841A      3.873946  1842A      3.877271  
    1843A      3.921048  1844A      3.924105  1845A      3.948831  
    1846A      3.949641  1847A      3.954939  1848A      3.958369  
    1849A      3.973120  1850A      3.977569  1851A      3.980756  
    1852A      4.024864  1853A      4.027677  1854A      4.086744  
    1855A      4.267665  1856A      4.348018  1857A      4.419979  
    1858A      4.449609  1859A      4.510135  1860A      4.515584  
    1861A      4.562487  1862A      5.765533  1863A      5.766203  
    1864A      5.766842  1865A      5.771614  1866A      5.771802  
    1867A      5.771958  1868A      5.778809  1869A      5.779306  
    1870A      5.828281  1871A      5.829200  1872A      5.847623  
    1873A      6.029172  1874A      6.029519  1875A      6.037873  
    1876A      6.212314  1877A      6.334554  1878A      6.334882  
    1879A      6.393884  1880A      6.394331  1881A      6.402621  
    1882A      7.319812  1883A      7.321093  1884A      7.375897  
    1885A      7.382983  1886A      7.388381  1887A      7.469956  
    1888A      7.476604  1889A      7.521527  1890A      7.592466  
    1891A      7.684834  1892A      7.686033  1893A      7.864860  
    1894A     12.759856  1895A     42.948482  1896A     42.973404  
    1897A     42.973514  1898A     42.980460  

    Final Occupation by Irrep:
              A 
    DOCC [   300 ]
    NA   [   300 ]
    NB   [   300 ]

  @DF-RHF Final Energy: -3650.34022181754108

   => Energetics <=

    Nuclear Repulsion Energy =          15611.4211649754324753
    One-Electron Energy =              -36072.1498405278543942
    Two-Electron Energy =               16810.3884537348822050
    Total Energy =                      -3650.3402218175397138

Computation Completed


Properties will be evaluated at   0.000000,   0.000000,   0.000000 [a0]

Properties computed using the SCF density matrix


 Multipole Moments:

 ------------------------------------------------------------------------------------
     Multipole            Electronic (a.u.)      Nuclear  (a.u.)        Total (a.u.)
 ------------------------------------------------------------------------------------

 L = 1.  Multiply by 2.5417464519 to convert [e a0] to [Debye]
 Dipole X            :          0.0001061            0.0002304            0.0003365
 Dipole Y            :          0.0014034           -0.0013052            0.0000982
 Dipole Z            :        265.5196152         -265.5181371            0.0014782
 Magnitude           :                                                    0.0015192

 ------------------------------------------------------------------------------------

*** tstop() called on n2cn0436 at Sat Jan 27 16:15:49 2024
Module time:
	user time   =   17018.11 seconds =     283.64 minutes
	system time =    1650.21 seconds =      27.50 minutes
	total time  =       4955 seconds =      82.58 minutes
Total time:
	user time   =   48286.33 seconds =     804.77 minutes
	system time =    4434.16 seconds =      73.90 minutes
	total time  =      20107 seconds =     335.12 minutes
  Constructing Basis Sets for SAPT...

   => Loading Basis Set <=

    Name: (JUN-CC-PVDZ AUX)
    Role: RIFIT
    Keyword: DF_BASIS_SAPT
    atoms 1                                                   entry B          line    56 file /opt/software/pc2/EB-SW/software/PSI4/1.9-foss-2022a/share/psi4/basis/jun-cc-pvdz-ri.gbs 
    atoms 2-5                                                 entry F          line   232 file /opt/software/pc2/EB-SW/software/PSI4/1.9-foss-2022a/share/psi4/basis/jun-cc-pvdz-ri.gbs 
    atoms 6-23, 30-42, 45-59, 62-78, 81-93, 98-108, 111-119   entry C          line   100 file /opt/software/pc2/EB-SW/software/PSI4/1.9-foss-2022a/share/psi4/basis/jun-cc-pvdz-ri.gbs 
    atoms 24-29, 43-44, 60-61, 79-80, 94-97, 109-110, 120-125 entry H          line    30 file /opt/software/pc2/EB-SW/software/PSI4/1.9-foss-2022a/share/psi4/basis/jun-cc-pvdz-ri.gbs 

   => Loading Basis Set <=

    Name: (JUN-CC-PVDZ AUX)
    Role: JKFIT
    Keyword: DF_BASIS_ELST
    atoms 1                                                   entry B          line    90 file /opt/software/pc2/EB-SW/software/PSI4/1.9-foss-2022a/share/psi4/basis/jun-cc-pvdz-jkfit.gbs 
    atoms 2-5                                                 entry F          line   314 file /opt/software/pc2/EB-SW/software/PSI4/1.9-foss-2022a/share/psi4/basis/jun-cc-pvdz-jkfit.gbs 
    atoms 6-23, 30-42, 45-59, 62-78, 81-93, 98-108, 111-119   entry C          line   146 file /opt/software/pc2/EB-SW/software/PSI4/1.9-foss-2022a/share/psi4/basis/jun-cc-pvdz-jkfit.gbs 
    atoms 24-29, 43-44, 60-61, 79-80, 94-97, 109-110, 120-125 entry H          line    70 file /opt/software/pc2/EB-SW/software/PSI4/1.9-foss-2022a/share/psi4/basis/jun-cc-pvdz-jkfit.gbs 


  //>>>>>>>>>>>>>>>>>>>>>>>>>>>>>>>>>>>//
  //               SSAPT0              //
  //<<<<<<<<<<<<<<<<<<<<<<<<<<<<<<<<<<<//


*** tstart() called on n2cn0436
*** at Sat Jan 27 16:15:50 2024

        SAPT0  
    Ed Hohenstein
     6 June 2009

      Orbital Information
  --------------------------
    NSO        =      1938
    NMO        =      1898
    NRI        =      6901
    NRI (Elst) =      8531
    NOCC A     =        21
    NOCC B     =       300
    FOCC A     =         5
    FOCC B     =        96
    NVIR A     =      1877
    NVIR B     =      1598

    Elst10,r            =     0.005791186460 [Eh]
    Exch10              =     0.017720770851 [Eh]
    Exch10 (S^2)        =     0.017688804871 [Eh]

    Iter     Energy [mEh]          dE [mEh]         Residual      Time [s]
       1      -1.71585100       1.715850997       6.514088687           571
       2      -2.14264192       0.426790927       2.284612713          1326
       3      -2.16897386       0.026331940       0.412129432          2015
       4      -2.16282220      -0.006151666       0.107817556          2569
       5      -2.16287698       0.000054781       0.033511565          3242
       6      -2.16309623       0.000219246       0.008138292          3860
       7      -2.16311841       0.000022182       0.001605238          4468
       8      -2.16310667      -0.000011742       0.000278062          5088
       9      -2.16310810       0.000001436       0.000040265          5782
      10      -2.16310801      -0.000000094       0.000006951          6334
      11      -2.16310800      -0.000000005       0.000001255          6942
      12      -2.16310801       0.000000004       0.000000313          7594

    CHF Iterations converged


    Iter     Energy [mEh]          dE [mEh]         Residual      Time [s]
       1     -35.22451098      35.224510984      99.250092510           633
       2     -23.46169081     -11.762820170      11.999986453          1217
       3     -23.42149350      -0.040197317       3.949548682          1867
       4     -23.81513233       0.393638837       1.353679329          2523
       5     -23.87074182       0.055609487       0.511281478          3228
       6     -23.84964832      -0.021093501       0.301168749          3856
       7     -23.83942685      -0.010221472       0.120974512          4614
       8     -23.84217756       0.002750712       0.050298578          5297
       9     -23.84406267       0.001885114       0.019233058          6216
      10     -23.84372591      -0.000336759       0.017213716          7139
      11     -23.84328975      -0.000436167       0.011513679          8375
      12     -23.84344237       0.000152626       0.006802521          9186
      13     -23.84356601       0.000123637       0.002568597          9889
      14     -23.84356032      -0.000005687       0.000979795         10454
      15     -23.84354664      -0.000013683       0.000571973         11083
      16     -23.84353721      -0.000009427       0.000353145         11660
      17     -23.84354478       0.000007563       0.000172655         12138
      18     -23.84354647       0.000001693       0.000063214         12763
      19     -23.84354554      -0.000000933       0.000035188         13324
      20     -23.84354481      -0.000000723       0.000015309         14242
      21     -23.84354508       0.000000262       0.000007078         15226
      22     -23.84354518       0.000000105       0.000003089         16063
      23     -23.84354514      -0.000000040       0.000001587         17013
      24     -23.84354512      -0.000000023       0.000000909         18210

    CHF Iterations converged

    Ind20,r (A<-B)      =    -0.002163108005 [Eh]
    Ind20,r (B<-A)      =    -0.023843545118 [Eh]
    Ind20,r             =    -0.026006653124 [Eh]
    Exch-Ind20,r (A<-B) =     0.001991893787 [Eh]
    Exch-Ind20,r (B<-A) =     0.003990644226 [Eh]
    Exch-Ind20,r        =     0.005982538013 [Eh]
    Disp20              =    -0.016165610514 [Eh]
    Disp20 (SS)         =    -0.008082805257 [Eh]
    Disp20 (OS)         =    -0.008082805257 [Eh]
    Exch-Disp20         =     0.002315057741 [Eh]
    Exch-Disp20 (SS)    =     0.001341872614 [Eh]
    Exch-Disp20 (OS)    =     0.000973185127 [Eh]

    SAPT Results 
  --------------------------------------------------------------------------------------------------------
    Electrostatics                  5.79118646 [mEh]       3.63402437 [kcal/mol]      15.20475796 [kJ/mol]
      Elst10,r                      5.79118646 [mEh]       3.63402437 [kcal/mol]      15.20475796 [kJ/mol]

    Exchange                       17.72077085 [mEh]      11.11995159 [kcal/mol]      46.52587746 [kJ/mol]
      Exch10                       17.72077085 [mEh]      11.11995159 [kcal/mol]      46.52587746 [kJ/mol]
      Exch10(S^2)                  17.68880487 [mEh]      11.09989264 [kcal/mol]      46.44195079 [kJ/mol]

    Induction                     -21.51277858 [mEh]     -13.49947236 [kcal/mol]     -56.48179237 [kJ/mol]
      Ind20,r                     -26.00665312 [mEh]     -16.31942122 [kcal/mol]     -68.28045837 [kJ/mol]
      Exch-Ind20,r                  5.98253801 [mEh]       3.75409928 [kcal/mol]      15.70715139 [kJ/mol]
      delta HF,r (2)               -1.48866347 [mEh]      -0.93415043 [kcal/mol]      -3.90848539 [kJ/mol]

    Dispersion                    -13.85055277 [mEh]      -8.69135308 [kcal/mol]     -36.36462129 [kJ/mol]
      Disp20                      -16.16561051 [mEh]     -10.14407375 [kcal/mol]     -42.44280456 [kJ/mol]
      Exch-Disp20                   2.31505774 [mEh]       1.45272066 [kcal/mol]       6.07818326 [kJ/mol]
      Disp20 (SS)                  -8.08280526 [mEh]      -5.07203687 [kcal/mol]     -21.22140228 [kJ/mol]
      Disp20 (OS)                  -8.08280526 [mEh]      -5.07203687 [kcal/mol]     -21.22140228 [kJ/mol]
      Exch-Disp20 (SS)              1.34187261 [mEh]       0.84203778 [kcal/mol]       3.52308606 [kJ/mol]
      Exch-Disp20 (OS)              0.97318513 [mEh]       0.61068289 [kcal/mol]       2.55509720 [kJ/mol]

  Total HF                          1.99917873 [mEh]       1.25450360 [kcal/mol]       5.24884305 [kJ/mol]
  Total SAPT0                     -11.85137404 [mEh]      -7.43684949 [kcal/mol]     -31.11577825 [kJ/mol]

  Special recipe for scaled SAPT0 (see Manual):
    Electrostatics sSAPT0           5.79118646 [mEh]       3.63402437 [kcal/mol]      15.20475796 [kJ/mol]
    Exchange sSAPT0                17.72077085 [mEh]      11.11995159 [kcal/mol]      46.52587746 [kJ/mol]
    Induction sSAPT0              -21.48028625 [mEh]     -13.47908312 [kcal/mol]     -56.39648377 [kJ/mol]
    Dispersion sSAPT0             -13.83797924 [mEh]      -8.68346307 [kcal/mol]     -36.33160950 [kJ/mol]
  Total sSAPT0                    -11.80630818 [mEh]      -7.40857023 [kcal/mol]     -30.99745785 [kJ/mol]
  --------------------------------------------------------------------------------------------------------

*** tstop() called on n2cn0436 at Mon Jan 29 09:24:13 2024
Module time:
	user time   =   69262.99 seconds =    1154.38 minutes
	system time =    4270.28 seconds =      71.17 minutes
	total time  =     148103 seconds =    2468.38 minutes
Total time:
	user time   =  117550.96 seconds =    1959.18 minutes
	system time =    8704.45 seconds =     145.07 minutes
	total time  =     168211 seconds =    2803.52 minutes

    Psi4 stopped on: Monday, 29 January 2024 09:24AM
    Psi4 wall time for execution: 1 day, 22:43:32.73

*** Psi4 exiting successfully. Buy a developer a beer!
