created by fftool

5201 atoms
6180 bonds
11373 angles
18657 dihedrals
2240 impropers
11 atom types
9 bond types
12 angle types
17 dihedral types
1 improper types
0.000000 34.080000 xlo xhi
0.000000 34.433000 ylo yhi
0.000000 200.000000 zlo zhi

Masses

   1   12.011  # CB
   2   12.011  # CG
   3   10.811  # B
   4   18.998  # FB
   5   14.007  # NA
   6   12.011  # CR
   7   12.011  # CW
   8   12.011  # C1
   9    1.008  # HCR
  10    1.008  # HCW
  11    1.008  # H1

Bond Coeffs

   1   350.000000     1.420000  # C-C
   2   386.591778     1.394000  # B-F
   3   477.055449     1.315000  # CR-NA
   4   427.103250     1.378000  # CW-NA
   5   520.076482     1.341000  # CW-CW
   6   336.998088     1.466000  # NA-CT
   7   339.985660     1.080000  # CR-HA
   8   339.985660     1.080000  # CW-HA
   9   339.985660     1.090000  # HC-CT

Angle Coeffs

   1    cosine/squared 66.665      120.000000  # C-C-C
   2    harmonic       80.007170   109.500000  # F-B-F
   3    harmonic       70.004780   126.400000  # CR-NA-CT
   4    harmonic       70.004780   108.000000  # CW-NA-CR
   5    harmonic       70.004780   125.600000  # CW-NA-CT
   6    harmonic       70.004780   109.800000  # NA-CR-NA
   7    harmonic       35.002390   125.100000  # NA-CR-HA
   8    harmonic       70.004780   107.100000  # NA-CW-CW
   9    harmonic       35.002390   122.000000  # NA-CW-HA
  10    harmonic       35.002390   130.900000  # CW-CW-HA
  11    harmonic       37.500000   110.700000  # NA-CT-HC
  12    harmonic       32.994742   107.800000  # HC-CT-HC

Dihedral Coeffs

   1    harmonic      3.125000    -1            2                      # C-C-C-C
   2    opls          0.000000     4.651052     0.000000     0.000000  # CT-NA-CR-NA
   3    opls          0.000000     4.651052     0.000000     0.000000  # CW-NA-CR-NA
   4    opls          0.000000     4.651052     0.000000     0.000000  # CT-NA-CR-HA
   5    opls          0.000000     4.651052     0.000000     0.000000  # CW-NA-CR-HA
   6    opls          0.000000     3.000000     0.000000     0.000000  # CR-NA-CW-CW
   7    opls          0.000000     3.000000     0.000000     0.000000  # CT-NA-CW-CW
   8    opls          0.000000     3.000000     0.000000     0.000000  # CR-NA-CW-HA
   9    opls          0.000000     3.000000     0.000000     0.000000  # CT-NA-CW-HA
  10    opls          0.000000    10.750478     0.000000     0.000000  # NA-CW-CW-HA
  11    opls          0.000000    10.750478     0.000000     0.000000  # HA-CW-CW-HA
  12    opls          0.000000    10.750478     0.000000     0.000000  # NA-CW-CW-NA
  13    opls          0.000000     0.000000     0.000000     0.000000  # CR-NA-CT-HC
  14    opls          0.000000     0.000000     0.124044     0.000000  # CW-NA-CT-HC
  15    opls          0.000000     2.000000     0.000000     0.000000  # CR-CW-NA-CT
  16    opls          0.000000     2.200000     0.000000     0.000000  # NA-NA-CR-HA
  17    opls          0.000000     2.200000     0.000000     0.000000  # NA-CW-CW-HA

Improper Coeffs

   1    40.0         0.0                                 # C-C-C-C

Atoms

1 1 1 0 0.71 0 0 0 0 0
2 1 1 0 2.13 0 0 0 0 0
3 1 1 0 0 1.23 0 0 0 0
4 1 1 0 2.84 1.23 0 0 0 0
5 1 1 0 4.97 0 0 0 0 0
6 1 1 0 6.39 0 0 0 0 0
7 1 1 0 4.26 1.23 0 0 0 0
8 1 1 0 7.1 1.23 0 0 0 0
33 1 1 0 0.71 2.46 0 0 0 0
34 1 1 0 2.13 2.46 0 0 0 0
35 1 1 0 0 3.689 0 0 0 0
36 1 1 0 2.84 3.689 0 0 0 0
37 1 1 0 4.97 2.46 0 0 0 0
38 1 1 0 6.39 2.46 0 0 0 0
39 1 1 0 4.26 3.689 0 0 0 0
40 1 1 0 7.1 3.689 0 0 0 0
65 1 1 0 0.71 4.919 0 0 0 0
66 1 1 0 2.13 4.919 0 0 0 0
67 1 1 0 0 6.149 0 0 0 0
68 1 1 0 2.84 6.149 0 0 0 0
69 1 1 0 4.97 4.919 0 0 0 0
70 1 1 0 6.39 4.919 0 0 0 0
71 1 1 0 4.26 6.149 0 0 0 0
72 1 1 0 7.1 6.149 0 0 0 0
97 1 1 0 0.71 7.379 0 0 0 0
98 1 1 0 2.13 7.379 0 0 0 0
99 1 1 0 0 8.608 0 0 0 0
100 1 1 0 2.84 8.608 0 0 0 0
101 1 1 0 4.97 7.379 0 0 0 0
102 1 1 0 6.39 7.379 0 0 0 0
103 1 1 0 4.26 8.608 0 0 0 0
104 1 1 0 7.1 8.608 0 0 0 0
449 1 1 0 2.13 0 3.35 0 0 0
450 1 1 0 3.55 0 3.35 0 0 0
451 1 1 0 1.42 1.23 3.35 0 0 0
452 1 1 0 4.26 1.23 3.35 0 0 0
453 1 1 0 6.39 0 3.35 0 0 0
454 1 1 0 7.81 0 3.35 0 0 0
455 1 1 0 5.68 1.23 3.35 0 0 0
480 1 1 0 0 1.23 3.35 1 0 0
481 1 1 0 2.13 2.46 3.35 0 0 0
482 1 1 0 3.55 2.46 3.35 0 0 0
483 1 1 0 1.42 3.689 3.35 0 0 0
484 1 1 0 4.26 3.689 3.35 0 0 0
485 1 1 0 6.39 2.46 3.35 0 0 0
486 1 1 0 7.81 2.46 3.35 0 0 0
487 1 1 0 5.68 3.689 3.35 0 0 0
512 1 1 0 0 3.689 3.35 1 0 0
513 1 1 0 2.13 4.919 3.35 0 0 0
514 1 1 0 3.55 4.919 3.35 0 0 0
515 1 1 0 1.42 6.149 3.35 0 0 0
516 1 1 0 4.26 6.149 3.35 0 0 0
517 1 1 0 6.39 4.919 3.35 0 0 0
518 1 1 0 7.81 4.919 3.35 0 0 0
519 1 1 0 5.68 6.149 3.35 0 0 0
544 1 1 0 0 6.149 3.35 1 0 0
545 1 1 0 2.13 7.379 3.35 0 0 0
546 1 1 0 3.55 7.379 3.35 0 0 0
547 1 1 0 1.42 8.608 3.35 0 0 0
548 1 1 0 4.26 8.608 3.35 0 0 0
549 1 1 0 6.39 7.379 3.35 0 0 0
550 1 1 0 7.81 7.379 3.35 0 0 0
551 1 1 0 5.68 8.608 3.35 0 0 0
576 1 1 0 0 8.608 3.35 1 0 0
900 1 2 0 2.9121463538348276 1.2733903839653906 6.7578746744029425 0 0 0
903 1 2 0 4.3345496010808064 1.328979479737269 6.778476748311809 0 0 0
904 1 2 0 7.170025026447088 1.2968282370724389 6.705354419373306 0 0 0
929 1 2 0 0.7960762073714672 2.4534327290972318 6.83320759151041 0 0 0
930 1 2 0 2.2097625257728666 2.5135206358136073 6.742911298678167 0 0 0
932 1 2 0 2.912270236644312 3.7161898140402077 6.796695077938541 0 0 0
933 1 2 0 5.055321914463672 2.556949621812472 6.687612671012434 0 0 0
934 1 2 0 6.498767734734694 2.5592851836500143 6.731965250153109 0 0 0
935 1 2 0 4.314210999935114 3.768725767608865 6.770404680823894 0 0 0
936 1 2 0 7.2524114490211185 3.7218103693505986 6.784257088105302 0 0 0
961 1 2 0 0.7730771923320091 4.967854219639537 6.774559032083861 0 0 0
962 1 2 0 2.194897193884837 5.0000502106883555 6.736653746484023 0 0 0
964 1 2 0 2.959630958883198 6.204717687689668 6.718126017637488 0 0 0
965 1 2 0 5.033800515169484 4.976573912423886 6.753574148757831 0 0 0
966 1 2 0 6.441353417535785 4.983054066347403 6.753517595013809 0 0 0
967 1 2 0 4.316356419986848 6.2895222414015 6.742629676572315 0 0 0
968 1 2 0 7.192173563232215 6.214410207016767 6.7071300986193965 0 0 0
993 1 2 0 0.8644050065018534 7.494517512330746 6.709633374720917 0 0 0
994 1 2 0 2.2500326791530663 7.454868850689748 6.689888109560671 0 0 0
997 1 2 0 5.037643339115714 7.4705011088809075 6.7148361645097046 0 0 0
998 1 2 0 6.4939146423483 7.41937054317245 6.67568540254167 0 0 0
1347 1 2 0 1.4505170875378965 1.4290996270317835 10.235201569684092 0 0 0
1348 1 2 0 4.278566608852067 1.4567694900621444 10.091054909421933 0 0 0
1351 1 2 0 5.674696315902295 1.4194524201350407 10.026929322068304 0 0 0
1377 1 2 0 2.1388413995045297 2.685748961835556 10.088572943443612 0 0 0
1378 1 2 0 3.5800706766365678 2.684269709288477 10.10767087303866 0 0 0
1379 1 2 0 1.377071373107223 3.8894540039655894 9.985330162395922 0 0 0
1380 1 2 0 4.309411015034805 3.9042429362913165 10.025005952095206 0 0 0
1381 1 2 0 6.411902512733975 2.6209701631055027 10.177991921314197 0 0 0
1383 1 2 0 5.672168961157898 3.916237648156238 10.11167439065529 0 0 0
1409 1 2 0 2.1451551962854905 5.129475337181936 9.972762663372576 0 0 0
1410 1 2 0 3.5956590140912614 5.149802079161034 10.0204128066822 0 0 0
1411 1 2 0 1.4078324368470119 6.3352165043313775 10.080016071898667 0 0 0
1412 1 2 0 4.272951776012976 6.316420547523829 10.072575097943808 0 0 0
1413 1 2 0 6.366494326150997 5.1446801731066225 10.091943451339224 0 0 0
1415 1 2 0 5.692619441256899 6.349368320922255 10.150001804009579 0 0 0
1441 1 2 0 2.1409853099567293 7.551689111134597 10.160736439916596 0 0 0
1442 1 2 0 3.5805379635832977 7.607987599786881 10.123817744359723 0 0 0
1445 1 2 0 6.4230700317885825 7.5509132138161155 10.116714492526418 0 0 0
1796 1 2 0 1.1832223828089297 1.1381329531754887 13.428210274851443 0 0 0
1799 1 2 0 2.6027760928033405 1.1598322396090757 13.51016290345089 0 0 0
1800 1 2 0 5.420684588993074 1.1324923768979764 13.437147089806798 0 0 0
1828 1 2 0 1.1233251012720937 3.6505891363368717 13.606783923912406 0 0 0
1829 1 2 0 3.354564958273492 2.412291405290425 13.465732713126599 0 0 0
1830 1 2 0 4.780917986395676 2.3708298273652937 13.461637320251532 0 0 0
1831 1 2 0 2.5629468032566076 3.645650689540556 13.477603160690572 0 0 0
1832 1 2 0 5.475324967798415 3.596787126964467 13.50593527332443 0 0 0
1860 1 2 0 1.1252679556898824 6.097927627371021 13.598748451347193 0 0 0
1861 1 2 0 3.284584919080864 4.859647640916225 13.493898909003875 0 0 0
1862 1 2 0 4.750327084609511 4.866846431070117 13.522901031537584 0 0 0
1863 1 2 0 2.5763760950598784 6.086646742107587 13.572296050189914 0 0 0
1864 1 2 0 5.456810289189545 6.1175409518223365 13.477420214944742 0 0 0
1893 1 2 0 3.2884361220856677 7.34214410853494 13.41331121875889 0 0 0
1894 1 2 0 4.719889440493594 7.371700070153587 13.46117573402637 0 0 0
1835 1 2 0 6.87732300428401 3.6139376257983065 13.545537076999869 0 0 0
1867 1 2 0 6.8785873710668275 6.094641409875544 13.70506387532852 0 0 0
1803 1 2 0 6.9202689703989 1.1356495228220247 13.431694209092012 0 0 0
1382 1 2 0 7.841721283477041 2.6646111603206197 10.224768685655128 0 0 0
1414 1 2 0 7.772915022399825 5.039526309000273 10.179049342146385 0 0 0
1446 1 2 0 7.840020557877377 7.508402938824521 10.130041981878493 0 0 0
1897 1 2 0 7.634081751536279 7.331469621681053 13.725020922923612 0 0 0
1833 1 2 0 7.568540979344889 2.392573768341976 13.482632260009385 0 0 0
1865 1 2 0 7.588191020387627 4.87118550185971 13.649466520324317 0 0 0
1826 1 2 0 0.4620673645417316 2.3730579086258095 13.429014928906263 0 0 0
1858 1 2 0 0.39727183483741285 4.855590520088405 13.673343968496042 0 0 0
1890 1 2 0 0.41542073962107295 7.278242241006252 13.557943224932956 0 0 0
1416 1 2 0 8.49722695952296 6.279296824427848 10.211539150078925 0 0 0
4315 228 10 0.21 5.758332344306303 9.52154105652639 16.130308015445546 1 0 0
2750 103 4 -0.49 9.830704050606382 8.649382626670755 16.372197665789688 1 0 0
2018 1 2 0 0.5222723940368792 17.199676151497044 13.618266627917679 0 0 0
3131 154 10 0.21 9.095230336244217 6.238921234791948 16.139028855195342 0 1 0
1352 1 2 0 8.530164267298492 1.4127872960857575 10.278495914738203 0 0 0
1384 1 2 0 8.574850352189378 3.820810696458652 10.218520316118775 0 0 0
909 1 2 0 13.581104029342518 0.126164445923565 6.789233944767128 0 0 0
2026 1 2 0 8.99964093042548 17.181910742515043 13.521831096122847 0 0 0
4332 229 11 0.13 14.474092474192261 4.429909930195935 16.26339201241225 0 1 0
3839 198 11 0.13 15.010022968077285 16.346294643420453 16.06671756944594 0 0 0
907 1 2 0 8.665176793442381 1.2031521902061997 6.731362079242459 0 0 0
939 1 2 0 8.661300295548356 3.723715412280944 6.842674099513713 0 0 0
971 1 2 0 8.623479473924617 6.145642724286724 6.727120531411111 0 0 0
1350 1 2 0 7.857793899977283 0.16285687625670095 10.205099025641635 0 0 0
4298 227 10 0.21 5.054072112060625 13.93578559982458 16.52871052960073 1 0 0
2021 1 2 0 3.285037748548088 17.18982816758602 13.52728366008244 0 0 0
4310 228 7 -0.13 4.748688577904149 9.636926722426827 16.495965796446352 1 0 0
2292 12 4 -0.49 5.565118588308296 2.856866604592094 16.24517599078907 0 1 0
1443 1 2 0 1.4956646698738307 8.76159375919217 10.225710443691101 0 0 0
999 1 2 0 4.397010626914804 8.668718969444138 6.719435860647805 0 0 0
996 1 2 0 2.935879267308684 8.71152533819999 6.7726513630159415 0 0 0
1000 1 2 0 7.205228754727891 8.690572815469006 6.74201124160137 0 0 0
1448 1 2 0 8.524448422405113 8.726554195572817 10.085169816670422 0 0 0
1447 1 2 0 5.752935577992351 8.799795846909241 10.099879947053436 0 0 0
1444 1 2 0 4.3431479641269 8.751595610909146 10.171402194817022 0 0 0
1358 1 2 0 16.37236672144356 0.11549359400846418 9.972819766710032 0 0 0
1408 1 2 0 0.014472422828781362 3.8543259044804334 10.056374865101033 1 0 0
1003 1 2 0 8.639037121268984 8.647727299837294 6.734288939029038 0 0 0
1125 1 2 0 4.951188880319233 17.17653793644077 6.779693971127175 0 0 0
4333 229 11 0.13 13.995926402225399 2.784664677061351 16.329300304558345 0 1 0
2253 4 4 -0.49 12.700181948580457 15.576610839664495 16.27899175983009 0 0 0
902 1 2 0 6.454071690303254 0.034276054041857976 6.836292602816909 0 0 0
2022 1 2 0 4.697606390787891 17.18167703384956 13.504307578766298 0 0 0
2254 4 4 -0.49 10.89975386306186 16.922648709785374 16.160082409579484 0 0 0
963 1 2 0 0.09093839511031715 6.216179530434967 6.842176027791459 0 0 0
901 1 2 0 5.046988468655163 0.08279626021594133 6.826793547532093 0 0 0
2325 18 4 -0.49 0.4902419498018764 14.694495039856621 16.419101378588888 1 0 0
2263 6 4 -0.49 14.508915157261294 7.47568084495951 16.416538638677036 0 1 0
3126 154 7 -0.13 9.444439301752979 5.323339774913313 16.593081003815925 0 1 0
3622 185 7 -0.13 0.9369291861431805 0.9337581167529204 16.368884226927143 0 1 0
2749 103 4 -0.49 8.287967002963121 10.344061018978323 16.417647299337595 1 0 0
4293 227 7 -0.13 6.123133499091504 14.061692356738703 16.61620299674745 1 0 0
2623 78 4 -0.49 0.09452999763136892 6.346508169355012 16.510952363555386 1 0 0
1422 1 2 0 16.33212808077716 5.0939436649996885 10.21832080356914 0 0 0
1843 1 2 0 15.36209441701653 3.634635128647109 13.519601615467726 0 0 0
1875 1 2 0 15.373859040195686 6.092401494072794 13.672019741067665 0 0 0
9 1 1 0 9.23 0 0 0 0 0
10 1 1 0 10.65 0 0 0 0 0
11 1 1 0 8.52 1.23 0 0 0 0
12 1 1 0 11.36 1.23 0 0 0 0
13 1 1 0 13.49 0 0 0 0 0
14 1 1 0 14.91 0 0 0 0 0
15 1 1 0 12.78 1.23 0 0 0 0
16 1 1 0 15.62 1.23 0 0 0 0
41 1 1 0 9.23 2.46 0 0 0 0
42 1 1 0 10.65 2.46 0 0 0 0
43 1 1 0 8.52 3.689 0 0 0 0
44 1 1 0 11.36 3.689 0 0 0 0
45 1 1 0 13.49 2.46 0 0 0 0
46 1 1 0 14.91 2.46 0 0 0 0
47 1 1 0 12.78 3.689 0 0 0 0
48 1 1 0 15.62 3.689 0 0 0 0
73 1 1 0 9.23 4.919 0 0 0 0
74 1 1 0 10.65 4.919 0 0 0 0
75 1 1 0 8.52 6.149 0 0 0 0
76 1 1 0 11.36 6.149 0 0 0 0
77 1 1 0 13.49 4.919 0 0 0 0
78 1 1 0 14.91 4.919 0 0 0 0
79 1 1 0 12.78 6.149 0 0 0 0
80 1 1 0 15.62 6.149 0 0 0 0
105 1 1 0 9.23 7.379 0 0 0 0
106 1 1 0 10.65 7.379 0 0 0 0
107 1 1 0 8.52 8.608 0 0 0 0
108 1 1 0 11.36 8.608 0 0 0 0
109 1 1 0 13.49 7.379 0 0 0 0
110 1 1 0 14.91 7.379 0 0 0 0
111 1 1 0 12.78 8.608 0 0 0 0
112 1 1 0 15.62 8.608 0 0 0 0
456 1 1 0 8.52 1.23 3.35 0 0 0
457 1 1 0 10.65 0 3.35 0 0 0
458 1 1 0 12.07 0 3.35 0 0 0
459 1 1 0 9.94 1.23 3.35 0 0 0
460 1 1 0 12.78 1.23 3.35 0 0 0
461 1 1 0 14.91 0 3.35 0 0 0
462 1 1 0 16.33 0 3.35 0 0 0
463 1 1 0 14.2 1.23 3.35 0 0 0
488 1 1 0 8.52 3.689 3.35 0 0 0
489 1 1 0 10.65 2.46 3.35 0 0 0
490 1 1 0 12.07 2.46 3.35 0 0 0
491 1 1 0 9.94 3.689 3.35 0 0 0
492 1 1 0 12.78 3.689 3.35 0 0 0
493 1 1 0 14.91 2.46 3.35 0 0 0
494 1 1 0 16.33 2.46 3.35 0 0 0
495 1 1 0 14.2 3.689 3.35 0 0 0
520 1 1 0 8.52 6.149 3.35 0 0 0
521 1 1 0 10.65 4.919 3.35 0 0 0
522 1 1 0 12.07 4.919 3.35 0 0 0
523 1 1 0 9.94 6.149 3.35 0 0 0
524 1 1 0 12.78 6.149 3.35 0 0 0
525 1 1 0 14.91 4.919 3.35 0 0 0
526 1 1 0 16.33 4.919 3.35 0 0 0
527 1 1 0 14.2 6.149 3.35 0 0 0
552 1 1 0 8.52 8.608 3.35 0 0 0
553 1 1 0 10.65 7.379 3.35 0 0 0
554 1 1 0 12.07 7.379 3.35 0 0 0
555 1 1 0 9.94 8.608 3.35 0 0 0
556 1 1 0 12.78 8.608 3.35 0 0 0
557 1 1 0 14.91 7.379 3.35 0 0 0
558 1 1 0 16.33 7.379 3.35 0 0 0
559 1 1 0 14.2 8.608 3.35 0 0 0
908 1 2 0 11.512395503980377 1.3286583758480328 6.827100216215953 0 0 0
911 1 2 0 12.935637548557006 1.3434528157407528 6.671160611642279 0 0 0
912 1 2 0 15.74463753370679 1.3227039972294525 6.76442801878282 0 0 0
937 1 2 0 9.328431861052058 2.5105811929591897 6.841358565076408 0 0 0
938 1 2 0 10.797056170801381 2.5176851686219255 6.854574226532259 0 0 0
940 1 2 0 11.567027151465426 3.7786054264949493 6.811903864784788 0 0 0
941 1 2 0 13.61808428053712 2.611290471413795 6.562382133407913 0 0 0
942 1 2 0 15.068183907113756 2.572098987945325 6.699978968449503 0 0 0
943 1 2 0 12.922615136824941 3.845512184575719 6.6984070040681996 0 0 0
944 1 2 0 15.770460460088934 3.8335085839766196 6.840023663673587 0 0 0
969 1 2 0 9.398134210100707 4.996895444324688 6.807478192255335 0 0 0
970 1 2 0 10.826430051825291 5.074525258074931 6.805566545101761 0 0 0
972 1 2 0 11.523808604254356 6.226772666432047 6.701294760654284 0 0 0
973 1 2 0 13.637689847077464 5.06012407034815 6.613888702332745 0 0 0
974 1 2 0 15.009220403316732 5.028378115599458 6.786543431952209 0 0 0
975 1 2 0 12.851864076649266 6.21339991444104 6.673248322214744 0 0 0
976 1 2 0 15.679991082960518 6.285285036491431 6.675829449715208 0 0 0
1001 1 2 0 9.359096630627173 7.390970683393993 6.723088368718597 0 0 0
1002 1 2 0 10.775533733572885 7.470302245773932 6.734350151382312 0 0 0
1005 1 2 0 13.580535333131314 7.443668187212254 6.625824667531088 0 0 0
1006 1 2 0 15.009023760943178 7.451810540810139 6.583178151156523 0 0 0
1355 1 2 0 9.9716168866207 1.395817826165514 10.229747646183425 0 0 0
1356 1 2 0 12.870163762570455 1.4518352079636505 10.181237393418778 0 0 0
1359 1 2 0 14.271290755939773 1.3788368789774414 10.143878034398082 0 0 0
1385 1 2 0 10.68413420681228 2.6183699299829537 10.186694929190548 0 0 0
1386 1 2 0 12.13402648740178 2.600172753246412 10.174143487500391 0 0 0
1387 1 2 0 9.993165663772254 3.849724065480303 10.203103949522783 0 0 0
1388 1 2 0 12.82526855699746 3.851583871986163 10.273023555899467 0 0 0
1389 1 2 0 14.965307919975787 2.618134117156446 10.204500357670952 0 0 0
1391 1 2 0 14.240555114118932 3.845228285378625 10.307204380982197 0 0 0
1417 1 2 0 10.715677666825359 5.0801774217881706 10.208379878907335 0 0 0
1418 1 2 0 12.133547080311594 5.1064014351648295 10.27516669201168 0 0 0
1419 1 2 0 9.95137862250612 6.289409600891789 10.220076888497292 0 0 0
1420 1 2 0 12.855604938375153 6.338994455183199 10.175669390226389 0 0 0
1421 1 2 0 14.935954852289056 5.087075207142968 10.310581505451093 0 0 0
1423 1 2 0 14.230148566386315 6.28177074703329 10.15771484620369 0 0 0
1449 1 2 0 10.679910204935203 7.493365621933439 10.262605703436497 0 0 0
1450 1 2 0 12.09465068594737 7.4780040086492185 10.17610519688296 0 0 0
1453 1 2 0 14.92208797231945 7.483155270159416 10.104917327863028 0 0 0
1804 1 2 0 9.718495647528057 1.183394847006083 13.570634244375087 0 0 0
1807 1 2 0 11.077298599641654 1.1995256413474067 13.491605644530736 0 0 0
1808 1 2 0 13.974782268768545 1.1385666384018096 13.595906565138314 0 0 0
1834 1 2 0 8.97870514932786 2.3961226969549947 13.58085606747849 0 0 0
1836 1 2 0 9.687793848569667 3.660280017581834 13.688606937661497 0 0 0
1837 1 2 0 11.75684508493911 2.4081973199150797 13.629770512241532 0 0 0
1838 1 2 0 13.247623287755427 2.388937805010597 13.600705002198065 0 0 0
1839 1 2 0 11.075354734868496 3.6510993773634643 13.626657815434037 0 0 0
1840 1 2 0 13.956788350994241 3.6419734251713676 13.547631471844062 0 0 0
1866 1 2 0 8.99267107129414 4.866911498497301 13.73239972875454 0 0 0
1868 1 2 0 9.681473704208662 6.061339566907216 13.7470230890762 0 0 0
1869 1 2 0 11.803979065862276 4.878255652393004 13.60427692149799 0 0 0
1870 1 2 0 13.245177433950811 4.863008098401727 13.550702108300271 0 0 0
1871 1 2 0 11.078457268914946 6.060602598083034 13.613236476296326 0 0 0
1872 1 2 0 13.946066984968754 6.099105047454069 13.644322120274273 0 0 0
1898 1 2 0 8.990333571121674 7.342960416045849 13.70074860038696 0 0 0
1901 1 2 0 11.790612654049584 7.344058364117196 13.674443072131236 0 0 0
1902 1 2 0 13.25432157346781 7.382514721854513 13.727905100086808 0 0 0
1811 1 2 0 15.447289959103884 1.1699556845592385 13.553016435142021 0 0 0
1390 1 2 0 16.38148166430843 2.6267669819586565 10.17220174699094 0 0 0
1454 1 2 0 16.303036407353925 7.505769552520476 10.126903882216965 0 0 0
1905 1 2 0 16.094621753466104 7.340151237119679 13.741589401718178 0 0 0
1873 1 2 0 16.0930965270725 4.866263813314288 13.616185574887282 0 0 0
1841 1 2 0 16.131470935907263 2.451029518424108 13.52937301793258 0 0 0
1008 1 2 0 15.7493003801695 8.689339446446542 6.61861756271523 0 0 0
2025 1 2 0 7.581430694715673 17.17406846757212 13.587367192692758 0 0 0
3627 185 10 0.21 1.850891109719746 0.4598938911832117 16.04250073104382 0 1 0
4686 251 11 0.13 11.362165175046533 10.781008461004806 16.05123705018402 0 0 0
910 1 2 0 14.985393290485614 0.12274590740193397 6.7012979147457274 0 0 0
4311 228 8 -0.17 4.776229213068634 7.122826375523049 16.584794045225465 1 0 0
1007 1 2 0 12.856122332544091 8.70112703967169 6.710585847865785 0 0 0
897 1 2 0 0.7896649544429043 0.0015052838500776685 6.774355690229115 0 0 0
4300 227 11 0.13 10.0554794914484 13.372645072517429 16.142017851071202 1 0 0
4318 228 11 0.13 4.079997923540779 6.291926950200027 16.470919132742722 1 0 0
2030 1 2 0 13.331195600794238 17.154851448067344 13.517167222351187 0 0 0
4678 251 7 -0.13 13.447660942846504 12.577905706028517 16.623563421968573 0 0 0
1126 1 2 0 6.374801591169497 17.212515919584707 6.803574406554653 0 0 0
3133 154 11 0.13 12.49014718806918 5.969398803377323 16.09549006021031 0 1 0
1354 1 2 0 12.124499540495954 0.21543518024027264 10.122855043687421 0 0 0
898 1 2 0 2.206290216284812 0.017641439702375455 6.71680302919082 0 0 0
931 1 2 0 0.039689872673125653 3.744669369111307 6.817952234880315 0 0 0
1059 1 2 0 0.02859139284071862 13.632833165350355 6.721933617139837 0 0 0
4683 251 10 0.21 12.556571971229523 13.177494573754313 16.510190851403287 0 0 0
2029 1 2 0 11.903159991113826 17.1418839453452 13.511436214411157 0 0 0
4684 251 11 0.13 12.205398078793326 9.33219406605648 16.24319555218082 0 0 0
899 1 2 0 0.08650442390709864 1.273883314160175 6.793623038701126 0 0 0
1065 1 2 0 9.37239587297794 12.367217521649614 6.875806729229488 0 0 0
1484 1 2 0 12.79627321851351 11.111024769435044 10.06974231190392 0 0 0
1040 1 2 0 15.692805974352819 11.21124179502272 6.815642779458186 0 0 0
1357 1 2 0 14.939832755667574 0.10134110727500377 10.007362749838652 0 0 0
1892 1 2 0 1.109857100287208 8.540416583226685 13.483487511563187 0 0 0
1899 1 2 0 6.877652342787549 8.605397571715352 13.58317297305924 0 0 0
1895 1 2 0 2.540590918400503 8.57319714379871 13.468366337155404 0 0 0
1896 1 2 0 5.47778593241626 8.574015648843885 13.513124684408549 0 0 0
1027 1 2 0 0.06117874951570168 11.133529384748565 6.704205743921936 0 0 0
1954 1 2 0 0.5029205938735977 12.28614950009297 13.651904189966993 0 0 0
129 1 1 0 0.71 9.838 0 0 0 0
130 1 1 0 2.13 9.838 0 0 0 0
131 1 1 0 0 11.068 0 0 0 0
132 1 1 0 2.84 11.068 0 0 0 0
133 1 1 0 4.97 9.838 0 0 0 0
134 1 1 0 6.39 9.838 0 0 0 0
135 1 1 0 4.26 11.068 0 0 0 0
136 1 1 0 7.1 11.068 0 0 0 0
161 1 1 0 0.71 12.298 0 0 0 0
162 1 1 0 2.13 12.298 0 0 0 0
163 1 1 0 0 13.527 0 0 0 0
164 1 1 0 2.84 13.527 0 0 0 0
165 1 1 0 4.97 12.298 0 0 0 0
166 1 1 0 6.39 12.298 0 0 0 0
167 1 1 0 4.26 13.527 0 0 0 0
168 1 1 0 7.1 13.527 0 0 0 0
193 1 1 0 0.71 14.757 0 0 0 0
194 1 1 0 2.13 14.757 0 0 0 0
195 1 1 0 0 15.987 0 0 0 0
196 1 1 0 2.84 15.987 0 0 0 0
197 1 1 0 4.97 14.757 0 0 0 0
198 1 1 0 6.39 14.757 0 0 0 0
199 1 1 0 4.26 15.987 0 0 0 0
200 1 1 0 7.1 15.987 0 0 0 0
577 1 1 0 2.13 9.838 3.35 0 0 0
578 1 1 0 3.55 9.838 3.35 0 0 0
579 1 1 0 1.42 11.068 3.35 0 0 0
580 1 1 0 4.26 11.068 3.35 0 0 0
581 1 1 0 6.39 9.838 3.35 0 0 0
582 1 1 0 7.81 9.838 3.35 0 0 0
583 1 1 0 5.68 11.068 3.35 0 0 0
608 1 1 0 0 11.068 3.35 1 0 0
609 1 1 0 2.13 12.298 3.35 0 0 0
610 1 1 0 3.55 12.298 3.35 0 0 0
611 1 1 0 1.42 13.527 3.35 0 0 0
612 1 1 0 4.26 13.527 3.35 0 0 0
613 1 1 0 6.39 12.298 3.35 0 0 0
614 1 1 0 7.81 12.298 3.35 0 0 0
615 1 1 0 5.68 13.527 3.35 0 0 0
640 1 1 0 0 13.527 3.35 1 0 0
641 1 1 0 2.13 14.757 3.35 0 0 0
642 1 1 0 3.55 14.757 3.35 0 0 0
643 1 1 0 1.42 15.987 3.35 0 0 0
644 1 1 0 4.26 15.987 3.35 0 0 0
645 1 1 0 6.39 14.757 3.35 0 0 0
646 1 1 0 7.81 14.757 3.35 0 0 0
647 1 1 0 5.68 15.987 3.35 0 0 0
672 1 1 0 0 15.987 3.35 1 0 0
1025 1 2 0 0.8099174512890794 9.975757506435649 6.731254316372647 0 0 0
1026 1 2 0 2.2381592811217823 9.925722102032026 6.770177469517465 0 0 0
1028 1 2 0 2.941682149594166 11.124404214257478 6.81888457986543 0 0 0
1029 1 2 0 5.106039573544541 9.91387887268063 6.721855145450672 0 0 0
1030 1 2 0 6.498829738416553 9.894982888550853 6.792214050242709 0 0 0
1031 1 2 0 4.373460037886668 11.137820336028982 6.8566211130260895 0 0 0
1032 1 2 0 7.172461912118206 11.144526432781113 6.829415745378064 0 0 0
1057 1 2 0 0.7776511396997031 12.36825450303972 6.71984073003708 0 0 0
1058 1 2 0 2.2241597375386717 12.327531075392882 6.805852487088208 0 0 0
1060 1 2 0 2.981490947716951 13.526741725260319 6.806536327517688 0 0 0
1061 1 2 0 5.130517005048773 12.327132387115814 6.953405068923816 0 0 0
1062 1 2 0 6.511420283491872 12.38676839577861 6.948243641063001 0 0 0
1063 1 2 0 4.35333770888495 13.56724746231422 6.920549963490468 0 0 0
1064 1 2 0 7.223228450588199 13.565183843840419 6.859987033836014 0 0 0
1089 1 2 0 0.7567900169944071 14.80694499422994 6.799805247446698 0 0 0
1090 1 2 0 2.2209190061999307 14.797130908337634 6.762392743092578 0 0 0
1092 1 2 0 2.8567056374176816 16.02527531054398 6.694205308751988 0 0 0
1093 1 2 0 5.069046398651231 14.779376434389441 6.788449842263502 0 0 0
1094 1 2 0 6.465254418201883 14.772061804437712 6.72849118985803 0 0 0
1095 1 2 0 4.288017726777764 16.00707823829073 6.708466660787801 0 0 0
1096 1 2 0 7.132751080609054 15.993863270931353 6.81210710505263 0 0 0
1473 1 2 0 2.1888710477757076 9.996286753436701 10.220931998933667 0 0 0
1474 1 2 0 3.5913212685272886 10.013046053939759 10.198717532410013 0 0 0
1475 1 2 0 1.4268429615231049 11.25652867082853 10.234437289370327 0 0 0
1476 1 2 0 4.28328137868988 11.277919524878142 10.1617853883494 0 0 0
1477 1 2 0 6.392815905505448 10.029731719164799 10.184364221039427 0 0 0
1479 1 2 0 5.702171722838083 11.229106814554212 10.218770386461763 0 0 0
1505 1 2 0 2.123017227528891 12.471698727662504 10.151400247981256 0 0 0
1506 1 2 0 3.5493761175664025 12.474631425416879 10.153948210273219 0 0 0
1507 1 2 0 1.3779456279229283 13.701183090851389 10.123119041200425 0 0 0
1508 1 2 0 4.29383135849452 13.690150876760164 10.224964834677934 0 0 0
1509 1 2 0 6.42247461082925 12.414103958162833 10.302033218633975 0 0 0
1511 1 2 0 5.719230478325897 13.694359568597081 10.243678629886993 0 0 0
1537 1 2 0 2.084003067262457 14.940810300780742 10.10938007434421 0 0 0
1538 1 2 0 3.5586415429622567 14.934233756090565 10.182969442344609 0 0 0
1539 1 2 0 1.3638311273430237 16.155577258002843 10.074052216626912 0 0 0
1540 1 2 0 4.217366634803533 16.183835321364175 10.055745527597697 0 0 0
1541 1 2 0 6.366900822748564 14.907146438607846 10.125167776427478 0 0 0
1543 1 2 0 5.679519334371335 16.10339752694174 10.126494669450334 0 0 0
1922 1 2 0 0.44238576722798 9.860652014105506 13.573391749826266 0 0 0
1924 1 2 0 1.1699278399564745 11.087020030343469 13.551834636154254 0 0 0
1925 1 2 0 3.3249571733917294 9.802713539445536 13.63403344871549 0 0 0
1926 1 2 0 4.747871032296401 9.832526402304971 13.588884569460925 0 0 0
1927 1 2 0 2.616291122309091 11.009515772712405 13.562009934089886 0 0 0
1928 1 2 0 5.477555427529729 11.10725756429606 13.566686753442216 0 0 0
1956 1 2 0 1.1768551342485416 13.502441034334307 13.55821907715489 0 0 0
1957 1 2 0 3.328237487574994 12.224521303652184 13.572064979663981 0 0 0
1958 1 2 0 4.775581733684394 12.265698643647495 13.657928644816367 0 0 0
1959 1 2 0 2.61484301687764 13.491402851294973 13.597206843884068 0 0 0
1960 1 2 0 5.4826122569273785 13.484755530235253 13.63389193743675 0 0 0
1986 1 2 0 0.5038856436045384 14.696094126408562 13.567101880980994 0 0 0
1988 1 2 0 1.1972629453913635 15.980049133922199 13.658609774421713 0 0 0
1989 1 2 0 3.340078622498834 14.722334494843142 13.603332505449508 0 0 0
1990 1 2 0 4.754619064043525 14.704055780731448 13.62147009566302 0 0 0
1991 1 2 0 2.6273931149117153 15.975608500377035 13.637195368894648 0 0 0
1992 1 2 0 5.438112142255336 15.96262383379897 13.604448333793973 0 0 0
1963 1 2 0 6.866247654351309 13.51811381405394 13.609769413754892 0 0 0
1931 1 2 0 6.904532594824457 11.101242138856554 13.609813817294754 0 0 0
1995 1 2 0 6.856595522858426 15.952923748499966 13.61379511089757 0 0 0
1478 1 2 0 7.861310852462889 9.988804575744004 10.13080403321464 0 0 0
1510 1 2 0 7.846852555589163 12.469897842227004 10.188688241592041 0 0 0
1542 1 2 0 7.817154523736581 14.922983809980934 10.148784274505386 0 0 0
1961 1 2 0 7.626400626061918 12.359837417422947 13.65776144532205 0 0 0
1993 1 2 0 7.566647857175022 14.755198702618834 13.600803044922797 0 0 0
1929 1 2 0 7.570086948463261 9.863222740633029 13.580059811145142 0 0 0
1480 1 2 0 8.521461571592818 11.210377562305263 10.080086706951942 0 0 0
1034 1 2 0 10.749960642052768 9.943421835118885 6.7897928425389695 0 0 0
1512 1 2 0 8.4666253759212 13.692202205920866 10.14023940805272 0 0 0
2322 18 4 -0.49 2.6017167029719905 15.50050867049818 16.497731748161012 1 0 0
2748 103 4 -0.49 7.589840637004079 8.05875083142888 16.413025598100564 1 0 0
1544 1 2 0 8.524858607365578 16.16633070483179 10.099474244524862 0 0 0
1067 1 2 0 8.613576513639014 13.583688141531265 6.831411492934513 0 0 0
1035 1 2 0 8.574965376215053 11.158570104042282 6.83986634027717 0 0 0
1099 1 2 0 8.56929163140095 16.026546386479367 6.860977292790899 0 0 0
1346 1 2 0 3.589449629106229 0.22346375928594872 10.066748247988878 0 0 0
1345 1 2 0 2.173003765573115 0.24187188120790779 10.118150412905507 0 0 0
4303 227 11 0.13 4.908080410946781 16.426363689748857 16.095382267441313 1 0 0
1545 1 2 0 10.688653594438682 14.851900834614511 10.126203743208187 0 0 0
2323 18 4 -0.49 2.220503118662596 13.23558025977843 16.190368874091316 1 0 0
1549 1 2 0 14.912567743271737 14.915855640198572 10.233354118469354 0 0 0
906 1 2 0 10.836668435970914 0.060973382026027846 6.820361999967671 0 0 0
4316 228 11 0.13 5.510041728714544 7.07780088767935 15.780063127304786 1 0 0
584 1 1 0 8.52 11.068 3.35 0 0 0
1004 1 2 0 11.434078624407421 8.740120162888948 6.711793453893633 0 0 0
2262 6 4 -0.49 16.604421775219524 6.389117532990453 16.284605348551743 0 1 0
137 1 1 0 9.23 9.838 0 0 0 0
995 1 2 0 0.11590646441852591 8.727861923535055 6.770956145817867 0 0 0
1515 1 2 0 9.94270497865761 13.67893271242845 10.114384696834144 0 0 0
1452 1 2 0 12.80690186935295 8.689841399065397 10.053139108055914 0 0 0
202 1 1 0 10.65 14.757 0 0 0 0
1349 1 2 0 6.403668617786173 0.16956800112569684 10.102688816620416 0 0 0