
    -----------------------------------------------------------------------
          Psi4: An Open-Source Ab Initio Electronic Structure Package
                               Psi4 1.9 release

                         Git: Rev {} zzzzzzz 


    D. G. A. Smith, L. A. Burns, A. C. Simmonett, R. M. Parrish,
    M. C. Schieber, R. Galvelis, P. Kraus, H. Kruse, R. Di Remigio,
    A. Alenaizan, A. M. James, S. Lehtola, J. P. Misiewicz, M. Scheurer,
    R. A. Shaw, J. B. Schriber, Y. Xie, Z. L. Glick, D. A. Sirianni,
    J. S. O'Brien, J. M. Waldrop, A. Kumar, E. G. Hohenstein,
    B. P. Pritchard, B. R. Brooks, H. F. Schaefer III, A. Yu. Sokolov,
    K. Patkowski, A. E. DePrince III, U. Bozkaya, R. A. King,
    F. A. Evangelista, J. M. Turney, T. D. Crawford, C. D. Sherrill,
    J. Chem. Phys. 152(18) 184108 (2020). https://doi.org/10.1063/5.0006002

                            Additional Code Authors
    E. T. Seidl, C. L. Janssen, E. F. Valeev, M. L. Leininger,
    J. F. Gonthier, R. M. Richard, H. R. McAlexander, M. Saitow, X. Wang,
    P. Verma, M. H. Lechner, A. Jiang, S. Behnle, A. G. Heide,
    M. F. Herbst, and D. L. Poole

             Previous Authors, Complete List of Code Contributors,
                       and Citations for Specific Modules
    https://github.com/psi4/psi4/blob/master/codemeta.json
    https://github.com/psi4/psi4/graphs/contributors
    http://psicode.org/psi4manual/master/introduction.html#citing-psifour

    -----------------------------------------------------------------------


    Psi4 started on: Saturday, 10 February 2024 01:32PM

    Process ID: 3610206
    Host:       n2cn0366
    PSIDATADIR: /opt/software/pc2/EB-SW/software/PSI4/1.9-foss-2022a/share/psi4
    Memory:     500.0 MiB
    Threads:    16
    
  ==> Input File <==

--------------------------------------------------------------------------
memory 80 GB # how much memory is available ! Depends on the nodes/cores !

molecule dimer {
# monomer A
+1 1    # Charge and multiplicity
C  0.680067 -1.215929 2.908042
C -0.680504 -1.215545 2.906014
N -1.085635  0.102779 2.905016
C  0.000108  0.884180 2.901740
C -2.477365  0.570758 2.855610
N  1.085222  0.102779 2.905016
H  1.385146 -2.033368 2.915870
H -1.385302 -2.033214 2.906204
H -0.000009  1.965269 2.899993
C  2.478117  0.567877 2.921908
H  2.490592  1.658130 2.894563
H  2.967028  0.220701 3.835354
H  3.001428  0.176405 2.046425
H -2.857359  0.490799 1.833539
H -3.082679 -0.042306 3.525694
H -2.518128  1.610706 3.182594
--
# monomer B
0 1     # Charge and multiplicity
C   -3.66844126402057      7.80375217008252      0.00190004133558
C   -4.84759871934653      7.13124183134024     -0.00046653359696
C   -4.89495929917518      5.69633040353158     -0.00103944469517
C   -3.65374067877320      4.98073034095895      0.00662099703436
C   -2.40942512149445      7.11398103667468      0.00209438359570
C   -2.42547734410473      5.68112195090346     -0.00491050527438
C   -1.19474401643570      7.78614419430947      0.00356656413763
C   0.03795902893699      7.09942164575698      0.00139585983271
C   0.03033258741920      5.66948955970466     -0.00408752508301
C   -1.20098450790502      4.96927034791531      0.00488220885047
C   1.27795782581485      7.77285944319479      0.00277170839332
C   2.48535808472416      7.08769688523756      0.00049722048857
C   2.48612868491717      5.65477081024076     -0.00644052849921
C   1.25408291964399      4.95607811366431      0.00518741308898
C   3.75171459140595      7.76391215098033      0.00062407186893
C   4.92356605618520      7.07878077698995     -0.00143240883900
C   4.95560727132542      5.64344746336949     -0.00159282164606
C   3.70680153420475      4.94121020833308      0.00349873852374
H   -3.65852113775815      8.89082741913536      0.00358502958574
H   -1.18921332975660      8.87412108735996      0.00753844057883
H   1.28429423888630      8.86083343548850      0.00693053253426
H   3.75354208679975      8.85103527897216      0.00214659618464
H   5.86995870320703      7.61379483465560     -0.00235777588134
H   -5.78823170750226      7.67630221293400     -0.00202638095293
C   -6.09197395869619      4.99326001364347     -0.00291168518608
C   -6.12866148031747      3.58258016879823     -0.00171050815740
C   -3.66457974004527      3.56418217974434     -0.00463560277484
C   -4.89429820469869      2.86108077590057      0.00453338221034
C   -2.43733499489796      2.84761165708481      0.00719617576166
C   -1.20922785759670      3.54788693497833     -0.00648285103018
C   1.24714157216223      3.53468075142962     -0.00729145743546
C   0.01517603956900      2.83311183930540      0.00439272578912
C   2.46764517244071      2.82128997725533      0.00449278391269
C   3.70254947457969      3.52466015442405     -0.00899517692985
C   6.14498038638375      4.92757236613191     -0.00282626685777
C   6.16658835886151      3.51658447594213     -0.00065971342101
C   4.92460995845939      2.80840792535402      0.00587903281610
H   7.08990550964105      5.46688776622306     -0.00658814770723
H   -7.03104175110130      5.54268795285765     -0.00714490013730
C   -7.33969804112295      2.85841153457957     -0.00333767559888
C   -7.36488195805880      1.47032337158330     -0.00157213747140
C   -4.90350460894690      1.44442681216000     -0.00628840166334
C   -6.13225715261081      0.73993935705394      0.00600164231964
C   -3.67687480051673      0.72669714267312      0.00433931473643
C   -2.44565658606518      1.42964113326212     -0.00597039546461
C   -1.22360068130162      0.71532450163492      0.00545886906656
C   0.00763786931376      1.41738314923765      0.00392452278437
C   1.23121980774686      0.70211669058719     -0.01490206287210
C   2.46082110053113      1.40329203612573      0.00460244601878
C   3.68443025419614      0.68719842821222      0.00377365974158
C   4.91870890153864      1.39173456118907     -0.00862816189375
C   7.36980207796101      2.77948220318441     -0.00242013321349
C   7.38016266612146      1.39121750785509     -0.00087345036788
C   6.13979953912259      0.67411862320065      0.00545489144369
H   -8.27919079934664      3.40711804112415     -0.00763522772059
H   8.31511347147953      3.31811809662368     -0.00663070901292
C   -8.59175593758115      0.72483255304480     -0.00123170985383
C   -8.59902460370342     -0.63263980622873      0.00089141472904
C   -6.13981313911873     -0.67413663715361     -0.00609792660607
C   -7.38018411213749     -1.39126618958160      0.00131813493501
C   -4.91868448025621     -1.39175501803000      0.00624257154343
C   -3.68443829568458     -0.68723731573599     -0.00478966852105
C   -2.46081704024768     -1.40334517882457      0.00575341766833
C   -1.23116201232071     -0.70217386488055     -0.00636696112346
C   -0.00756962538737     -1.41741884941102      0.00108956317991
C   1.22364771588843     -0.71527537726392      0.01109518512883
C   2.44567064933149     -1.42964328900682     -0.00065482763106
C   3.67686670284649     -0.72670743155550     -0.00479541202602
C   6.13224884641929     -0.73997883984993     -0.00632338623858
C   4.90351914550401     -1.44445752054090      0.00751768830159
C   8.59901484869081      0.63260386666793     -0.00101133422380
C   8.59174548810050     -0.72485086719319      0.00072504603735
C   7.36486276438985     -1.47033266560598      0.00049486934466
H   -9.52830597181814      1.27684744919284     -0.00270163681798
H   9.54141097460619      1.17457248844457     -0.00206336648518
C   -7.36983790976868     -2.77954514593389      0.00312634335708
C   -4.92459910905015     -2.80843725734101     -0.00460528907921
C   -6.16662249566744     -3.51665219282533      0.00169655107992
C   -3.70251035970491     -3.52468154912026      0.00571878010666
C   -2.46764698511392     -2.82132596280400     -0.00632585824990
C   -0.01513347410770     -2.83314164539971     -0.00604426974092
C   -1.24712184122656     -3.53473217556300      0.00551968366725
C   1.20924506964357     -3.54791467864352      0.00805871345849
C   2.43733602215464     -2.84764173817541     -0.00608104485234
C   4.89430234377080     -2.86112296828604     -0.00526030478103
C   3.66461525504104     -3.56421984553201      0.00761911515957
C   6.12863901474565     -3.58258405771778      0.00096495711699
C   7.33967266469532     -2.85841330737039      0.00248018319869
H   -9.54144911125902     -1.17456346666430      0.00226083090216
H   9.52826186807155     -1.27691907390448      0.00197485379837
H   -8.31516504384864     -3.31814985321231      0.00729857188773
H   8.27915514249207     -3.40714078989363      0.00681973918158
C   -6.14499418870218     -4.92764727278338      0.00302254913999
C   -3.70678334799751     -4.94126171411716     -0.00679841894792
C   -4.95559005800169     -5.64349397349412      0.00116871569699
C   -2.48612132622665     -5.65478557440947      0.00614125209662
C   -1.25405833548005     -4.95612205000132     -0.00503435388927
C   1.20101257386816     -4.96928038819302     -0.00385322963129
C   -0.03033667441341     -5.66952030313900      0.00398997003238
C   3.65375010132847     -4.98074377541453     -0.00309522988330
C   2.42549269587528     -5.68117463552727      0.00628170066869
C   6.09196561781097     -4.99325796338655      0.00325918379042
C   4.89497644461045     -5.69634842095790      0.00202298796027
H   -7.08989238804069     -5.46699984223871      0.00742531082125
H   7.03105520920009     -5.54265853633254      0.00683896355417
C   -4.92354532219813     -7.07882109967734      0.00061394679214
C   -2.48534208823777     -7.08772807792913     -0.00189594564379
C   -3.75168589177895     -7.76394715763627     -0.00170126671874
C   -0.03794895698805     -7.09946487446944     -0.00168022049625
C   -1.27795610040136     -7.77290438466689     -0.00366491325785
C   2.40944432072629     -7.11402201200282     -0.00081701968533
C   1.19474993715296     -7.78618536556242     -0.00296931056689
C   4.84762105249800     -7.13126211057943      0.00168979497423
C   3.66847160587561     -7.80378799294376     -0.00065863938960
H   -5.86994035041618     -7.61383059804164      0.00215798365757
H   5.78824962538815     -7.67633218931421      0.00281691445618
H   -3.75352693944918     -8.85107156923607     -0.00353718114765
H   -1.28430440589466     -8.86087539249706     -0.00809229711623
H   1.18922157469537     -8.87416062058945     -0.00706194725726
H   3.65854661482387     -8.89086063405326     -0.00231318081200

    units angstrom      # Angstroms are the default
    no_reorient         # Geometry fixed, default
    symmetry c1         # C1 symmetry, default
}

set {
    scf_type DF         # Density fitting, faster than exact integrals
    freeze_core True    # Freeze core electrons
    basis jun-cc-pVDZ   # Jun-cc-pVDZ basis set, recommended for sSAPT0 in https://doi.org/10.1063/1.4867135
}

energy('ssapt0')        # Compute sSAPT0 energy, includes also SAPT0
--------------------------------------------------------------------------

  Memory set to  74.506 GiB by Python driver.

Scratch directory: /tmp/
   => Loading Basis Set <=

    Name: JUN-CC-PVDZ
    Role: ORBITAL
    Keyword: BASIS
    atoms 1-2, 4-5, 10, 17-34, 41-53, 56-70, 73-89, 92-104, 109-119, 122-130 entry C          line   164 file /opt/software/pc2/EB-SW/software/PSI4/1.9-foss-2022a/share/psi4/basis/jun-cc-pvdz.gbs 
    atoms 3, 6                                                               entry N          line   198 file /opt/software/pc2/EB-SW/software/PSI4/1.9-foss-2022a/share/psi4/basis/jun-cc-pvdz.gbs 
    atoms 7-9, 11-16, 35-40, 54-55, 71-72, 90-91, 105-108, 120-121, 131-136  entry H          line    36 file /opt/software/pc2/EB-SW/software/PSI4/1.9-foss-2022a/share/psi4/basis/jun-cc-pvdz.gbs 

   => Loading Basis Set <=

    Name: JUN-CC-PVDZ
    Role: ORBITAL
    Keyword: BASIS
    atoms 1-2, 4-5, 10, 17-34, 41-53, 56-70, 73-89, 92-104, 109-119, 122-130 entry C          line   164 file /opt/software/pc2/EB-SW/software/PSI4/1.9-foss-2022a/share/psi4/basis/jun-cc-pvdz.gbs 
    atoms 3, 6                                                               entry N          line   198 file /opt/software/pc2/EB-SW/software/PSI4/1.9-foss-2022a/share/psi4/basis/jun-cc-pvdz.gbs 
    atoms 7-9, 11-16, 35-40, 54-55, 71-72, 90-91, 105-108, 120-121, 131-136  entry H          line    36 file /opt/software/pc2/EB-SW/software/PSI4/1.9-foss-2022a/share/psi4/basis/jun-cc-pvdz.gbs 


  //>>>>>>>>>>>>>>>>>>>>>>>>>>>>>>>>>>>//
  //              Dimer HF             //
  //<<<<<<<<<<<<<<<<<<<<<<<<<<<<<<<<<<<//

   => Libint2 <=

    Primary   basis highest AM E, G, H:  5, 4, 3
    Auxiliary basis highest AM E, G, H:  6, 5, 4
    Onebody   basis highest AM E, G, H:  6, 5, 4
    Solid Harmonics ordering:            gaussian

*** tstart() called on n2cn0366
*** at Sat Feb 10 13:32:13 2024

   => Loading Basis Set <=

    Name: JUN-CC-PVDZ
    Role: ORBITAL
    Keyword: BASIS
    atoms 1-2, 4-5, 10, 17-34, 41-53, 56-70, 73-89, 92-104, 109-119, 122-130 entry C          line   164 file /opt/software/pc2/EB-SW/software/PSI4/1.9-foss-2022a/share/psi4/basis/jun-cc-pvdz.gbs 
    atoms 3, 6                                                               entry N          line   198 file /opt/software/pc2/EB-SW/software/PSI4/1.9-foss-2022a/share/psi4/basis/jun-cc-pvdz.gbs 
    atoms 7-9, 11-16, 35-40, 54-55, 71-72, 90-91, 105-108, 120-121, 131-136  entry H          line    36 file /opt/software/pc2/EB-SW/software/PSI4/1.9-foss-2022a/share/psi4/basis/jun-cc-pvdz.gbs 


         ---------------------------------------------------------
                                   SCF
               by Justin Turney, Rob Parrish, Andy Simmonett
                          and Daniel G. A. Smith
                              RHF Reference
                       16 Threads,  76293 MiB Core
         ---------------------------------------------------------

  ==> Geometry <==

    Molecular point group: c1
    Full point group: C1

    Geometry (in Angstrom), charge = 1, multiplicity = 1:

       Center              X                  Y                   Z               Mass       
    ------------   -----------------  -----------------  -----------------  -----------------
         C            0.680062820275    -1.215917226251     2.686936289751    12.000000000000
         C           -0.680508179725    -1.215533226251     2.684908289751    12.000000000000
         N           -1.085639179725     0.102790773749     2.683910289751    14.003074004430
         C            0.000103820275     0.884191773749     2.680634289751    12.000000000000
         C           -2.477369179725     0.570769773749     2.634504289751    12.000000000000
         N            1.085217820275     0.102790773749     2.683910289751    14.003074004430
         H            1.385141820275    -2.033356226251     2.694764289751     1.007825032230
         H           -1.385306179725    -2.033202226251     2.685098289751     1.007825032230
         H           -0.000013179725     1.965280773749     2.678887289751     1.007825032230
         C            2.478112820275     0.567888773749     2.700802289751    12.000000000000
         H            2.490587820275     1.658141773750     2.673457289751     1.007825032230
         H            2.967023820275     0.220712773749     3.614248289751     1.007825032230
         H            3.001423820275     0.176416773749     1.825319289751     1.007825032230
         H           -2.857363179725     0.490810773749     1.612433289751     1.007825032230
         H           -3.082683179725    -0.042294226251     3.304588289751     1.007825032230
         H           -2.518132179725     1.610717773749     2.961488289751     1.007825032230
         C           -3.668445443746     7.803763943832    -0.219205668913    12.000000000000
         C           -4.847602899072     7.131253605090    -0.221572243846    12.000000000000
         C           -4.894963478901     5.696342177281    -0.222145154944    12.000000000000
         C           -3.653744858499     4.980742114708    -0.214484713215    12.000000000000
         C           -2.409429301220     7.113992810424    -0.219011326653    12.000000000000
         C           -2.425481523830     5.681133724653    -0.226016215523    12.000000000000
         C           -1.194748196161     7.786155968059    -0.217539146111    12.000000000000
         C            0.037954849212     7.099433419506    -0.219709850416    12.000000000000
         C            0.030328407694     5.669501333454    -0.225193235332    12.000000000000
         C           -1.200988687630     4.969282121665    -0.216223501398    12.000000000000
         C            1.277953646089     7.772871216944    -0.218334001856    12.000000000000
         C            2.485353904999     7.087708658987    -0.220608489760    12.000000000000
         C            2.486124505192     5.654782583990    -0.227546238748    12.000000000000
         C            1.254078739919     4.956089887414    -0.215918297160    12.000000000000
         C            3.751710411681     7.763923924730    -0.220481638380    12.000000000000
         C            4.923561876460     7.078792550739    -0.222538119088    12.000000000000
         C            4.955603091600     5.643459237119    -0.222698531895    12.000000000000
         C            3.706797354479     4.941221982083    -0.217606971725    12.000000000000
         H           -3.658525317484     8.890839192885    -0.217520680663     1.007825032230
         H           -1.189217509482     8.874132861109    -0.213567269670     1.007825032230
         H            1.284290059161     8.860845209238    -0.214175177715     1.007825032230
         H            3.753537907074     8.851047052722    -0.218959114064     1.007825032230
         H            5.869954523482     7.613806608405    -0.223463486130     1.007825032230
         H           -5.788235887228     7.676313986684    -0.223132091202     1.007825032230
         C           -6.091978138422     4.993271787393    -0.224017395435    12.000000000000
         C           -6.128665660043     3.582591942548    -0.222816218406    12.000000000000
         C           -3.664583919771     3.564193953494    -0.225741313024    12.000000000000
         C           -4.894302384424     2.861092549650    -0.216572328039    12.000000000000
         C           -2.437339174623     2.847623430834    -0.213909534487    12.000000000000
         C           -1.209232037322     3.547898708728    -0.227588561279    12.000000000000
         C            1.247137392437     3.534692525179    -0.228397167684    12.000000000000
         C            0.015171859844     2.833123613055    -0.216712984460    12.000000000000
         C            2.467640992715     2.821301751005    -0.216612926336    12.000000000000
         C            3.702545294854     3.524671928174    -0.230100887179    12.000000000000
         C            6.144976206658     4.927584139881    -0.223931977107    12.000000000000
         C            6.166584179136     3.516596249692    -0.221765423670    12.000000000000
         C            4.924605778734     2.808419699104    -0.215226677433    12.000000000000
         H            7.089901329916     5.466899539973    -0.227693857956     1.007825032230
         H           -7.031045930827     5.542699726607    -0.228250610386     1.007825032230
         C           -7.339702220848     2.858423308329    -0.224443385848    12.000000000000
         C           -7.364886137784     1.470335145333    -0.222677847720    12.000000000000
         C           -4.903508788672     1.444438585909    -0.227394111912    12.000000000000
         C           -6.132261332336     0.739951130803    -0.215104067929    12.000000000000
         C           -3.676878980242     0.726708916423    -0.216766395513    12.000000000000
         C           -2.445660765791     1.429652907012    -0.227076105714    12.000000000000
         C           -1.223604861027     0.715336275384    -0.215646841182    12.000000000000
         C            0.007633689588     1.417394922987    -0.217181187465    12.000000000000
         C            1.231215628021     0.702128464337    -0.236007773121    12.000000000000
         C            2.460816920806     1.403303809875    -0.216503264230    12.000000000000
         C            3.684426074471     0.687210201962    -0.217332050507    12.000000000000
         C            4.918704721813     1.391746334939    -0.229733872143    12.000000000000
         C            7.369797898236     2.779493976934    -0.223525843462    12.000000000000
         C            7.380158486396     1.391229281605    -0.221979160617    12.000000000000
         C            6.139795359397     0.674130396950    -0.215650818805    12.000000000000
         H           -8.279194979072     3.407129814874    -0.228740937970     1.007825032230
         H            8.315109291754     3.318129870373    -0.227736419262     1.007825032230
         C           -8.591760117307     0.724844326794    -0.222337420103    12.000000000000
         C           -8.599028783429    -0.632628032479    -0.220214295520    12.000000000000
         C           -6.139817318844    -0.674124863404    -0.227203636855    12.000000000000
         C           -7.380188291863    -1.391254415832    -0.219787575314    12.000000000000
         C           -4.918688659982    -1.391743244281    -0.214863138706    12.000000000000
         C           -3.684442475410    -0.687225541986    -0.225895378770    12.000000000000
         C           -2.460821219973    -1.403333405075    -0.215352292581    12.000000000000
         C           -1.231166192046    -0.702162091131    -0.227472671372    12.000000000000
         C           -0.007573805113    -1.417407075662    -0.220016147069    12.000000000000
         C            1.223643536163    -0.715263603514    -0.210010525120    12.000000000000
         C            2.445666469606    -1.429631515257    -0.221760537880    12.000000000000
         C            3.676862523121    -0.726695657806    -0.225901122275    12.000000000000
         C            6.132244666694    -0.739967066100    -0.227429096488    12.000000000000
         C            4.903514965779    -1.444445746791    -0.213588021947    12.000000000000
         C            8.599010668965     0.632615640417    -0.222117044473    12.000000000000
         C            8.591741308375    -0.724839093444    -0.220380664212    12.000000000000
         C            7.364858584664    -1.470320891856    -0.220610840904    12.000000000000
         H           -9.528310151544     1.276859222942    -0.223807347067     1.007825032230
         H            9.541406794881     1.174584262194    -0.223169076734     1.007825032230
         C           -7.369842089494    -2.779533372184    -0.217979366892    12.000000000000
         C           -4.924603288776    -2.808425483592    -0.225710999328    12.000000000000
         C           -6.166626675393    -3.516640419076    -0.219409159169    12.000000000000
         C           -3.702514539430    -3.524669775371    -0.215386930142    12.000000000000
         C           -2.467651164839    -2.821314189055    -0.227431568499    12.000000000000
         C           -0.015137653833    -2.833129871650    -0.227149979990    12.000000000000
         C           -1.247126020952    -3.534720401814    -0.215586026582    12.000000000000
         C            1.209240889918    -3.547902904894    -0.213046996790    12.000000000000
         C            2.437331842429    -2.847629964426    -0.227186755101    12.000000000000
         C            4.894298164045    -2.861111194537    -0.226366015030    12.000000000000
         C            3.664611075316    -3.564208071783    -0.213486595089    12.000000000000
         C            6.128634835020    -3.582572283968    -0.220140753132    12.000000000000
         C            7.339668484970    -2.858401533621    -0.218625527050    12.000000000000
         H           -9.541453290984    -1.174551692915    -0.218844879347     1.007825032230
         H            9.528257688346    -1.276907300155    -0.219130856451     1.007825032230
         H           -8.315169223574    -3.318138079463    -0.213807138361     1.007825032230
         H            8.279150962767    -3.407129016144    -0.214285971067     1.007825032230
         C           -6.144998368428    -4.927635499034    -0.218083161109    12.000000000000
         C           -3.706787527723    -4.941249940368    -0.227904129197    12.000000000000
         C           -4.955594237727    -5.643482199745    -0.219936994552    12.000000000000
         C           -2.486125505952    -5.654773800660    -0.214964458152    12.000000000000
         C           -1.254062515205    -4.956110276252    -0.226140064138    12.000000000000
         C            1.201008394143    -4.969268614444    -0.224958939880    12.000000000000
         C           -0.030340854139    -5.669508529390    -0.217115740217    12.000000000000
         C            3.653745921603    -4.980732001665    -0.224200940132    12.000000000000
         C            2.425488516150    -5.681162861778    -0.214824009580    12.000000000000
         C            6.091961438086    -4.993246189637    -0.217846526459    12.000000000000
         C            4.894972264885    -5.696336647208    -0.219082722289    12.000000000000
         H           -7.089896567766    -5.466988068489    -0.213680399428     1.007825032230
         H            7.031051029475    -5.542646762583    -0.214266746695     1.007825032230
         C           -4.923549501924    -7.078809325928    -0.220491763457    12.000000000000
         C           -2.485346267963    -7.087716304180    -0.223001655893    12.000000000000
         C           -3.751690071504    -7.763935383887    -0.222806976968    12.000000000000
         C           -0.037953136713    -7.099453100720    -0.222785930745    12.000000000000
         C           -1.277960280127    -7.772892610917    -0.224770623507    12.000000000000
         C            2.409440141001    -7.114010238253    -0.221922729934    12.000000000000
         C            1.194745757428    -7.786173591813    -0.224075020816    12.000000000000
         C            4.847616872773    -7.131250336830    -0.219415915275    12.000000000000
         C            3.668467426150    -7.803776219194    -0.221764349639    12.000000000000
         H           -5.869944530142    -7.613818824292    -0.218947726591     1.007825032230
         H            5.788245445663    -7.676320415565    -0.218288795793     1.007825032230
         H           -3.753531119175    -8.851059795487    -0.224642891397     1.007825032230
         H           -1.284308585620    -8.860863618748    -0.229198007365     1.007825032230
         H            1.189217394970    -8.874148846840    -0.228167657506     1.007825032230
         H            3.658542435098    -8.890848860304    -0.223418891061     1.007825032230

  Running in c1 symmetry.

  Rotational constants: A =      0.00068  B =      0.00068  C =      0.00035 [cm^-1]
  Rotational constants: A =     20.43684  B =     20.29843  C =     10.50436 [MHz]
  Nuclear repulsion = 18584.896748206054326

  Charge       = 1
  Multiplicity = 1
  Electrons    = 652
  Nalpha       = 326
  Nbeta        = 326

  ==> Algorithm <==

  SCF Algorithm Type is DF.
  DIIS enabled.
  MOM disabled.
  Fractional occupation disabled.
  Guess Type is SAD.
  Energy threshold   = 1.00e-08
  Density threshold  = 1.00e-08
  Integral threshold = 1.00e-12

  ==> Primary Basis <==

  Basis Set: JUN-CC-PVDZ
    Blend: JUN-CC-PVDZ
    Number of shells: 923
    Number of basis functions: 2019
    Number of Cartesian functions: 2122
    Spherical Harmonics?: true
    Max angular momentum: 2

   => Loading Basis Set <=

    Name: (JUN-CC-PVDZ AUX)
    Role: JKFIT
    Keyword: DF_BASIS_SCF
    atoms 1-2, 4-5, 10, 17-34, 41-53, 56-70, 73-89, 92-104, 109-119, 122-130 entry C          line   146 file /opt/software/pc2/EB-SW/software/PSI4/1.9-foss-2022a/share/psi4/basis/jun-cc-pvdz-jkfit.gbs 
    atoms 3, 6                                                               entry N          line   202 file /opt/software/pc2/EB-SW/software/PSI4/1.9-foss-2022a/share/psi4/basis/jun-cc-pvdz-jkfit.gbs 
    atoms 7-9, 11-16, 35-40, 54-55, 71-72, 90-91, 105-108, 120-121, 131-136  entry H          line    70 file /opt/software/pc2/EB-SW/software/PSI4/1.9-foss-2022a/share/psi4/basis/jun-cc-pvdz-jkfit.gbs 

  ==> Integral Setup <==

  ==> DiskDFJK: Density-Fitted J/K Matrices <==

    J tasked:                  Yes
    K tasked:                  Yes
    wK tasked:                  No
    OpenMP threads:             16
    Integrals threads:          16
    Memory [MiB]:            57220
    Algorithm:                Disk
    Integral Cache:           SAVE
    Schwarz Cutoff:          1E-12
    Fitting Condition:       1E-10

   => Auxiliary Basis Set <=

  Basis Set: (JUN-CC-PVDZ AUX)
    Blend: JUN-CC-PVDZ-JKFIT
    Number of shells: 3078
    Number of basis functions: 8896
    Number of Cartesian functions: 10198
    Spherical Harmonics?: true
    Max angular momentum: 3

  Minimum eigenvalue in the overlap matrix is 5.2520219050E-11.
  Reciprocal condition number of the overlap matrix is 1.9328195746E-12.
    Using canonical orthogonalization.
  Overall, 41 of 2019 possible MOs eliminated.


  ==> Pre-Iterations <==

  SCF Guess: Superposition of Atomic Densities via on-the-fly atomic UHF (no occupation information).

   -------------------------
    Irrep   Nso     Nmo    
   -------------------------
     A       2019    1978 
   -------------------------
    Total    2019    1978
   -------------------------

  ==> Iterations <==

                           Total Energy        Delta E     RMS |[F,P]|

   @DF-RHF iter SAD: -3968.47320006461450   -3.96847e+03   0.00000e+00 
   @DF-RHF iter   1: -3952.06537892975484    1.64078e+01   7.16933e-04 ADIIS/DIIS
   @DF-RHF iter   2: -3953.45483001127741   -1.38945e+00   2.34760e-04 ADIIS/DIIS
   @DF-RHF iter   3: -3953.57730819463723   -1.22478e-01   1.04433e-04 ADIIS/DIIS
   @DF-RHF iter   4: -3953.60065767270544   -2.33495e-02   4.52206e-05 DIIS
   @DF-RHF iter   5: -3953.60553966750422   -4.88199e-03   1.30535e-05 DIIS
   @DF-RHF iter   6: -3953.60610552939306   -5.65862e-04   4.99419e-06 DIIS
   @DF-RHF iter   7: -3953.60630655120713   -2.01022e-04   2.34756e-06 DIIS
   @DF-RHF iter   8: -3953.60637426170615   -6.77105e-05   1.15671e-06 DIIS
   @DF-RHF iter   9: -3953.60639425368299   -1.99920e-05   4.17781e-07 DIIS
   @DF-RHF iter  10: -3953.60639571879074   -1.46511e-06   1.87064e-07 DIIS
   @DF-RHF iter  11: -3953.60639592343296   -2.04642e-07   8.26123e-08 DIIS
   @DF-RHF iter  12: -3953.60639596611372   -4.26808e-08   3.92986e-08 DIIS
   @DF-RHF iter  13: -3953.60639598077660   -1.46629e-08   1.39922e-08 DIIS
   @DF-RHF iter  14: -3953.60639598260514   -1.82854e-09   6.38799e-09 DIIS
  Energy and wave function converged.


  ==> Post-Iterations <==

    Orbital Energies [Eh]
    ---------------------

    Doubly Occupied:                                                      

       1A    -15.775213     2A    -15.774634     3A    -11.472827  
       4A    -11.402271     5A    -11.400746     6A    -11.391223  
       7A    -11.386195     8A    -11.346542     9A    -11.346085  
      10A    -11.345651    11A    -11.345384    12A    -11.345099  
      13A    -11.344712    14A    -11.344591    15A    -11.344264  
      16A    -11.344197    17A    -11.343823    18A    -11.343426  
      19A    -11.342692    20A    -11.342494    21A    -11.342346  
      22A    -11.342132    23A    -11.341890    24A    -11.341318  
      25A    -11.341295    26A    -11.341190    27A    -11.341091  
      28A    -11.340293    29A    -11.340280    30A    -11.340154  
      31A    -11.339939    32A    -11.336996    33A    -11.336471  
      34A    -11.336294    35A    -11.336155    36A    -11.336053  
      37A    -11.336031    38A    -11.335641    39A    -11.335490  
      40A    -11.335209    41A    -11.335100    42A    -11.334533  
      43A    -11.334370    44A    -11.333417    45A    -11.333116  
      46A    -11.332980    47A    -11.332826    48A    -11.332806  
      49A    -11.332700    50A    -11.332406    51A    -11.332313  
      52A    -11.332267    53A    -11.332198    54A    -11.332059  
      55A    -11.331930    56A    -11.331808    57A    -11.331802  
      58A    -11.331717    59A    -11.331590    60A    -11.331440  
      61A    -11.331243    62A    -11.331069    63A    -11.330994  
      64A    -11.330864    65A    -11.330826    66A    -11.330757  
      67A    -11.330109    68A    -11.329796    69A    -11.329668  
      70A    -11.329648    71A    -11.329547    72A    -11.329480  
      73A    -11.329375    74A    -11.329337    75A    -11.329282  
      76A    -11.328872    77A    -11.328773    78A    -11.328466  
      79A    -11.328431    80A    -11.322917    81A    -11.322651  
      82A    -11.322617    83A    -11.322555    84A    -11.322526  
      85A    -11.322508    86A    -11.322450    87A    -11.322349  
      88A    -11.322027    89A    -11.321886    90A    -11.321568  
      91A    -11.321461    92A    -11.318896    93A    -11.318791  
      94A    -11.318757    95A    -11.318718    96A    -11.317966  
      97A    -11.317909    98A    -11.317412    99A    -11.317316  
     100A    -11.317278   101A    -11.317246   102A    -11.316491  
     103A    -11.316436   104A     -1.520960   105A     -1.376726  
     106A     -1.334854   107A     -1.316092   108A     -1.314668  
     109A     -1.294255   110A     -1.293912   111A     -1.291744  
     112A     -1.272557   113A     -1.267911   114A     -1.264908  
     115A     -1.263642   116A     -1.244623   117A     -1.244558  
     118A     -1.231536   119A     -1.230516   120A     -1.228089  
     121A     -1.214865   122A     -1.214833   123A     -1.201928  
     124A     -1.189682   125A     -1.188883   126A     -1.187743  
     127A     -1.183117   128A     -1.181215   129A     -1.180476  
     130A     -1.161323   131A     -1.161112   132A     -1.146592  
     133A     -1.146545   134A     -1.143158   135A     -1.141316  
     136A     -1.139589   137A     -1.131829   138A     -1.118396  
     139A     -1.118364   140A     -1.113014   141A     -1.108317  
     142A     -1.108185   143A     -1.100554   144A     -1.098680  
     145A     -1.097576   146A     -1.079754   147A     -1.077676  
     148A     -1.074934   149A     -1.074691   150A     -1.074271  
     151A     -1.063453   152A     -1.059674   153A     -1.043473  
     154A     -1.043406   155A     -1.026275   156A     -1.026169  
     157A     -0.982197   158A     -0.981972   159A     -0.981077  
     160A     -0.974180   161A     -0.974165   162A     -0.968370  
     163A     -0.968098   164A     -0.966791   165A     -0.964331  
     166A     -0.963727   167A     -0.962715   168A     -0.942397  
     169A     -0.941420   170A     -0.936390   171A     -0.923385  
     172A     -0.922111   173A     -0.921516   174A     -0.918433  
     175A     -0.916157   176A     -0.906058   177A     -0.905847  
     178A     -0.896933   179A     -0.896878   180A     -0.862687  
     181A     -0.858926   182A     -0.858575   183A     -0.855677  
     184A     -0.854361   185A     -0.854173   186A     -0.852473  
     187A     -0.852417   188A     -0.839462   189A     -0.835735  
     190A     -0.823589   191A     -0.806759   192A     -0.803305  
     193A     -0.799153   194A     -0.798696   195A     -0.797345  
     196A     -0.796425   197A     -0.796185   198A     -0.791992  
     199A     -0.787304   200A     -0.787022   201A     -0.770346  
     202A     -0.769967   203A     -0.762046   204A     -0.759681  
     205A     -0.757957   206A     -0.756299   207A     -0.756246  
     208A     -0.753498   209A     -0.753188   210A     -0.750943  
     211A     -0.747626   212A     -0.733917   213A     -0.729072  
     214A     -0.723561   215A     -0.723240   216A     -0.723052  
     217A     -0.721710   218A     -0.721636   219A     -0.719546  
     220A     -0.714320   221A     -0.713940   222A     -0.710743  
     223A     -0.709123   224A     -0.708369   225A     -0.708083  
     226A     -0.700676   227A     -0.694341   228A     -0.684359  
     229A     -0.684125   230A     -0.680010   231A     -0.679821  
     232A     -0.679584   233A     -0.676776   234A     -0.675289  
     235A     -0.673032   236A     -0.671660   237A     -0.671447  
     238A     -0.669766   239A     -0.669262   240A     -0.666699  
     241A     -0.666172   242A     -0.665962   243A     -0.665744  
     244A     -0.664521   245A     -0.661724   246A     -0.661606  
     247A     -0.661495   248A     -0.648417   249A     -0.645511  
     250A     -0.645353   251A     -0.643978   252A     -0.643662  
     253A     -0.642344   254A     -0.642088   255A     -0.641631  
     256A     -0.636661   257A     -0.636440   258A     -0.630785  
     259A     -0.630465   260A     -0.628194   261A     -0.626735  
     262A     -0.625421   263A     -0.621508   264A     -0.616057  
     265A     -0.614376   266A     -0.612073   267A     -0.604406  
     268A     -0.604247   269A     -0.604061   270A     -0.601545  
     271A     -0.597740   272A     -0.597677   273A     -0.588591  
     274A     -0.588402   275A     -0.585620   276A     -0.585336  
     277A     -0.578965   278A     -0.578815   279A     -0.569977  
     280A     -0.569026   281A     -0.567566   282A     -0.567304  
     283A     -0.565597   284A     -0.561606   285A     -0.550754  
     286A     -0.549645   287A     -0.546901   288A     -0.546451  
     289A     -0.544127   290A     -0.542285   291A     -0.538051  
     292A     -0.537943   293A     -0.527819   294A     -0.523069  
     295A     -0.521372   296A     -0.521021   297A     -0.515665  
     298A     -0.512744   299A     -0.503191   300A     -0.502599  
     301A     -0.480357   302A     -0.479854   303A     -0.467644  
     304A     -0.460634   305A     -0.459079   306A     -0.456694  
     307A     -0.453946   308A     -0.451725   309A     -0.425518  
     310A     -0.425305   311A     -0.422199   312A     -0.417139  
     313A     -0.413013   314A     -0.408466   315A     -0.401081  
     316A     -0.400730   317A     -0.381633   318A     -0.378356  
     319A     -0.377705   320A     -0.370941   321A     -0.356464  
     322A     -0.326956   323A     -0.326781   324A     -0.323010  
     325A     -0.276589   326A     -0.275809  

    Virtual:                                                              

     327A     -0.083207   328A     -0.082533   329A     -0.044280  
     330A     -0.041679   331A     -0.034947   332A     -0.026868  
     333A     -0.019472   334A     -0.015642   335A     -0.009165  
     336A     -0.007435   337A     -0.005931   338A     -0.005056  
     339A     -0.004997   340A     -0.004761   341A     -0.004112  
     342A     -0.003846   343A     -0.001496   344A     -0.000737  
     345A      0.000712   346A      0.001360   347A      0.003928  
     348A      0.006035   349A      0.007678   350A      0.009718  
     351A      0.010099   352A      0.012018   353A      0.012068  
     354A      0.013582   355A      0.015233   356A      0.019522  
     357A      0.020910   358A      0.023038   359A      0.023076  
     360A      0.027458   361A      0.028265   362A      0.030000  
     363A      0.032151   364A      0.033228   365A      0.033307  
     366A      0.036868   367A      0.037582   368A      0.037998  
     369A      0.038409   370A      0.038854   371A      0.039881  
     372A      0.043364   373A      0.043664   374A      0.046201  
     375A      0.046671   376A      0.047144   377A      0.047709  
     378A      0.049107   379A      0.050153   380A      0.050302  
     381A      0.050378   382A      0.051254   383A      0.055202  
     384A      0.057378   385A      0.058025   386A      0.058103  
     387A      0.060918   388A      0.063322   389A      0.064489  
     390A      0.066007   391A      0.066080   392A      0.068417  
     393A      0.070751   394A      0.071572   395A      0.072949  
     396A      0.073134   397A      0.074779   398A      0.075363  
     399A      0.076178   400A      0.079246   401A      0.080062  
     402A      0.082396   403A      0.082825   404A      0.084006  
     405A      0.084111   406A      0.084680   407A      0.087560  
     408A      0.088715   409A      0.092159   410A      0.092786  
     411A      0.096372   412A      0.098728   413A      0.099005  
     414A      0.099556   415A      0.101716   416A      0.102080  
     417A      0.103645   418A      0.104505   419A      0.104683  
     420A      0.105217   421A      0.105615   422A      0.108534  
     423A      0.109913   424A      0.110117   425A      0.111554  
     426A      0.111988   427A      0.115621   428A      0.117651  
     429A      0.120687   430A      0.124136   431A      0.124375  
     432A      0.124584   433A      0.124629   434A      0.126184  
     435A      0.130142   436A      0.130494   437A      0.130942  
     438A      0.131785   439A      0.132491   440A      0.132720  
     441A      0.134577   442A      0.135213   443A      0.138786  
     444A      0.139487   445A      0.141556   446A      0.141943  
     447A      0.143583   448A      0.143806   449A      0.143949  
     450A      0.144185   451A      0.144382   452A      0.144611  
     453A      0.147605   454A      0.147996   455A      0.149461  
     456A      0.150026   457A      0.151004   458A      0.151259  
     459A      0.151886   460A      0.153487   461A      0.153725  
     462A      0.154080   463A      0.155779   464A      0.155962  
     465A      0.156108   466A      0.160208   467A      0.160601  
     468A      0.162902   469A      0.163453   470A      0.164358  
     471A      0.166500   472A      0.168026   473A      0.168089  
     474A      0.170240   475A      0.170855   476A      0.170988  
     477A      0.171509   478A      0.172526   479A      0.173685  
     480A      0.174309   481A      0.175331   482A      0.175750  
     483A      0.176773   484A      0.178986   485A      0.180052  
     486A      0.180169   487A      0.182358   488A      0.182806  
     489A      0.184734   490A      0.186978   491A      0.189409  
     492A      0.190165   493A      0.190718   494A      0.190927  
     495A      0.191384   496A      0.191653   497A      0.193084  
     498A      0.197475   499A      0.197709   500A      0.198678  
     501A      0.199207   502A      0.201077   503A      0.202070  
     504A      0.202921   505A      0.203055   506A      0.204962  
     507A      0.206714   508A      0.207029   509A      0.209146  
     510A      0.209318   511A      0.209536   512A      0.210491  
     513A      0.210740   514A      0.211356   515A      0.212252  
     516A      0.212913   517A      0.214537   518A      0.214948  
     519A      0.215715   520A      0.218113   521A      0.218697  
     522A      0.219965   523A      0.220679   524A      0.224072  
     525A      0.224618   526A      0.224671   527A      0.225247  
     528A      0.226528   529A      0.227425   530A      0.228088  
     531A      0.228631   532A      0.230443   533A      0.233281  
     534A      0.233610   535A      0.233888   536A      0.234665  
     537A      0.235836   538A      0.238002   539A      0.239415  
     540A      0.239644   541A      0.240287   542A      0.242291  
     543A      0.242757   544A      0.243399   545A      0.245456  
     546A      0.245835   547A      0.247140   548A      0.248575  
     549A      0.250802   550A      0.252065   551A      0.252529  
     552A      0.253671   553A      0.254337   554A      0.255014  
     555A      0.255893   556A      0.256337   557A      0.256963  
     558A      0.257763   559A      0.258299   560A      0.259109  
     561A      0.259469   562A      0.260889   563A      0.261800  
     564A      0.262936   565A      0.263510   566A      0.264836  
     567A      0.265482   568A      0.265873   569A      0.267242  
     570A      0.268826   571A      0.269246   572A      0.269572  
     573A      0.270184   574A      0.271186   575A      0.271883  
     576A      0.272194   577A      0.273362   578A      0.273670  
     579A      0.276223   580A      0.277197   581A      0.278689  
     582A      0.279861   583A      0.280535   584A      0.281981  
     585A      0.283597   586A      0.284175   587A      0.285192  
     588A      0.286197   589A      0.286647   590A      0.286805  
     591A      0.288174   592A      0.288871   593A      0.289575  
     594A      0.291266   595A      0.292036   596A      0.292871  
     597A      0.294723   598A      0.295076   599A      0.295650  
     600A      0.295772   601A      0.296130   602A      0.297451  
     603A      0.298386   604A      0.300511   605A      0.301806  
     606A      0.302747   607A      0.303054   608A      0.304527  
     609A      0.307357   610A      0.307571   611A      0.308120  
     612A      0.309469   613A      0.311249   614A      0.312202  
     615A      0.313377   616A      0.313660   617A      0.315107  
     618A      0.316539   619A      0.317036   620A      0.317607  
     621A      0.317807   622A      0.318225   623A      0.318485  
     624A      0.319180   625A      0.321111   626A      0.321672  
     627A      0.323725   628A      0.325631   629A      0.325986  
     630A      0.326899   631A      0.327918   632A      0.328474  
     633A      0.328910   634A      0.330164   635A      0.330835  
     636A      0.330953   637A      0.333129   638A      0.333633  
     639A      0.334454   640A      0.334970   641A      0.336921  
     642A      0.337612   643A      0.337873   644A      0.338420  
     645A      0.339007   646A      0.339742   647A      0.340138  
     648A      0.340568   649A      0.340842   650A      0.342573  
     651A      0.343195   652A      0.343313   653A      0.344250  
     654A      0.345031   655A      0.345882   656A      0.346194  
     657A      0.347915   658A      0.348787   659A      0.350033  
     660A      0.352840   661A      0.353132   662A      0.353311  
     663A      0.354582   664A      0.355365   665A      0.356166  
     666A      0.357323   667A      0.358634   668A      0.359125  
     669A      0.360667   670A      0.361359   671A      0.362043  
     672A      0.362891   673A      0.364275   674A      0.364674  
     675A      0.365395   676A      0.366022   677A      0.366888  
     678A      0.367582   679A      0.370394   680A      0.371926  
     681A      0.372168   682A      0.373921   683A      0.375404  
     684A      0.376426   685A      0.377059   686A      0.377224  
     687A      0.378245   688A      0.381083   689A      0.381595  
     690A      0.383966   691A      0.385188   692A      0.386152  
     693A      0.386448   694A      0.386860   695A      0.387507  
     696A      0.388211   697A      0.388670   698A      0.389656  
     699A      0.389909   700A      0.390476   701A      0.390731  
     702A      0.393685   703A      0.395379   704A      0.396878  
     705A      0.398113   706A      0.398757   707A      0.399718  
     708A      0.399992   709A      0.401245   710A      0.402056  
     711A      0.402392   712A      0.402892   713A      0.403646  
     714A      0.404453   715A      0.406296   716A      0.407332  
     717A      0.408249   718A      0.408404   719A      0.409014  
     720A      0.409733   721A      0.410613   722A      0.411621  
     723A      0.414668   724A      0.415163   725A      0.416223  
     726A      0.417739   727A      0.418428   728A      0.419444  
     729A      0.420156   730A      0.421139   731A      0.423117  
     732A      0.424119   733A      0.424420   734A      0.426803  
     735A      0.427572   736A      0.428520   737A      0.429594  
     738A      0.429900   739A      0.430621   740A      0.431246  
     741A      0.432503   742A      0.435132   743A      0.436131  
     744A      0.436748   745A      0.437485   746A      0.438330  
     747A      0.439404   748A      0.439868   749A      0.440240  
     750A      0.442269   751A      0.443054   752A      0.443261  
     753A      0.446537   754A      0.448170   755A      0.449893  
     756A      0.451132   757A      0.452163   758A      0.453374  
     759A      0.453923   760A      0.456095   761A      0.456691  
     762A      0.457192   763A      0.458308   764A      0.459219  
     765A      0.460183   766A      0.461284   767A      0.461426  
     768A      0.463407   769A      0.465748   770A      0.467755  
     771A      0.468983   772A      0.469348   773A      0.470693  
     774A      0.472553   775A      0.473641   776A      0.474502  
     777A      0.474867   778A      0.475941   779A      0.479093  
     780A      0.481698   781A      0.482813   782A      0.486609  
     783A      0.489473   784A      0.492070   785A      0.492525  
     786A      0.494626   787A      0.495342   788A      0.495892  
     789A      0.496970   790A      0.500450   791A      0.501637  
     792A      0.504963   793A      0.506357   794A      0.506940  
     795A      0.508185   796A      0.509128   797A      0.509509  
     798A      0.510012   799A      0.510952   800A      0.512514  
     801A      0.513726   802A      0.515968   803A      0.516927  
     804A      0.517616   805A      0.519152   806A      0.521793  
     807A      0.522617   808A      0.523195   809A      0.525109  
     810A      0.528096   811A      0.529141   812A      0.530679  
     813A      0.531959   814A      0.533454   815A      0.535076  
     816A      0.535252   817A      0.536919   818A      0.537726  
     819A      0.541891   820A      0.542508   821A      0.546223  
     822A      0.546728   823A      0.551278   824A      0.551799  
     825A      0.552864   826A      0.554202   827A      0.555332  
     828A      0.560490   829A      0.563562   830A      0.566376  
     831A      0.569159   832A      0.569896   833A      0.577567  
     834A      0.578295   835A      0.581599   836A      0.584763  
     837A      0.585900   838A      0.588043   839A      0.589414  
     840A      0.589540   841A      0.592181   842A      0.595919  
     843A      0.597960   844A      0.601674   845A      0.602492  
     846A      0.606021   847A      0.608431   848A      0.609715  
     849A      0.614102   850A      0.615267   851A      0.617230  
     852A      0.619091   853A      0.621181   854A      0.621990  
     855A      0.624779   856A      0.627079   857A      0.628122  
     858A      0.629973   859A      0.634460   860A      0.634719  
     861A      0.637319   862A      0.641145   863A      0.641646  
     864A      0.650847   865A      0.656431   866A      0.656621  
     867A      0.663954   868A      0.668970   869A      0.670174  
     870A      0.672035   871A      0.672379   872A      0.674701  
     873A      0.678553   874A      0.679654   875A      0.681891  
     876A      0.683041   877A      0.689501   878A      0.704630  
     879A      0.712441   880A      0.715529   881A      0.718291  
     882A      0.718524   883A      0.719030   884A      0.721705  
     885A      0.724484   886A      0.724745   887A      0.728315  
     888A      0.734174   889A      0.735442   890A      0.740823  
     891A      0.741364   892A      0.744444   893A      0.745706  
     894A      0.749935   895A      0.750938   896A      0.753680  
     897A      0.754505   898A      0.756783   899A      0.758624  
     900A      0.760378   901A      0.764093   902A      0.765590  
     903A      0.766636   904A      0.768793   905A      0.771313  
     906A      0.773962   907A      0.774379   908A      0.778167  
     909A      0.779898   910A      0.781910   911A      0.783657  
     912A      0.785588   913A      0.788564   914A      0.790226  
     915A      0.791305   916A      0.793779   917A      0.795126  
     918A      0.795698   919A      0.799791   920A      0.801820  
     921A      0.803339   922A      0.804533   923A      0.805771  
     924A      0.806119   925A      0.808931   926A      0.810981  
     927A      0.811944   928A      0.812329   929A      0.814580  
     930A      0.817213   931A      0.818289   932A      0.819794  
     933A      0.821479   934A      0.821796   935A      0.822949  
     936A      0.824057   937A      0.824425   938A      0.826475  
     939A      0.828541   940A      0.833221   941A      0.833515  
     942A      0.836006   943A      0.837959   944A      0.839097  
     945A      0.839995   946A      0.841380   947A      0.844154  
     948A      0.846208   949A      0.848751   950A      0.850343  
     951A      0.850550   952A      0.852173   953A      0.852405  
     954A      0.853003   955A      0.853848   956A      0.854845  
     957A      0.856204   958A      0.858981   959A      0.860329  
     960A      0.862421   961A      0.863355   962A      0.864590  
     963A      0.866812   964A      0.869060   965A      0.870007  
     966A      0.870744   967A      0.873523   968A      0.874631  
     969A      0.876106   970A      0.878124   971A      0.879169  
     972A      0.879863   973A      0.881034   974A      0.882659  
     975A      0.884101   976A      0.886167   977A      0.886830  
     978A      0.887636   979A      0.887940   980A      0.888894  
     981A      0.890737   982A      0.892992   983A      0.894208  
     984A      0.895309   985A      0.898339   986A      0.900482  
     987A      0.902146   988A      0.904014   989A      0.904499  
     990A      0.906268   991A      0.908942   992A      0.913831  
     993A      0.916228   994A      0.918651   995A      0.919932  
     996A      0.922845   997A      0.923783   998A      0.924037  
     999A      0.924870  1000A      0.927258  1001A      0.927887  
    1002A      0.930180  1003A      0.931524  1004A      0.933399  
    1005A      0.935429  1006A      0.936699  1007A      0.938332  
    1008A      0.939181  1009A      0.941753  1010A      0.943767  
    1011A      0.943987  1012A      0.946313  1013A      0.946924  
    1014A      0.949254  1015A      0.949386  1016A      0.950399  
    1017A      0.951116  1018A      0.955357  1019A      0.956159  
    1020A      0.957200  1021A      0.959758  1022A      0.961247  
    1023A      0.962053  1024A      0.964063  1025A      0.965082  
    1026A      0.966941  1027A      0.967193  1028A      0.968633  
    1029A      0.970016  1030A      0.971812  1031A      0.972850  
    1032A      0.975574  1033A      0.976550  1034A      0.977178  
    1035A      0.978044  1036A      0.979201  1037A      0.979629  
    1038A      0.981970  1039A      0.982615  1040A      0.983927  
    1041A      0.985359  1042A      0.986436  1043A      0.986909  
    1044A      0.989981  1045A      0.990754  1046A      0.992171  
    1047A      0.993405  1048A      0.993605  1049A      0.994610  
    1050A      0.996443  1051A      0.996830  1052A      0.998589  
    1053A      0.999330  1054A      1.000547  1055A      1.001935  
    1056A      1.003201  1057A      1.003329  1058A      1.004175  
    1059A      1.004898  1060A      1.005771  1061A      1.006565  
    1062A      1.007361  1063A      1.008369  1064A      1.008728  
    1065A      1.009938  1066A      1.010174  1067A      1.010457  
    1068A      1.011614  1069A      1.011736  1070A      1.012377  
    1071A      1.013345  1072A      1.015939  1073A      1.016619  
    1074A      1.017728  1075A      1.017999  1076A      1.019591  
    1077A      1.020076  1078A      1.020383  1079A      1.021850  
    1080A      1.022427  1081A      1.023069  1082A      1.023316  
    1083A      1.026621  1084A      1.027627  1085A      1.028830  
    1086A      1.029126  1087A      1.032544  1088A      1.032990  
    1089A      1.033437  1090A      1.036323  1091A      1.037777  
    1092A      1.037890  1093A      1.038600  1094A      1.040575  
    1095A      1.042702  1096A      1.044182  1097A      1.045175  
    1098A      1.047653  1099A      1.048995  1100A      1.049846  
    1101A      1.051517  1102A      1.053669  1103A      1.055099  
    1104A      1.055895  1105A      1.058287  1106A      1.059668  
    1107A      1.060729  1108A      1.062199  1109A      1.063562  
    1110A      1.064988  1111A      1.066839  1112A      1.068572  
    1113A      1.070457  1114A      1.074241  1115A      1.075484  
    1116A      1.076040  1117A      1.078300  1118A      1.080646  
    1119A      1.081490  1120A      1.084132  1121A      1.084393  
    1122A      1.086719  1123A      1.088440  1124A      1.088745  
    1125A      1.089740  1126A      1.092184  1127A      1.094803  
    1128A      1.095189  1129A      1.096419  1130A      1.097803  
    1131A      1.099350  1132A      1.100290  1133A      1.102780  
    1134A      1.104487  1135A      1.106681  1136A      1.108790  
    1137A      1.111534  1138A      1.114178  1139A      1.115998  
    1140A      1.118973  1141A      1.119818  1142A      1.121426  
    1143A      1.125742  1144A      1.127912  1145A      1.131482  
    1146A      1.132286  1147A      1.137116  1148A      1.139461  
    1149A      1.139894  1150A      1.142216  1151A      1.143597  
    1152A      1.144895  1153A      1.148719  1154A      1.149067  
    1155A      1.151708  1156A      1.153249  1157A      1.154133  
    1158A      1.155533  1159A      1.157496  1160A      1.158783  
    1161A      1.163373  1162A      1.165662  1163A      1.168034  
    1164A      1.170703  1165A      1.172045  1166A      1.173371  
    1167A      1.173619  1168A      1.176157  1169A      1.182161  
    1170A      1.182957  1171A      1.183569  1172A      1.188481  
    1173A      1.190116  1174A      1.190816  1175A      1.192692  
    1176A      1.193719  1177A      1.196078  1178A      1.197076  
    1179A      1.200015  1180A      1.204086  1181A      1.207628  
    1182A      1.209048  1183A      1.213701  1184A      1.215710  
    1185A      1.218912  1186A      1.219287  1187A      1.219627  
    1188A      1.220642  1189A      1.222900  1190A      1.224979  
    1191A      1.226477  1192A      1.227906  1193A      1.228278  
    1194A      1.229783  1195A      1.231259  1196A      1.233372  
    1197A      1.238863  1198A      1.239550  1199A      1.242374  
    1200A      1.244398  1201A      1.245293  1202A      1.247998  
    1203A      1.249860  1204A      1.250110  1205A      1.250979  
    1206A      1.251876  1207A      1.252709  1208A      1.254129  
    1209A      1.257355  1210A      1.260291  1211A      1.262379  
    1212A      1.263523  1213A      1.264551  1214A      1.266000  
    1215A      1.267889  1216A      1.269177  1217A      1.271510  
    1218A      1.271937  1219A      1.272975  1220A      1.273714  
    1221A      1.276103  1222A      1.280811  1223A      1.281924  
    1224A      1.283278  1225A      1.288720  1226A      1.289628  
    1227A      1.294616  1228A      1.294865  1229A      1.295679  
    1230A      1.296261  1231A      1.298205  1232A      1.299277  
    1233A      1.303488  1234A      1.304466  1235A      1.306336  
    1236A      1.307051  1237A      1.309089  1238A      1.310322  
    1239A      1.315384  1240A      1.319378  1241A      1.324136  
    1242A      1.325137  1243A      1.325548  1244A      1.327985  
    1245A      1.328840  1246A      1.330485  1247A      1.332392  
    1248A      1.333965  1249A      1.338751  1250A      1.339756  
    1251A      1.342891  1252A      1.343243  1253A      1.347971  
    1254A      1.349310  1255A      1.349385  1256A      1.350842  
    1257A      1.352625  1258A      1.354181  1259A      1.356577  
    1260A      1.358682  1261A      1.361320  1262A      1.361860  
    1263A      1.362972  1264A      1.363814  1265A      1.365368  
    1266A      1.366749  1267A      1.368862  1268A      1.369380  
    1269A      1.372251  1270A      1.374713  1271A      1.377781  
    1272A      1.379317  1273A      1.381581  1274A      1.383535  
    1275A      1.384410  1276A      1.386286  1277A      1.387064  
    1278A      1.390941  1279A      1.392414  1280A      1.395140  
    1281A      1.395954  1282A      1.402463  1283A      1.402702  
    1284A      1.405616  1285A      1.406979  1286A      1.409101  
    1287A      1.411942  1288A      1.415546  1289A      1.418017  
    1290A      1.419147  1291A      1.419752  1292A      1.422306  
    1293A      1.424353  1294A      1.431785  1295A      1.433313  
    1296A      1.435054  1297A      1.436763  1298A      1.438923  
    1299A      1.443953  1300A      1.446710  1301A      1.451252  
    1302A      1.459129  1303A      1.461651  1304A      1.463117  
    1305A      1.467573  1306A      1.472855  1307A      1.476343  
    1308A      1.478603  1309A      1.482569  1310A      1.485132  
    1311A      1.486203  1312A      1.490099  1313A      1.504799  
    1314A      1.510611  1315A      1.513942  1316A      1.519662  
    1317A      1.524669  1318A      1.528023  1319A      1.532445  
    1320A      1.533815  1321A      1.538512  1322A      1.539215  
    1323A      1.540516  1324A      1.540786  1325A      1.543536  
    1326A      1.544524  1327A      1.546256  1328A      1.546598  
    1329A      1.548591  1330A      1.550513  1331A      1.551243  
    1332A      1.551591  1333A      1.556813  1334A      1.557290  
    1335A      1.559624  1336A      1.560910  1337A      1.561615  
    1338A      1.563061  1339A      1.563913  1340A      1.566050  
    1341A      1.567227  1342A      1.567955  1343A      1.570963  
    1344A      1.572352  1345A      1.572636  1346A      1.574764  
    1347A      1.578548  1348A      1.579546  1349A      1.580735  
    1350A      1.581635  1351A      1.584097  1352A      1.585938  
    1353A      1.586741  1354A      1.587254  1355A      1.589514  
    1356A      1.589948  1357A      1.590718  1358A      1.592655  
    1359A      1.595442  1360A      1.597157  1361A      1.599353  
    1362A      1.600780  1363A      1.603436  1364A      1.603823  
    1365A      1.606717  1366A      1.607694  1367A      1.610322  
    1368A      1.616267  1369A      1.616980  1370A      1.618900  
    1371A      1.620687  1372A      1.622638  1373A      1.623232  
    1374A      1.628259  1375A      1.631648  1376A      1.632543  
    1377A      1.634429  1378A      1.636366  1379A      1.637782  
    1380A      1.640500  1381A      1.644155  1382A      1.645425  
    1383A      1.646795  1384A      1.647142  1385A      1.648979  
    1386A      1.653397  1387A      1.654851  1388A      1.658271  
    1389A      1.662035  1390A      1.663211  1391A      1.667630  
    1392A      1.669877  1393A      1.672786  1394A      1.676421  
    1395A      1.677671  1396A      1.678890  1397A      1.682702  
    1398A      1.683456  1399A      1.689211  1400A      1.693413  
    1401A      1.695549  1402A      1.702001  1403A      1.703216  
    1404A      1.709878  1405A      1.714745  1406A      1.718816  
    1407A      1.720505  1408A      1.721735  1409A      1.723128  
    1410A      1.724910  1411A      1.733588  1412A      1.739489  
    1413A      1.741488  1414A      1.750316  1415A      1.751767  
    1416A      1.753172  1417A      1.757448  1418A      1.758717  
    1419A      1.759318  1420A      1.761950  1421A      1.763799  
    1422A      1.764727  1423A      1.766278  1424A      1.768258  
    1425A      1.768855  1426A      1.770572  1427A      1.773893  
    1428A      1.777091  1429A      1.778213  1430A      1.782763  
    1431A      1.784751  1432A      1.788012  1433A      1.788537  
    1434A      1.790030  1435A      1.790417  1436A      1.791885  
    1437A      1.794417  1438A      1.798356  1439A      1.798862  
    1440A      1.801250  1441A      1.802978  1442A      1.805618  
    1443A      1.807260  1444A      1.810573  1445A      1.810757  
    1446A      1.811992  1447A      1.813715  1448A      1.813871  
    1449A      1.816189  1450A      1.818390  1451A      1.818484  
    1452A      1.820986  1453A      1.822656  1454A      1.822905  
    1455A      1.825463  1456A      1.828588  1457A      1.832141  
    1458A      1.833135  1459A      1.837272  1460A      1.840546  
    1461A      1.841964  1462A      1.842785  1463A      1.844769  
    1464A      1.848756  1465A      1.848925  1466A      1.850207  
    1467A      1.852279  1468A      1.855038  1469A      1.856558  
    1470A      1.859513  1471A      1.859834  1472A      1.863421  
    1473A      1.866218  1474A      1.866923  1475A      1.871139  
    1476A      1.871972  1477A      1.874232  1478A      1.875811  
    1479A      1.876725  1480A      1.877615  1481A      1.879293  
    1482A      1.882721  1483A      1.883941  1484A      1.886317  
    1485A      1.890485  1486A      1.892098  1487A      1.892597  
    1488A      1.893943  1489A      1.896234  1490A      1.898518  
    1491A      1.899642  1492A      1.900080  1493A      1.901870  
    1494A      1.903587  1495A      1.904349  1496A      1.906197  
    1497A      1.909681  1498A      1.911105  1499A      1.914126  
    1500A      1.915264  1501A      1.917410  1502A      1.921277  
    1503A      1.922891  1504A      1.928275  1505A      1.929017  
    1506A      1.930024  1507A      1.931417  1508A      1.935847  
    1509A      1.937506  1510A      1.939963  1511A      1.940392  
    1512A      1.941267  1513A      1.943395  1514A      1.944908  
    1515A      1.945565  1516A      1.948734  1517A      1.950696  
    1518A      1.952470  1519A      1.954366  1520A      1.954672  
    1521A      1.957795  1522A      1.958532  1523A      1.958974  
    1524A      1.962568  1525A      1.963663  1526A      1.966419  
    1527A      1.968068  1528A      1.969516  1529A      1.970283  
    1530A      1.972959  1531A      1.975105  1532A      1.978063  
    1533A      1.978251  1534A      1.979264  1535A      1.980952  
    1536A      1.983234  1537A      1.985571  1538A      1.987941  
    1539A      1.989870  1540A      1.991075  1541A      1.992472  
    1542A      1.995785  1543A      1.997792  1544A      2.000271  
    1545A      2.001356  1546A      2.002023  1547A      2.004102  
    1548A      2.008482  1549A      2.008730  1550A      2.010114  
    1551A      2.010838  1552A      2.011780  1553A      2.012406  
    1554A      2.013267  1555A      2.015362  1556A      2.016509  
    1557A      2.017730  1558A      2.018707  1559A      2.019438  
    1560A      2.020002  1561A      2.021289  1562A      2.023381  
    1563A      2.023498  1564A      2.024654  1565A      2.026486  
    1566A      2.027330  1567A      2.027776  1568A      2.028663  
    1569A      2.030247  1570A      2.031291  1571A      2.033851  
    1572A      2.035850  1573A      2.036896  1574A      2.038752  
    1575A      2.040118  1576A      2.042688  1577A      2.043637  
    1578A      2.044263  1579A      2.045617  1580A      2.046247  
    1581A      2.048799  1582A      2.051597  1583A      2.052257  
    1584A      2.053901  1585A      2.054500  1586A      2.055866  
    1587A      2.058607  1588A      2.061271  1589A      2.061765  
    1590A      2.062319  1591A      2.062553  1592A      2.065133  
    1593A      2.066668  1594A      2.068948  1595A      2.069350  
    1596A      2.070229  1597A      2.072195  1598A      2.074412  
    1599A      2.074990  1600A      2.077045  1601A      2.077427  
    1602A      2.080007  1603A      2.082889  1604A      2.086042  
    1605A      2.087738  1606A      2.089724  1607A      2.090889  
    1608A      2.092813  1609A      2.093760  1610A      2.096151  
    1611A      2.097027  1612A      2.099809  1613A      2.101949  
    1614A      2.103776  1615A      2.105691  1616A      2.106938  
    1617A      2.110172  1618A      2.111617  1619A      2.113494  
    1620A      2.115959  1621A      2.116981  1622A      2.118361  
    1623A      2.121058  1624A      2.121638  1625A      2.124759  
    1626A      2.125323  1627A      2.127735  1628A      2.129975  
    1629A      2.130830  1630A      2.132791  1631A      2.134514  
    1632A      2.135740  1633A      2.137180  1634A      2.138251  
    1635A      2.140772  1636A      2.142519  1637A      2.144574  
    1638A      2.145172  1639A      2.146617  1640A      2.150523  
    1641A      2.154135  1642A      2.154665  1643A      2.155549  
    1644A      2.156729  1645A      2.159482  1646A      2.160467  
    1647A      2.162399  1648A      2.165629  1649A      2.166088  
    1650A      2.167126  1651A      2.168832  1652A      2.169303  
    1653A      2.171303  1654A      2.175298  1655A      2.179077  
    1656A      2.179764  1657A      2.182872  1658A      2.184205  
    1659A      2.187190  1660A      2.194774  1661A      2.198481  
    1662A      2.203430  1663A      2.204196  1664A      2.206104  
    1665A      2.207527  1666A      2.210622  1667A      2.212150  
    1668A      2.213747  1669A      2.216769  1670A      2.218000  
    1671A      2.222029  1672A      2.222809  1673A      2.224514  
    1674A      2.229007  1675A      2.230616  1676A      2.231746  
    1677A      2.238644  1678A      2.243999  1679A      2.245631  
    1680A      2.247403  1681A      2.249860  1682A      2.253860  
    1683A      2.255525  1684A      2.259524  1685A      2.260439  
    1686A      2.261155  1687A      2.263740  1688A      2.264219  
    1689A      2.265277  1690A      2.267168  1691A      2.269215  
    1692A      2.270977  1693A      2.271678  1694A      2.272590  
    1695A      2.274345  1696A      2.276856  1697A      2.278532  
    1698A      2.279351  1699A      2.282548  1700A      2.283697  
    1701A      2.288723  1702A      2.300984  1703A      2.307607  
    1704A      2.311222  1705A      2.314444  1706A      2.316267  
    1707A      2.322100  1708A      2.323873  1709A      2.327789  
    1710A      2.332379  1711A      2.341038  1712A      2.343405  
    1713A      2.347557  1714A      2.349142  1715A      2.353448  
    1716A      2.355447  1717A      2.358790  1718A      2.362724  
    1719A      2.368705  1720A      2.372634  1721A      2.379923  
    1722A      2.383680  1723A      2.386301  1724A      2.387509  
    1725A      2.393726  1726A      2.396364  1727A      2.397541  
    1728A      2.399755  1729A      2.402498  1730A      2.402735  
    1731A      2.407059  1732A      2.413907  1733A      2.421659  
    1734A      2.427068  1735A      2.431722  1736A      2.436913  
    1737A      2.443256  1738A      2.444547  1739A      2.447714  
    1740A      2.449263  1741A      2.460527  1742A      2.466445  
    1743A      2.469559  1744A      2.472224  1745A      2.474363  
    1746A      2.476715  1747A      2.477609  1748A      2.481029  
    1749A      2.481833  1750A      2.483838  1751A      2.485357  
    1752A      2.488113  1753A      2.489255  1754A      2.491148  
    1755A      2.495568  1756A      2.501534  1757A      2.505024  
    1758A      2.506634  1759A      2.516231  1760A      2.518142  
    1761A      2.520681  1762A      2.520931  1763A      2.522267  
    1764A      2.523347  1765A      2.524964  1766A      2.528707  
    1767A      2.531142  1768A      2.534449  1769A      2.538768  
    1770A      2.544001  1771A      2.545512  1772A      2.547117  
    1773A      2.548475  1774A      2.550313  1775A      2.557292  
    1776A      2.564485  1777A      2.568041  1778A      2.571831  
    1779A      2.577395  1780A      2.579411  1781A      2.581639  
    1782A      2.582795  1783A      2.584132  1784A      2.587357  
    1785A      2.588740  1786A      2.590475  1787A      2.591086  
    1788A      2.594852  1789A      2.597709  1790A      2.599085  
    1791A      2.603517  1792A      2.604627  1793A      2.605900  
    1794A      2.607759  1795A      2.614856  1796A      2.616384  
    1797A      2.619184  1798A      2.619888  1799A      2.622106  
    1800A      2.623488  1801A      2.624076  1802A      2.626162  
    1803A      2.629035  1804A      2.630603  1805A      2.633887  
    1806A      2.636282  1807A      2.638236  1808A      2.651323  
    1809A      2.659399  1810A      2.660301  1811A      2.662537  
    1812A      2.663657  1813A      2.670685  1814A      2.682116  
    1815A      2.693402  1816A      2.697948  1817A      2.709508  
    1818A      2.713704  1819A      2.716449  1820A      2.719523  
    1821A      2.724921  1822A      2.726509  1823A      2.727929  
    1824A      2.729703  1825A      2.730237  1826A      2.735146  
    1827A      2.739994  1828A      2.741705  1829A      2.743648  
    1830A      2.747654  1831A      2.750649  1832A      2.754236  
    1833A      2.760335  1834A      2.761140  1835A      2.764252  
    1836A      2.768607  1837A      2.772667  1838A      2.778959  
    1839A      2.782090  1840A      2.785556  1841A      2.787145  
    1842A      2.793602  1843A      2.795058  1844A      2.798725  
    1845A      2.804177  1846A      2.806291  1847A      2.808481  
    1848A      2.812222  1849A      2.817464  1850A      2.818451  
    1851A      2.821450  1852A      2.828845  1853A      2.844395  
    1854A      2.852093  1855A      2.853807  1856A      2.863665  
    1857A      2.864802  1858A      2.867402  1859A      2.870154  
    1860A      2.877525  1861A      2.888873  1862A      2.893982  
    1863A      2.900198  1864A      2.904371  1865A      2.907834  
    1866A      2.910437  1867A      2.926093  1868A      2.929327  
    1869A      2.945187  1870A      2.954649  1871A      2.959917  
    1872A      2.960866  1873A      2.975470  1874A      2.982358  
    1875A      2.985583  1876A      2.987793  1877A      2.988565  
    1878A      2.990965  1879A      2.994270  1880A      3.001972  
    1881A      3.004104  1882A      3.022951  1883A      3.045490  
    1884A      3.047991  1885A      3.048814  1886A      3.055339  
    1887A      3.062474  1888A      3.065642  1889A      3.072204  
    1890A      3.076023  1891A      3.077910  1892A      3.081440  
    1893A      3.082248  1894A      3.088537  1895A      3.091072  
    1896A      3.093468  1897A      3.094485  1898A      3.095343  
    1899A      3.100086  1900A      3.104516  1901A      3.110808  
    1902A      3.115274  1903A      3.119664  1904A      3.127429  
    1905A      3.129259  1906A      3.137912  1907A      3.155309  
    1908A      3.159001  1909A      3.170364  1910A      3.193172  
    1911A      3.196495  1912A      3.197176  1913A      3.199404  
    1914A      3.200800  1915A      3.208207  1916A      3.209648  
    1917A      3.213009  1918A      3.216270  1919A      3.218954  
    1920A      3.232005  1921A      3.234146  1922A      3.249868  
    1923A      3.264980  1924A      3.293670  1925A      3.295410  
    1926A      3.324039  1927A      3.345854  1928A      3.375881  
    1929A      3.388753  1930A      3.395115  1931A      3.400168  
    1932A      3.403736  1933A      3.407641  1934A      3.412720  
    1935A      3.422538  1936A      3.427167  1937A      3.433478  
    1938A      3.444897  1939A      3.454969  1940A      3.467032  
    1941A      3.484060  1942A      3.506472  1943A      3.517074  
    1944A      3.522420  1945A      3.526411  1946A      3.533373  
    1947A      3.566495  1948A      3.601396  1949A      3.614919  
    1950A      3.625793  1951A      3.643378  1952A      3.652211  
    1953A      3.683603  1954A      3.695829  1955A      3.699251  
    1956A      3.710122  1957A      3.727075  1958A      3.735798  
    1959A      3.758669  1960A      3.783189  1961A      3.789124  
    1962A      3.813148  1963A      3.817668  1964A      3.859152  
    1965A      3.861365  1966A      3.878048  1967A      3.880521  
    1968A      3.912145  1969A      3.917410  1970A      3.922015  
    1971A      3.949684  1972A      3.951559  1973A      3.966717  
    1974A      3.990386  1975A      4.060920  1976A      4.310249  
    1977A      4.340876  1978A      4.439599  

    Final Occupation by Irrep:
              A 
    DOCC [   326 ]
    NA   [   326 ]
    NB   [   326 ]

  @DF-RHF Final Energy: -3953.60639598260514

   => Energetics <=

    Nuclear Repulsion Energy =          18584.8967482060543261
    One-Electron Energy =              -42371.8650971798488172
    Two-Electron Energy =               19833.3619529911884456
    Total Energy =                      -3953.6063959826060454

Computation Completed


Properties will be evaluated at   0.000000,   0.000000,   0.000000 [a0]

Properties computed using the SCF density matrix


 Multipole Moments:

 ------------------------------------------------------------------------------------
     Multipole            Electronic (a.u.)      Nuclear  (a.u.)        Total (a.u.)
 ------------------------------------------------------------------------------------

 L = 1.  Multiply by 2.5417464519 to convert [e a0] to [Debye]
 Dipole X            :         -0.0034901            0.0004804           -0.0030097
 Dipole Y            :         -1.6686607            1.8866171            0.2179564
 Dipole Z            :        -14.4371947           17.5557638            3.1185691
 Magnitude           :                                                    3.1261777

 ------------------------------------------------------------------------------------

*** tstop() called on n2cn0366 at Sat Feb 10 14:24:34 2024
Module time:
	user time   =   28092.64 seconds =     468.21 minutes
	system time =    1704.39 seconds =      28.41 minutes
	total time  =       3141 seconds =      52.35 minutes
Total time:
	user time   =   28092.64 seconds =     468.21 minutes
	system time =    1704.39 seconds =      28.41 minutes
	total time  =       3141 seconds =      52.35 minutes

  //>>>>>>>>>>>>>>>>>>>>>>>>>>>>>>>>>>>//
  //            Monomer A HF           //
  //<<<<<<<<<<<<<<<<<<<<<<<<<<<<<<<<<<<//

   => Libint2 <=

    Primary   basis highest AM E, G, H:  5, 4, 3
    Auxiliary basis highest AM E, G, H:  6, 5, 4
    Onebody   basis highest AM E, G, H:  6, 5, 4
    Solid Harmonics ordering:            gaussian

*** tstart() called on n2cn0366
*** at Sat Feb 10 14:24:34 2024

   => Loading Basis Set <=

    Name: JUN-CC-PVDZ
    Role: ORBITAL
    Keyword: BASIS
    atoms 1-2, 4-5, 10, 17-34, 41-53, 56-70, 73-89, 92-104, 109-119, 122-130 entry C          line   164 file /opt/software/pc2/EB-SW/software/PSI4/1.9-foss-2022a/share/psi4/basis/jun-cc-pvdz.gbs 
    atoms 3, 6                                                               entry N          line   198 file /opt/software/pc2/EB-SW/software/PSI4/1.9-foss-2022a/share/psi4/basis/jun-cc-pvdz.gbs 
    atoms 7-9, 11-16, 35-40, 54-55, 71-72, 90-91, 105-108, 120-121, 131-136  entry H          line    36 file /opt/software/pc2/EB-SW/software/PSI4/1.9-foss-2022a/share/psi4/basis/jun-cc-pvdz.gbs 


         ---------------------------------------------------------
                                   SCF
               by Justin Turney, Rob Parrish, Andy Simmonett
                          and Daniel G. A. Smith
                              RHF Reference
                       16 Threads,  76293 MiB Core
         ---------------------------------------------------------

  ==> Geometry <==

    Molecular point group: c1
    Full point group: C1

    Geometry (in Angstrom), charge = 1, multiplicity = 1:

       Center              X                  Y                   Z               Mass       
    ------------   -----------------  -----------------  -----------------  -----------------
         C            0.680062820275    -1.215917226251     2.686936289751    12.000000000000
         C           -0.680508179725    -1.215533226251     2.684908289751    12.000000000000
         N           -1.085639179725     0.102790773749     2.683910289751    14.003074004430
         C            0.000103820275     0.884191773749     2.680634289751    12.000000000000
[...]
    1597A      2.231320  1598A      2.233296  1599A      2.234614  
    1600A      2.235671  1601A      2.238585  1602A      2.239200  
    1603A      2.241610  1604A      2.241829  1605A      2.245382  
    1606A      2.249753  1607A      2.251688  1608A      2.255969  
    1609A      2.262754  1610A      2.265601  1611A      2.268156  
    1612A      2.270579  1613A      2.271838  1614A      2.276064  
    1615A      2.278603  1616A      2.280716  1617A      2.282700  
    1618A      2.284068  1619A      2.285056  1620A      2.286795  
    1621A      2.290555  1622A      2.294327  1623A      2.295627  
    1624A      2.296992  1625A      2.300442  1626A      2.305117  
    1627A      2.310471  1628A      2.313706  1629A      2.317650  
    1630A      2.320923  1631A      2.323709  1632A      2.325856  
    1633A      2.327216  1634A      2.329488  1635A      2.331259  
    1636A      2.332308  1637A      2.333220  1638A      2.334081  
    1639A      2.336885  1640A      2.338810  1641A      2.339659  
    1642A      2.339977  1643A      2.342469  1644A      2.343378  
    1645A      2.344597  1646A      2.346313  1647A      2.347489  
    1648A      2.348630  1649A      2.352531  1650A      2.356121  
    1651A      2.364232  1652A      2.366870  1653A      2.370801  
    1654A      2.375752  1655A      2.382792  1656A      2.383089  
    1657A      2.387438  1658A      2.389095  1659A      2.391146  
    1660A      2.402376  1661A      2.404951  1662A      2.408341  
    1663A      2.415881  1664A      2.418908  1665A      2.419668  
    1666A      2.421346  1667A      2.425571  1668A      2.427735  
    1669A      2.429664  1670A      2.433188  1671A      2.436636  
    1672A      2.440555  1673A      2.445872  1674A      2.448833  
    1675A      2.452212  1676A      2.457461  1677A      2.459318  
    1678A      2.465600  1679A      2.466323  1680A      2.467147  
    1681A      2.468994  1682A      2.470010  1683A      2.473832  
    1684A      2.477185  1685A      2.481816  1686A      2.483011  
    1687A      2.489180  1688A      2.495363  1689A      2.498823  
    1690A      2.503365  1691A      2.503870  1692A      2.512543  
    1693A      2.515173  1694A      2.521984  1695A      2.526396  
    1696A      2.529554  1697A      2.533901  1698A      2.539884  
    1699A      2.540792  1700A      2.543807  1701A      2.544761  
    1702A      2.546744  1703A      2.550953  1704A      2.551568  
    1705A      2.553214  1706A      2.557375  1707A      2.557933  
    1708A      2.558631  1709A      2.563434  1710A      2.565872  
    1711A      2.569734  1712A      2.572284  1713A      2.572751  
    1714A      2.575200  1715A      2.584902  1716A      2.585735  
    1717A      2.587033  1718A      2.587135  1719A      2.588992  
    1720A      2.592886  1721A      2.593624  1722A      2.595126  
    1723A      2.596215  1724A      2.604106  1725A      2.605875  
    1726A      2.611188  1727A      2.613691  1728A      2.614888  
    1729A      2.616867  1730A      2.617358  1731A      2.619707  
    1732A      2.621814  1733A      2.629483  1734A      2.643601  
    1735A      2.644735  1736A      2.646878  1737A      2.648265  
    1738A      2.649784  1739A      2.651646  1740A      2.653677  
    1741A      2.657164  1742A      2.659435  1743A      2.661368  
    1744A      2.665181  1745A      2.665973  1746A      2.668341  
    1747A      2.671426  1748A      2.673012  1749A      2.674116  
    1750A      2.675347  1751A      2.679109  1752A      2.679455  
    1753A      2.684263  1754A      2.685467  1755A      2.690875  
    1756A      2.692056  1757A      2.693259  1758A      2.695810  
    1759A      2.696601  1760A      2.698081  1761A      2.700388  
    1762A      2.702866  1763A      2.706267  1764A      2.715275  
    1765A      2.719746  1766A      2.721838  1767A      2.726043  
    1768A      2.727384  1769A      2.729980  1770A      2.732312  
    1771A      2.736364  1772A      2.749365  1773A      2.757296  
    1774A      2.761906  1775A      2.769184  1776A      2.771380  
    1777A      2.777827  1778A      2.781524  1779A      2.788059  
    1780A      2.794133  1781A      2.798069  1782A      2.800738  
    1783A      2.802602  1784A      2.803271  1785A      2.804079  
    1786A      2.809729  1787A      2.811955  1788A      2.815035  
    1789A      2.816740  1790A      2.821104  1791A      2.823550  
    1792A      2.832964  1793A      2.837678  1794A      2.839921  
    1795A      2.841524  1796A      2.844014  1797A      2.849200  
    1798A      2.851126  1799A      2.852368  1800A      2.863046  
    1801A      2.867573  1802A      2.871660  1803A      2.873061  
    1804A      2.876655  1805A      2.882213  1806A      2.889527  
    1807A      2.896037  1808A      2.896428  1809A      2.897595  
    1810A      2.903486  1811A      2.916788  1812A      2.920275  
    1813A      2.925513  1814A      2.927874  1815A      2.929611  
    1816A      2.933500  1817A      2.936086  1818A      2.941923  
    1819A      2.954278  1820A      2.961846  1821A      2.966336  
    1822A      2.969267  1823A      2.977214  1824A      2.984068  
    1825A      2.988351  1826A      2.995012  1827A      3.001147  
    1828A      3.007707  1829A      3.021441  1830A      3.031069  
    1831A      3.036009  1832A      3.045121  1833A      3.049528  
    1834A      3.054357  1835A      3.056829  1836A      3.058942  
    1837A      3.062575  1838A      3.063888  1839A      3.067229  
    1840A      3.071591  1841A      3.074765  1842A      3.076647  
    1843A      3.090309  1844A      3.112339  1845A      3.115821  
    1846A      3.117876  1847A      3.121382  1848A      3.127099  
    1849A      3.132581  1850A      3.136099  1851A      3.141388  
    1852A      3.144443  1853A      3.147392  1854A      3.150022  
    1855A      3.151932  1856A      3.158093  1857A      3.161260  
    1858A      3.162828  1859A      3.163806  1860A      3.169237  
    1861A      3.171271  1862A      3.178000  1863A      3.182467  
    1864A      3.186182  1865A      3.187822  1866A      3.197623  
    1867A      3.203857  1868A      3.210460  1869A      3.224447  
    1870A      3.230924  1871A      3.258368  1872A      3.263925  
    1873A      3.268659  1874A      3.269247  1875A      3.271423  
    1876A      3.274536  1877A      3.277608  1878A      3.278379  
    1879A      3.286437  1880A      3.288056  1881A      3.297688  
    1882A      3.304350  1883A      3.312017  1884A      3.323563  
    1885A      3.331718  1886A      3.346869  1887A      3.365580  
    1888A      3.368433  1889A      3.382111  1890A      3.389151  
    1891A      3.404602  1892A      3.417272  1893A      3.430778  
    1894A      3.451389  1895A      3.459622  1896A      3.466734  
    1897A      3.470730  1898A      3.477015  1899A      3.481331  
    1900A      3.488205  1901A      3.490117  1902A      3.508796  
    1903A      3.511422  1904A      3.521153  1905A      3.524242  
    1906A      3.533342  1907A      3.549559  1908A      3.557143  
    1909A      3.570620  1910A      3.587675  1911A      3.593346  
    1912A      3.600531  1913A      3.603104  1914A      3.630659  
    1915A      3.668279  1916A      3.669738  1917A      3.692597  
    1918A      3.696910  1919A      3.707549  1920A      3.719748  
    1921A      3.729266  1922A      3.743769  1923A      3.770386  
    1924A      3.773469  1925A      3.776243  1926A      3.780608  
    1927A      3.787627  1928A      3.816310  1929A      3.843544  
    1930A      3.855676  1931A      3.860981  1932A      3.869337  
    1933A      3.889170  1934A      3.899511  1935A      3.929143  
    1936A      3.930395  1937A      3.932877  1938A      3.950919  
    1939A      3.952649  1940A      3.987468  1941A      3.993721  
    1942A      4.004516  1943A      4.023552  1944A      4.026296  
    1945A      4.028144  1946A      4.045812  1947A      4.052232  
    1948A      4.134408  1949A      4.337990  1950A      4.349457  
    1951A      4.407904  1952A      4.420790  1953A      4.532380  
    1954A      4.617122  1955A      4.720122  1956A      4.765453  
    1957A      4.902744  1958A      4.912834  1959A      4.950308  
    1960A      5.016086  1961A      5.029581  1962A      5.108790  
    1963A      5.136925  1964A      5.148373  1965A      5.205573  
    1966A      5.239243  1967A      5.435717  1968A      5.456428  
    1969A      5.802891  1970A      5.811280  1971A      6.090458  
    1972A     18.232120  1973A     18.497889  1974A     18.518333  
    1975A     18.628596  1976A     18.947434  1977A     25.380398  
    1978A     25.418821  

    Final Occupation by Irrep:
              A 
    DOCC [   300 ]
    NA   [   300 ]
    NB   [   300 ]

  @DF-RHF Final Energy: -3650.34320288172057

   => Energetics <=

    Nuclear Repulsion Energy =          15611.4211649754324753
    One-Electron Energy =              -36072.2323153616962372
    Two-Electron Energy =               16810.4679475045450090
    Total Energy =                      -3650.3432028817187529

Computation Completed


Properties will be evaluated at   0.000000,   0.000000,   0.000000 [a0]

Properties computed using the SCF density matrix


 Multipole Moments:

 ------------------------------------------------------------------------------------
     Multipole            Electronic (a.u.)      Nuclear  (a.u.)        Total (a.u.)
 ------------------------------------------------------------------------------------

 L = 1.  Multiply by 2.5417464519 to convert [e a0] to [Debye]
 Dipole X            :          0.0003798            0.0002112            0.0005910
 Dipole Y            :          0.0016328           -0.0044281           -0.0027953
 Dipole Z            :        250.6937547         -250.6941504           -0.0003957
 Magnitude           :                                                    0.0028843

 ------------------------------------------------------------------------------------

*** tstop() called on n2cn0366 at Sat Feb 10 15:13:57 2024
Module time:
	user time   =   19274.48 seconds =     321.24 minutes
	system time =    1343.75 seconds =      22.40 minutes
	total time  =       2062 seconds =      34.37 minutes
Total time:
	user time   =   53400.31 seconds =     890.01 minutes
	system time =    3534.02 seconds =      58.90 minutes
	total time  =       6104 seconds =     101.73 minutes
  Constructing Basis Sets for SAPT...

   => Loading Basis Set <=

    Name: (JUN-CC-PVDZ AUX)
    Role: RIFIT
    Keyword: DF_BASIS_SAPT
    atoms 1-2, 4-5, 10, 17-34, 41-53, 56-70, 73-89, 92-104, 109-119, 122-130 entry C          line   100 file /opt/software/pc2/EB-SW/software/PSI4/1.9-foss-2022a/share/psi4/basis/jun-cc-pvdz-ri.gbs 
    atoms 3, 6                                                               entry N          line   144 file /opt/software/pc2/EB-SW/software/PSI4/1.9-foss-2022a/share/psi4/basis/jun-cc-pvdz-ri.gbs 
    atoms 7-9, 11-16, 35-40, 54-55, 71-72, 90-91, 105-108, 120-121, 131-136  entry H          line    30 file /opt/software/pc2/EB-SW/software/PSI4/1.9-foss-2022a/share/psi4/basis/jun-cc-pvdz-ri.gbs 

   => Loading Basis Set <=

    Name: (JUN-CC-PVDZ AUX)
    Role: JKFIT
    Keyword: DF_BASIS_ELST
    atoms 1-2, 4-5, 10, 17-34, 41-53, 56-70, 73-89, 92-104, 109-119, 122-130 entry C          line   146 file /opt/software/pc2/EB-SW/software/PSI4/1.9-foss-2022a/share/psi4/basis/jun-cc-pvdz-jkfit.gbs 
    atoms 3, 6                                                               entry N          line   202 file /opt/software/pc2/EB-SW/software/PSI4/1.9-foss-2022a/share/psi4/basis/jun-cc-pvdz-jkfit.gbs 
    atoms 7-9, 11-16, 35-40, 54-55, 71-72, 90-91, 105-108, 120-121, 131-136  entry H          line    70 file /opt/software/pc2/EB-SW/software/PSI4/1.9-foss-2022a/share/psi4/basis/jun-cc-pvdz-jkfit.gbs 


  //>>>>>>>>>>>>>>>>>>>>>>>>>>>>>>>>>>>//
  //               SSAPT0              //
  //<<<<<<<<<<<<<<<<<<<<<<<<<<<<<<<<<<<//


*** tstart() called on n2cn0366
*** at Sat Feb 10 15:13:59 2024

        SAPT0  
    Ed Hohenstein
     6 June 2009

      Orbital Information
  --------------------------
    NSO        =      2019
    NMO        =      1978
    NRI        =      7157
    NRI (Elst) =      8896
    NOCC A     =        26
    NOCC B     =       300
    FOCC A     =         7
    FOCC B     =        96
    NVIR A     =      1952
    NVIR B     =      1678

    Elst10,r            =    -0.054183671440 [Eh]
    Exch10              =     0.123377630354 [Eh]
    Exch10 (S^2)        =     0.121697292250 [Eh]

    Iter     Energy [mEh]          dE [mEh]         Residual      Time [s]
       1     -16.60394761      16.603947612      20.549372075            91
       2     -21.01765757       4.413709958       5.269887498           179
       3     -21.23138130       0.213723735       1.435916214           250
       4     -21.17884633      -0.052534970       0.574702120           322
       5     -21.16292974      -0.015916594       0.111049537           393
       6     -21.16534001       0.002410273       0.051832304           465
       7     -21.16656628       0.001226268       0.016226974           536
       8     -21.16613396      -0.000432326       0.005495320           612
       9     -21.16614636       0.000012409       0.002159242           685
      10     -21.16617802       0.000031655       0.000626106           767
      11     -21.16617522      -0.000002801       0.000182297           870
      12     -21.16617352      -0.000001698       0.000065481           974
      13     -21.16617352      -0.000000001       0.000018335          1048
      14     -21.16617372       0.000000203       0.000006853          1137
      15     -21.16617373       0.000000005       0.000002515          1209
      16     -21.16617370      -0.000000030       0.000000864          1288

    CHF Iterations converged


    Iter     Energy [mEh]          dE [mEh]         Residual      Time [s]
       1     -52.76448218      52.764482182      98.777383615           131
       2     -43.59567496      -9.168807223      18.099877872           253
       3     -46.41075264       2.815077682       8.708579857           381
       4     -47.82408241       1.413329767       1.806119586           510
       5     -47.85349535       0.029412944       0.806161037           628
       6     -47.79119519      -0.062300159       0.408240936           757
       7     -47.77745788      -0.013737314       0.208461882           880
       8     -47.79028078       0.012822902       0.111745255           997
       9     -47.79341276       0.003131979       0.067477935          1142
      10     -47.79029641      -0.003116354       0.049213203          1264
      11     -47.78958596      -0.000710451       0.027229600          1402
      12     -47.79033638       0.000750421       0.014564720          1529
      13     -47.79071436       0.000377981       0.007222544          1643
      14     -47.79056788      -0.000146476       0.004637645          1765
      15     -47.79048077      -0.000087113       0.002751874          1891
      16     -47.79049392       0.000013153       0.001323305          2014
      17     -47.79053635       0.000042432       0.000596355          2203
      18     -47.79052965      -0.000006705       0.000354262          2333
      19     -47.79051995      -0.000009701       0.000176074          2467
      20     -47.79052027       0.000000324       0.000097091          2593
      21     -47.79052304       0.000002766       0.000046375          2717
      22     -47.79052320       0.000000159       0.000022728          2854
      23     -47.79052265      -0.000000547       0.000011232          2986
      24     -47.79052256      -0.000000091       0.000006258          3111
      25     -47.79052266       0.000000101       0.000003464          3242
      26     -47.79052271       0.000000047       0.000001610          3363
      27     -47.79052269      -0.000000018       0.000000727          3487

    CHF Iterations converged

    Ind20,r (A<-B)      =    -0.021166173695 [Eh]
    Ind20,r (B<-A)      =    -0.047790522688 [Eh]
    Ind20,r             =    -0.068956696384 [Eh]
    Exch-Ind20,r (A<-B) =     0.020093969330 [Eh]
    Exch-Ind20,r (B<-A) =     0.025797025820 [Eh]
    Exch-Ind20,r        =     0.045890995150 [Eh]
    Disp20              =    -0.084624141605 [Eh]
    Disp20 (SS)         =    -0.042312070802 [Eh]
    Disp20 (OS)         =    -0.042312070802 [Eh]
    Exch-Disp20         =     0.011275362876 [Eh]
    Exch-Disp20 (SS)    =     0.006743354263 [Eh]
    Exch-Disp20 (OS)    =     0.004532008613 [Eh]

    SAPT Results 
  --------------------------------------------------------------------------------------------------------
    Electrostatics                -54.18367144 [mEh]     -34.00076715 [kcal/mol]    -142.25920977 [kJ/mol]
      Elst10,r                    -54.18367144 [mEh]     -34.00076715 [kcal/mol]    -142.25920977 [kJ/mol]

    Exchange                      123.37763035 [mEh]      77.42063190 [kcal/mol]     323.92792387 [kJ/mol]
      Exch10                      123.37763035 [mEh]      77.42063190 [kcal/mol]     323.92792387 [kJ/mol]
      Exch10(S^2)                 121.69729225 [mEh]      76.36620382 [kcal/mol]     319.51619678 [kJ/mol]

    Induction                     -32.29216547 [mEh]     -20.26363976 [kcal/mol]     -84.78306876 [kJ/mol]
      Ind20,r                     -68.95669638 [mEh]     -43.27098026 [kcal/mol]    -181.04578141 [kJ/mol]
      Exch-Ind20,r                 45.89099515 [mEh]      28.79703422 [kcal/mol]     120.48679117 [kJ/mol]
      delta HF,r (2)               -9.22646424 [mEh]      -5.78969372 [kcal/mol]     -24.22407851 [kJ/mol]

    Dispersion                    -73.34877873 [mEh]     -46.02705354 [kcal/mol]    -192.57719202 [kJ/mol]
      Disp20                      -84.62414160 [mEh]     -53.10245057 [kcal/mol]    -222.18065317 [kJ/mol]
      Exch-Disp20                  11.27536288 [mEh]       7.07539703 [kcal/mol]      29.60346115 [kJ/mol]
      Disp20 (SS)                 -42.31207080 [mEh]     -26.55122528 [kcal/mol]    -111.09032659 [kJ/mol]
      Disp20 (OS)                 -42.31207080 [mEh]     -26.55122528 [kcal/mol]    -111.09032659 [kJ/mol]
      Exch-Disp20 (SS)              6.74335426 [mEh]       4.23151869 [kcal/mol]      17.70467418 [kJ/mol]
      Exch-Disp20 (OS)              4.53200861 [mEh]       2.84387834 [kcal/mol]      11.89878698 [kJ/mol]

  Total HF                         36.90179344 [mEh]      23.15622499 [kcal/mol]      96.88564534 [kJ/mol]
  Total SAPT0                     -36.44698528 [mEh]     -22.87082856 [kcal/mol]     -95.69154668 [kJ/mol]

  Special recipe for scaled SAPT0 (see Manual):
    Electrostatics sSAPT0         -54.18367144 [mEh]     -34.00076715 [kcal/mol]    -142.25920977 [kJ/mol]
    Exchange sSAPT0               123.37763035 [mEh]      77.42063190 [kcal/mol]     323.92792387 [kJ/mol]
    Induction sSAPT0              -30.36487478 [mEh]     -19.05424660 [kcal/mol]     -79.72296776 [kJ/mol]
    Dispersion sSAPT0             -72.87524570 [mEh]     -45.72990708 [kcal/mol]    -191.33393123 [kJ/mol]
  Total sSAPT0                    -34.04616157 [mEh]     -21.36428893 [kcal/mol]     -89.38818489 [kJ/mol]
  --------------------------------------------------------------------------------------------------------

*** tstop() called on n2cn0366 at Sat Feb 10 18:42:46 2024
Module time:
	user time   =   78073.08 seconds =    1301.22 minutes
	system time =    4011.17 seconds =      66.85 minutes
	total time  =      12527 seconds =     208.78 minutes
Total time:
	user time   =  131474.93 seconds =    2191.25 minutes
	system time =    7545.20 seconds =     125.75 minutes
	total time  =      18633 seconds =     310.55 minutes

    Psi4 stopped on: Saturday, 10 February 2024 06:42PM
    Psi4 wall time for execution: 5:10:34.88

*** Psi4 exiting successfully. Buy a developer a beer!
