
    -----------------------------------------------------------------------
          Psi4: An Open-Source Ab Initio Electronic Structure Package
                               Psi4 1.9 release

                         Git: Rev {} zzzzzzz 


    D. G. A. Smith, L. A. Burns, A. C. Simmonett, R. M. Parrish,
    M. C. Schieber, R. Galvelis, P. Kraus, H. Kruse, R. Di Remigio,
    A. Alenaizan, A. M. James, S. Lehtola, J. P. Misiewicz, M. Scheurer,
    R. A. Shaw, J. B. Schriber, Y. Xie, Z. L. Glick, D. A. Sirianni,
    J. S. O'Brien, J. M. Waldrop, A. Kumar, E. G. Hohenstein,
    B. P. Pritchard, B. R. Brooks, H. F. Schaefer III, A. Yu. Sokolov,
    K. Patkowski, A. E. DePrince III, U. Bozkaya, R. A. King,
    F. A. Evangelista, J. M. Turney, T. D. Crawford, C. D. Sherrill,
    J. Chem. Phys. 152(18) 184108 (2020). https://doi.org/10.1063/5.0006002

                            Additional Code Authors
    E. T. Seidl, C. L. Janssen, E. F. Valeev, M. L. Leininger,
    J. F. Gonthier, R. M. Richard, H. R. McAlexander, M. Saitow, X. Wang,
    P. Verma, M. H. Lechner, A. Jiang, S. Behnle, A. G. Heide,
    M. F. Herbst, and D. L. Poole

             Previous Authors, Complete List of Code Contributors,
                       and Citations for Specific Modules
    https://github.com/psi4/psi4/blob/master/codemeta.json
    https://github.com/psi4/psi4/graphs/contributors
    http://psicode.org/psi4manual/master/introduction.html#citing-psifour

    -----------------------------------------------------------------------


    Psi4 started on: Monday, 22 January 2024 04:31PM

    Process ID: 1877201
    Host:       d-16-7-4
    PSIDATADIR: /home/gridsan/tfroembgen/.conda/envs/psi4test/share/psi4
    Memory:     500.0 MiB
    Threads:    12
    
  ==> Input File <==

--------------------------------------------------------------------------
memory 32 GB # how much memory is available ! Depends on the nodes/cores !

molecule dimer {
# monomer A
+1 1    # Charge and multiplicity
C  0.680067 -1.215929 2.808042
C -0.680504 -1.215545 2.806014
N -1.085635  0.102779 2.805016
C  0.000108  0.884180 2.801740
C -2.477365  0.570758 2.755610
N  1.085222  0.102779 2.805016
H  1.385146 -2.033368 2.815870
H -1.385302 -2.033214 2.806204
H -0.000009  1.965269 2.799993
C  2.478117  0.567877 2.821908
H  2.490592  1.658130 2.794563
H  2.967028  0.220701 3.735354
H  3.001428  0.176405 1.946425
H -2.857359  0.490799 1.733539
H -3.082679 -0.042306 3.425694
H -2.518128  1.610706 3.082594
--
# monomer B
0 1     # Charge and multiplicity
C   1.22531237526482      0.70753866091955      0.00613762728373
C   1.22532433589282     -0.70753852257020     -0.00619318228664
C   -0.00000567409046      1.41496628609039     -0.00672680580738
C   2.45644923379077      1.41832825917820      0.00902448468363
C   0.00001130712078     -1.41497612663474      0.00347275151708
C   -1.22530046906674      0.70754574598412      0.00838914760619
C   2.45643823516184     -1.41832293188077     -0.00843833914343
C   -0.00000085313587      2.83680140328112     -0.00913035594137
C   3.68182717731192      0.70931832800114     -0.00808954934571
C   2.45512052870677      2.83422403348893     -0.00819210630633
C   3.68182158506039     -0.70933346742900      0.00798293467272
C   -1.22531311884624     -0.70752714354401     -0.00512042085974
C   1.22670006104402      3.54346985599427      0.00816696660346
C   0.00000526469929     -2.83678176723568      0.00832091913869
C   -2.45643555300670      1.41831729028492      0.00842454345199
C   2.45512389762097     -2.83422965658853      0.00783102630520
C   -1.22671388474763      3.54346943575023      0.00827029982280
C   4.91451777504333      1.42717324448953     -0.00160886631602
C   3.69315067131765      3.54279566454522     -0.00155906667985
C   -2.45643712022637     -1.41831290883911     -0.00846337726810
C   1.22670532178455     -3.54347386990643     -0.00780316414624
C   -2.45512491866593      2.83421703463423     -0.00818572995999
C   4.91452486062398     -1.42718653794377      0.00136387641845
C   1.22142509354026      4.97013443726031      0.00150231067809
C   4.89300870916237      2.82518837202648     -0.00039219795739
C   -1.22669652864725     -3.54347062507680     -0.00753595973677
C   -3.68181849668397      0.70932533873199     -0.00807686886569
C   3.69314758099218     -3.54280096939050      0.00148176697923
C   -1.22143177215231      4.97012866986289      0.00168580605083
C   6.13477145276790      0.68054831910577     -0.00083909176631
C   3.65678936045204      4.97295361556775     -0.00065042889723
C   -2.45512642789169     -2.83421472106065      0.00758666850712
C   -3.68181869921921     -0.70932533146830      0.00810055625144
C   4.89301309775526     -2.82519973363176      0.00021895393805
C   -0.00000059327114      5.65044773803267      0.00045449734393
C   6.13477559217374     -0.68055448207492      0.00042622874941
C   2.47813196269732      5.65357712333155      0.00063835075260
C   1.22142288457925     -4.97012668293268     -0.00129718634452
C   -3.69316190412301      3.54279732619245     -0.00139355922051
C   -1.22142804110313     -4.97011793159564     -0.00140994817719
C   -4.91452132810043      1.42717581899491     -0.00153192130862
C   3.65678749952045     -4.97295485423912      0.00080007163680
C   -2.47813805026426      5.65357479452875      0.00092287576113
C   -3.69314125872231     -3.54278984697859      0.00136564082345
C   -4.91451200321153     -1.42718062802730      0.00139857359209
C   -0.00000552908399     -5.65043791501335      0.00005899322272
C   -4.89302000425900      2.82518897091939     -0.00040227981744
C   2.47812647313991     -5.65357317188818     -0.00029052915548
C   -3.65679823041642      4.97295655404175     -0.00047374852278
C   -4.89299899901461     -2.82519139505969      0.00006491824035
C   -2.47812801824129     -5.65356579800621     -0.00056571680280
C   -6.13477002348955      0.68054913825639     -0.00086464346868
C   -3.65678835334731     -4.97294365097028      0.00058578382008
C   -6.13476456307132     -0.68055354348201      0.00040575295444
H   5.83528897565761      3.36927626695423      0.00396712770529
H   7.07385965258860      1.22821762089947     -0.00037744837300
H   4.60066374401555      5.51238117445323     -0.00014522814529
H   5.83528386714679     -3.36930568472863     -0.00423551337640
H   -0.00001167146422      6.73853104613662     -0.00389474766392
H   7.07386165167227     -1.22822657074368     -0.00008250934481
H   2.47331421164041      6.74068466339473      0.00017162982210
H   4.60066897122302     -5.51237575717576      0.00039007446835
H   -2.47331820069565      6.74068209160650      0.00047297644710
H   -0.00000978838621     -6.73852780445195      0.00458867820736
H   -5.83530143450167      3.36927132229595      0.00410314985360
H   2.47330840367253     -6.74068500242887      0.00027980126949
H   -4.60067436136587      5.51237839860371      0.00002010017831
H   -5.83527902699321     -3.36928859177951     -0.00451481925734
H   -2.47329986759855     -6.74067870613986     -0.00016951527498
H   -7.07385728692578      1.22822084484047     -0.00046143985387
H   -4.60067330624313     -5.51236229778631      0.00021776644566
H   -7.07385645456741     -1.22822025997701     -0.00017736581114

    units angstrom      # Angstroms are the default
    no_reorient         # Geometry fixed, default
    symmetry c1         # C1 symmetry, default
}

set {
    scf_type DF         # Density fitting, faster than exact integrals
    freeze_core True    # Freeze core electrons
    basis jun-cc-pVDZ   # Jun-cc-pVDZ basis set, recommended for sSAPT0 in https://doi.org/10.1063/1.4867135
}

energy('ssapt0')        # Compute sSAPT0 energy, includes also SAPT0
--------------------------------------------------------------------------

  Memory set to  29.802 GiB by Python driver.

Scratch directory: /state/partition1/slurm_tmp/24798234.4294967291.0/
   => Loading Basis Set <=

    Name: JUN-CC-PVDZ
    Role: ORBITAL
    Keyword: BASIS
    atoms 1-2, 4-5, 10, 17-70 entry C          line   164 file /home/gridsan/tfroembgen/.conda/envs/psi4test/share/psi4/basis/jun-cc-pvdz.gbs 
    atoms 3, 6                entry N          line   198 file /home/gridsan/tfroembgen/.conda/envs/psi4test/share/psi4/basis/jun-cc-pvdz.gbs 
    atoms 7-9, 11-16, 71-88   entry H          line    36 file /home/gridsan/tfroembgen/.conda/envs/psi4test/share/psi4/basis/jun-cc-pvdz.gbs 

   => Loading Basis Set <=

    Name: JUN-CC-PVDZ
    Role: ORBITAL
    Keyword: BASIS
    atoms 1-2, 4-5, 10, 17-70 entry C          line   164 file /home/gridsan/tfroembgen/.conda/envs/psi4test/share/psi4/basis/jun-cc-pvdz.gbs 
    atoms 3, 6                entry N          line   198 file /home/gridsan/tfroembgen/.conda/envs/psi4test/share/psi4/basis/jun-cc-pvdz.gbs 
    atoms 7-9, 11-16, 71-88   entry H          line    36 file /home/gridsan/tfroembgen/.conda/envs/psi4test/share/psi4/basis/jun-cc-pvdz.gbs 


  //>>>>>>>>>>>>>>>>>>>>>>>>>>>>>>>>>>>//
  //              Dimer HF             //
  //<<<<<<<<<<<<<<<<<<<<<<<<<<<<<<<<<<<//

   => Libint2 <=

    Primary   basis highest AM E, G, H:  7, 7, 4
    Auxiliary basis highest AM E, G, H:  7, 7, 5
    Onebody   basis highest AM E, G, H:  7, 7, 5
    Solid Harmonics ordering:            gaussian

*** tstart() called on d-16-7-4
*** at Mon Jan 22 16:32:00 2024

   => Loading Basis Set <=

    Name: JUN-CC-PVDZ
    Role: ORBITAL
    Keyword: BASIS
    atoms 1-2, 4-5, 10, 17-70 entry C          line   164 file /home/gridsan/tfroembgen/.conda/envs/psi4test/share/psi4/basis/jun-cc-pvdz.gbs 
    atoms 3, 6                entry N          line   198 file /home/gridsan/tfroembgen/.conda/envs/psi4test/share/psi4/basis/jun-cc-pvdz.gbs 
    atoms 7-9, 11-16, 71-88   entry H          line    36 file /home/gridsan/tfroembgen/.conda/envs/psi4test/share/psi4/basis/jun-cc-pvdz.gbs 


         ---------------------------------------------------------
                                   SCF
               by Justin Turney, Rob Parrish, Andy Simmonett
                          and Daniel G. A. Smith
                              RHF Reference
                       12 Threads,  30517 MiB Core
         ---------------------------------------------------------

  ==> Geometry <==

    Molecular point group: c1
    Full point group: C1

    Geometry (in Angstrom), charge = 1, multiplicity = 1:

       Center              X                  Y                   Z               Mass       
    ------------   -----------------  -----------------  -----------------  -----------------
         C            0.680066520158    -1.215933861162     2.451901360098    12.000000000000
         C           -0.680504479842    -1.215549861162     2.449873360098    12.000000000000
         N           -1.085635479842     0.102774138838     2.448875360098    14.003074004430
         C            0.000107520158     0.884175138838     2.445599360098    12.000000000000
         C           -2.477365479842     0.570753138838     2.399469360098    12.000000000000
         N            1.085221520158     0.102774138838     2.448875360098    14.003074004430
         H            1.385145520158    -2.033372861162     2.459729360098     1.007825032230
         H           -1.385302479842    -2.033218861162     2.450063360098     1.007825032230
         H           -0.000009479842     1.965264138838     2.443852360098     1.007825032230
         C            2.478116520158     0.567872138838     2.465767360098    12.000000000000
         H            2.490591520158     1.658125138838     2.438422360098     1.007825032230
         H            2.967027520158     0.220696138838     3.379213360098     1.007825032230
         H            3.001427520158     0.176400138838     1.590284360098     1.007825032230
         H           -2.857359479842     0.490794138838     1.377398360098     1.007825032230
         H           -3.082679479842    -0.042310861162     3.069553360098     1.007825032230
         H           -2.518128479842     1.610701138838     2.726453360098     1.007825032230
         C            1.225311895423     0.707533799757    -0.350003012619    12.000000000000
         C            1.225323856051    -0.707543383733    -0.362333822189    12.000000000000
         C           -0.000006153932     1.414961424928    -0.362867445710    12.000000000000
         C            2.456448753949     1.418323398016    -0.347116155219    12.000000000000
         C            0.000010827279    -1.414980987797    -0.352667888385    12.000000000000
         C           -1.225300948908     0.707540884822    -0.347751492296    12.000000000000
         C            2.456437755320    -1.418327793043    -0.364578979046    12.000000000000
         C           -0.000001332978     2.836796542119    -0.365270995844    12.000000000000
         C            3.681826697470     0.709313466839    -0.364230189248    12.000000000000
         C            2.455120048865     2.834219172327    -0.364332746209    12.000000000000
         C            3.681821105219    -0.709338328591    -0.348157705230    12.000000000000
         C           -1.225313598688    -0.707532004706    -0.361261060762    12.000000000000
         C            1.226699581202     3.543464994832    -0.347973673299    12.000000000000
         C            0.000004784858    -2.836786628398    -0.347819720764    12.000000000000
         C           -2.456436032848     1.418312429123    -0.347716096450    12.000000000000
         C            2.455123417779    -2.834234517751    -0.348309613597    12.000000000000
         C           -1.226714364589     3.543464574588    -0.347870340080    12.000000000000
         C            4.914517295202     1.427168383327    -0.357749506218    12.000000000000
         C            3.693150191476     3.542790803383    -0.357699706582    12.000000000000
         C           -2.456437600068    -1.418317770001    -0.364604017170    12.000000000000
         C            1.226704841943    -3.543478731069    -0.363943804049    12.000000000000
         C           -2.455125398508     2.834212173472    -0.364326369862    12.000000000000
         C            4.914524380782    -1.427191399106    -0.354776763484    12.000000000000
         C            1.221424613699     4.970129576098    -0.354638329224    12.000000000000
         C            4.893008229321     2.825183510864    -0.356532837860    12.000000000000
         C           -1.226697008489    -3.543475486239    -0.363676599639    12.000000000000
         C           -3.681818976526     0.709320477570    -0.364217508768    12.000000000000
         C            3.693147101150    -3.542805830553    -0.354658872923    12.000000000000
         C           -1.221432251994     4.970123808701    -0.354454833852    12.000000000000
         C            6.134770972926     0.680543457943    -0.356979731669    12.000000000000
         C            3.656788880610     4.972948754405    -0.356791068800    12.000000000000
         C           -2.455126907733    -2.834219582223    -0.348553971395    12.000000000000
         C           -3.681819179061    -0.709330192631    -0.348040083651    12.000000000000
         C            4.893012617914    -2.825204594794    -0.355921685964    12.000000000000
         C           -0.000001073113     5.650442876870    -0.355686142558    12.000000000000
         C            6.134775112332    -0.680559343237    -0.355714411153    12.000000000000
         C            2.478131482856     5.653572262169    -0.355502289150    12.000000000000
         C            1.221422404738    -4.970131544095    -0.357437826247    12.000000000000
         C           -3.693162383965     3.542792465030    -0.357534199123    12.000000000000
         C           -1.221428520945    -4.970122792758    -0.357550588080    12.000000000000
         C           -4.914521807942     1.427170957833    -0.357672561211    12.000000000000
         C            3.656787019679    -4.972959715401    -0.355340568266    12.000000000000
         C           -2.478138530106     5.653569933366    -0.355217764141    12.000000000000
         C           -3.693141738564    -3.542794708141    -0.354774999079    12.000000000000
         C           -4.914512483053    -1.427185489190    -0.354742066310    12.000000000000
         C           -0.000006008926    -5.650442776176    -0.356081646680    12.000000000000
         C           -4.893020484101     2.825184109757    -0.356542919720    12.000000000000
         C            2.478125993298    -5.653578033051    -0.356431169058    12.000000000000
         C           -3.656798710258     4.972951692879    -0.356614388425    12.000000000000
         C           -4.892999478856    -2.825196256222    -0.356075721662    12.000000000000
         C           -2.478128498083    -5.653570659169    -0.356706356705    12.000000000000
         C           -6.134770503331     0.680544277094    -0.357005283371    12.000000000000
         C           -3.656788833189    -4.972948512133    -0.355554856082    12.000000000000
         C           -6.134765042913    -0.680558404644    -0.355734886948    12.000000000000
         H            5.835288495816     3.369271405792    -0.352173512197     1.007825032230
         H            7.073859172747     1.228212759737    -0.356518088275     1.007825032230
         H            4.600663264174     5.512376313291    -0.356285868048     1.007825032230
         H            5.835283387305    -3.369310545891    -0.360376153279     1.007825032230
         H           -0.000012151306     6.738526184974    -0.360035387566     1.007825032230
         H            7.073861171831    -1.228231431906    -0.356223149247     1.007825032230
         H            2.473313731799     6.740679802232    -0.355969010080     1.007825032230
         H            4.600668491381    -5.512380618338    -0.355750565434     1.007825032230
         H           -2.473318680537     6.740677230444    -0.355667663455     1.007825032230
         H           -0.000010268228    -6.738532665614    -0.351551961695     1.007825032230
         H           -5.835301914343     3.369266461134    -0.352037490049     1.007825032230
         H            2.473307923831    -6.740689863591    -0.355860838633     1.007825032230
         H           -4.600674841208     5.512373537441    -0.356120539724     1.007825032230
         H           -5.835279506835    -3.369293452942    -0.360655459160     1.007825032230
         H           -2.473300347440    -6.740683567302    -0.356310155177     1.007825032230
         H           -7.073857766768     1.228215983678    -0.356602079756     1.007825032230
         H           -4.600673786085    -5.512367158949    -0.355922873457     1.007825032230
         H           -7.073856934409    -1.228225121139    -0.356318005714     1.007825032230

  Running in c1 symmetry.

  Rotational constants: A =      0.00202  B =      0.00198  C =      0.00109 [cm^-1]
  Rotational constants: A =     60.59347  B =     59.37154  C =     32.56832 [MHz]
  Nuclear repulsion = 8596.050361728899588

  Charge       = 1
  Multiplicity = 1
  Electrons    = 394
  Nalpha       = 197
  Nbeta        = 197

  ==> Algorithm <==

  SCF Algorithm Type is DF.
  DIIS enabled.
  MOM disabled.
  Fractional occupation disabled.
  Guess Type is SAD.
  Energy threshold   = 1.00e-08
  Density threshold  = 1.00e-08
  Integral threshold = 1.00e-12

  ==> Primary Basis <==

  Basis Set: JUN-CC-PVDZ
    Blend: JUN-CC-PVDZ
    Number of shells: 569
    Number of basis functions: 1233
    Number of Cartesian functions: 1294
    Spherical Harmonics?: true
    Max angular momentum: 2

   => Loading Basis Set <=

    Name: (JUN-CC-PVDZ AUX)
    Role: JKFIT
    Keyword: DF_BASIS_SCF
    atoms 1-2, 4-5, 10, 17-70 entry C          line   146 file /home/gridsan/tfroembgen/.conda/envs/psi4test/share/psi4/basis/jun-cc-pvdz-jkfit.gbs 
    atoms 3, 6                entry N          line   202 file /home/gridsan/tfroembgen/.conda/envs/psi4test/share/psi4/basis/jun-cc-pvdz-jkfit.gbs 
    atoms 7-9, 11-16, 71-88   entry H          line    70 file /home/gridsan/tfroembgen/.conda/envs/psi4test/share/psi4/basis/jun-cc-pvdz-jkfit.gbs 

  ==> Integral Setup <==

  ==> DiskDFJK: Density-Fitted J/K Matrices <==

    J tasked:                  Yes
    K tasked:                  Yes
    wK tasked:                  No
    OpenMP threads:             12
    Integrals threads:          12
    Memory [MiB]:            22888
    Algorithm:                Disk
    Integral Cache:           SAVE
    Schwarz Cutoff:          1E-12
    Fitting Condition:       1E-10

   => Auxiliary Basis Set <=

  Basis Set: (JUN-CC-PVDZ AUX)
    Blend: JUN-CC-PVDZ-JKFIT
    Number of shells: 1890
    Number of basis functions: 5440
    Number of Cartesian functions: 6226
    Spherical Harmonics?: true
    Max angular momentum: 3

  Minimum eigenvalue in the overlap matrix is 3.4852143949E-10.
  Reciprocal condition number of the overlap matrix is 1.2818426299E-11.
    Using canonical orthogonalization.
  Overall, 14 of 1233 possible MOs eliminated.


  ==> Pre-Iterations <==

  SCF Guess: Superposition of Atomic Densities via on-the-fly atomic UHF (no occupation information).

   -------------------------
    Irrep   Nso     Nmo    
   -------------------------
     A       1233    1219 
   -------------------------
    Total    1233    1219
   -------------------------

  ==> Iterations <==

                           Total Energy        Delta E     RMS |[F,P]|

   @DF-RHF iter SAD: -2367.00054839683526   -2.36700e+03   0.00000e+00 
   @DF-RHF iter   1: -2358.13427137836379    8.86628e+00   9.45476e-04 DIIS/ADIIS
   @DF-RHF iter   2: -2359.02531734702234   -8.91046e-01   3.23081e-04 DIIS/ADIIS
   @DF-RHF iter   3: -2359.11495202696733   -8.96347e-02   1.28746e-04 DIIS/ADIIS
   @DF-RHF iter   4: -2359.12906309259370   -1.41111e-02   5.61876e-05 DIIS
   @DF-RHF iter   5: -2359.13194714397787   -2.88405e-03   1.59156e-05 DIIS
   @DF-RHF iter   6: -2359.13224943717432   -3.02293e-04   5.76706e-06 DIIS
   @DF-RHF iter   7: -2359.13234066591303   -9.12287e-05   2.56257e-06 DIIS
   @DF-RHF iter   8: -2359.13236694179386   -2.62759e-05   1.24768e-06 DIIS
   @DF-RHF iter   9: -2359.13237411661930   -7.17483e-06   3.80095e-07 DIIS
   @DF-RHF iter  10: -2359.13237453895817   -4.22339e-07   1.87667e-07 DIIS
   @DF-RHF iter  11: -2359.13237459274433   -5.37862e-08   7.25185e-08 DIIS
   @DF-RHF iter  12: -2359.13237460647906   -1.37347e-08   3.78361e-08 DIIS
   @DF-RHF iter  13: -2359.13237461330937   -6.83031e-09   2.00996e-08 DIIS
   @DF-RHF iter  14: -2359.13237461600511   -2.69574e-09   1.44076e-08 DIIS
   @DF-RHF iter  15: -2359.13237461747258   -1.46747e-09   9.04890e-09 DIIS
  Energy and wave function converged.


  ==> Post-Iterations <==

    Orbital Energies [Eh]
    ---------------------

    Doubly Occupied:                                                      

       1A    -15.779008     2A    -15.778486     3A    -11.478256  
       4A    -11.406342     5A    -11.404807     6A    -11.394821  
       7A    -11.388854     8A    -11.355257     9A    -11.354795  
      10A    -11.354161    11A    -11.353386    12A    -11.353089  
      13A    -11.352738    14A    -11.352078    15A    -11.351801  
      16A    -11.351653    17A    -11.351450    18A    -11.350792  
      19A    -11.349155    20A    -11.348639    21A    -11.348453  
      22A    -11.348351    23A    -11.347996    24A    -11.347874  
      25A    -11.347762    26A    -11.347522    27A    -11.347342  
      28A    -11.347124    29A    -11.346829    30A    -11.346725  
      31A    -11.346621    32A    -11.346240    33A    -11.346047  
      34A    -11.345961    35A    -11.345850    36A    -11.345712  
      37A    -11.345655    38A    -11.345249    39A    -11.345189  
      40A    -11.344888    41A    -11.344783    42A    -11.343818  
      43A    -11.343727    44A    -11.338207    45A    -11.337986  
      46A    -11.337433    47A    -11.337416    48A    -11.337188  
      49A    -11.336892    50A    -11.335271    51A    -11.335049  
      52A    -11.334521    53A    -11.334218    54A    -11.333812  
      55A    -11.333611    56A    -11.333475    57A    -11.333453  
      58A    -11.332986    59A    -11.332750    60A    -11.331899  
      61A    -11.331894    62A     -1.526110    63A     -1.381927  
      64A     -1.339310    65A     -1.312788    66A     -1.310476  
      67A     -1.279655    68A     -1.278698    69A     -1.272410  
      70A     -1.244914    71A     -1.237626    72A     -1.227210  
      73A     -1.226369    74A     -1.200059    75A     -1.199894  
      76A     -1.187976    77A     -1.173670    78A     -1.172278  
      79A     -1.168521    80A     -1.152079    81A     -1.152026  
      82A     -1.137804    83A     -1.128073    84A     -1.115628  
      85A     -1.113789    86A     -1.111998    87A     -1.104066  
      88A     -1.098184    89A     -1.077842    90A     -1.076393  
      91A     -1.067140    92A     -1.048433    93A     -1.048394  
      94A     -0.983362    95A     -0.982642    96A     -0.978843  
      97A     -0.976517    98A     -0.975862    99A     -0.970924  
     100A     -0.970564   101A     -0.969854   102A     -0.948861  
     103A     -0.947197   104A     -0.921471   105A     -0.906383  
     106A     -0.905633   107A     -0.901330   108A     -0.900546  
     109A     -0.881050   110A     -0.880265   111A     -0.867296  
     112A     -0.836410   113A     -0.834169   114A     -0.822410  
     115A     -0.821966   116A     -0.818282   117A     -0.818225  
     118A     -0.815032   119A     -0.804203   120A     -0.786181  
     121A     -0.785602   122A     -0.781441   123A     -0.780940  
     124A     -0.767434   125A     -0.763574   126A     -0.757324  
     127A     -0.746437   128A     -0.740808   129A     -0.740276  
     130A     -0.738604   131A     -0.735412   132A     -0.735319  
     133A     -0.734347   134A     -0.725763   135A     -0.725276  
     136A     -0.717260   137A     -0.715616   138A     -0.715334  
     139A     -0.695822   140A     -0.690043   141A     -0.687386  
     142A     -0.686660   143A     -0.685349   144A     -0.682644  
     145A     -0.681910   146A     -0.681020   147A     -0.680759  
     148A     -0.678855   149A     -0.678089   150A     -0.668581  
     151A     -0.664006   152A     -0.654451   153A     -0.654023  
     154A     -0.652611   155A     -0.651633   156A     -0.651545  
     157A     -0.646475   158A     -0.639729   159A     -0.639429  
     160A     -0.626757   161A     -0.623772   162A     -0.623694  
     163A     -0.618967   164A     -0.616244   165A     -0.613419  
     166A     -0.609379   167A     -0.608864   168A     -0.585628  
     169A     -0.583802   170A     -0.578642   171A     -0.575839  
     172A     -0.572970   173A     -0.568721   174A     -0.568456  
     175A     -0.567626   176A     -0.557410   177A     -0.549263  
     178A     -0.540398   179A     -0.540025   180A     -0.525137  
     181A     -0.524087   182A     -0.494621   183A     -0.493230  
     184A     -0.487746   185A     -0.478179   186A     -0.459853  
     187A     -0.459165   188A     -0.435704   189A     -0.432024  
     190A     -0.425971   191A     -0.416766   192A     -0.397558  
     193A     -0.380850   194A     -0.377246   195A     -0.375970  
     196A     -0.311384   197A     -0.311186  

    Virtual:                                                              

     198A     -0.076732   199A     -0.075585   200A     -0.041222  
     201A     -0.027304   202A     -0.027225   203A     -0.025945  
     204A     -0.022460   205A     -0.016697   206A     -0.012425  
     207A     -0.012040   208A     -0.011581   209A     -0.007651  
     210A     -0.005631   211A     -0.005025   212A     -0.003128  
     213A     -0.002341   214A      0.002119   215A      0.004609  
     216A      0.004744   217A      0.004991   218A      0.007009  
     219A      0.007828   220A      0.012888   221A      0.014231  
     222A      0.014260   223A      0.018908   224A      0.020746  
     225A      0.025601   226A      0.027326   227A      0.029100  
     228A      0.030053   229A      0.030173   230A      0.032624  
     231A      0.035439   232A      0.037181   233A      0.040276  
     234A      0.040645   235A      0.043373   236A      0.044170  
     237A      0.049918   238A      0.050271   239A      0.053522  
     240A      0.055529   241A      0.055946   242A      0.058650  
     243A      0.058709   244A      0.059249   245A      0.061611  
     246A      0.064724   247A      0.068543   248A      0.071880  
     249A      0.072046   250A      0.074398   251A      0.074863  
     252A      0.076719   253A      0.079829   254A      0.080500  
     255A      0.083772   256A      0.084075   257A      0.088259  
     258A      0.090381   259A      0.094319   260A      0.094653  
     261A      0.096418   262A      0.096538   263A      0.097519  
     264A      0.100634   265A      0.102269   266A      0.106079  
     267A      0.108548   268A      0.109795   269A      0.110135  
     270A      0.111949   271A      0.113067   272A      0.114202  
     273A      0.115196   274A      0.116146   275A      0.121081  
     276A      0.121437   277A      0.121845   278A      0.126289  
     279A      0.130697   280A      0.135333   281A      0.137728  
     282A      0.137965   283A      0.141315   284A      0.144062  
     285A      0.144323   286A      0.144732   287A      0.146114  
     288A      0.146727   289A      0.146812   290A      0.147002  
     291A      0.148727   292A      0.150408   293A      0.150850  
     294A      0.154152   295A      0.154587   296A      0.155266  
     297A      0.157178   298A      0.158840   299A      0.159675  
     300A      0.161086   301A      0.163787   302A      0.165235  
     303A      0.166025   304A      0.166374   305A      0.169780  
     306A      0.170457   307A      0.170789   308A      0.174130  
     309A      0.176507   310A      0.178449   311A      0.182053  
     312A      0.182539   313A      0.183310   314A      0.183810  
     315A      0.185580   316A      0.186077   317A      0.187799  
     318A      0.189457   319A      0.190138   320A      0.190793  
     321A      0.192393   322A      0.196332   323A      0.197050  
     324A      0.197658   325A      0.200687   326A      0.201622  
     327A      0.202323   328A      0.202856   329A      0.205829  
     330A      0.206356   331A      0.210641   332A      0.212334  
     333A      0.214074   334A      0.214780   335A      0.221239  
     336A      0.221716   337A      0.222699   338A      0.224935  
     339A      0.227025   340A      0.227505   341A      0.229332  
     342A      0.230180   343A      0.231182   344A      0.232494  
     345A      0.234474   346A      0.235523   347A      0.236265  
     348A      0.236884   349A      0.237416   350A      0.240127  
     351A      0.240284   352A      0.242200   353A      0.242626  
     354A      0.243554   355A      0.245366   356A      0.246904  
     357A      0.247227   358A      0.248727   359A      0.249894  
     360A      0.253703   361A      0.254179   362A      0.256139  
     363A      0.256946   364A      0.258470   365A      0.259996  
     366A      0.263079   367A      0.263816   368A      0.265560  
     369A      0.267325   370A      0.268019   371A      0.270264  
     372A      0.270614   373A      0.274041   374A      0.277922  
     375A      0.278606   376A      0.278689   377A      0.280149  
     378A      0.282038   379A      0.283302   380A      0.284053  
     381A      0.284926   382A      0.287844   383A      0.289710  
     384A      0.290559   385A      0.290856   386A      0.291409  
     387A      0.292322   388A      0.293045   389A      0.296374  
     390A      0.296997   391A      0.298264   392A      0.302026  
     393A      0.304026   394A      0.305599   395A      0.309120  
     396A      0.309870   397A      0.311384   398A      0.314403  
     399A      0.314853   400A      0.316956   401A      0.318407  
     402A      0.318745   403A      0.320363   404A      0.321198  
     405A      0.322012   406A      0.323790   407A      0.324116  
     408A      0.325493   409A      0.327222   410A      0.328249  
     411A      0.330043   412A      0.331071   413A      0.331371  
     414A      0.331717   415A      0.332844   416A      0.334763  
     417A      0.334800   418A      0.335928   419A      0.336897  
     420A      0.338687   421A      0.339505   422A      0.340786  
     423A      0.343498   424A      0.344528   425A      0.346834  
     426A      0.348203   427A      0.353012   428A      0.357045  
     429A      0.358922   430A      0.359300   431A      0.360263  
     432A      0.360609   433A      0.363242   434A      0.364333  
     435A      0.365186   436A      0.369638   437A      0.370564  
     438A      0.373298   439A      0.375235   440A      0.376657  
     441A      0.377547   442A      0.378989   443A      0.379712  
     444A      0.380152   445A      0.380875   446A      0.380973  
     447A      0.382555   448A      0.385484   449A      0.388457  
     450A      0.389082   451A      0.389950   452A      0.392603  
     453A      0.394940   454A      0.396993   455A      0.400861  
     456A      0.402146   457A      0.403002   458A      0.405232  
     459A      0.406868   460A      0.408864   461A      0.409795  
     462A      0.411511   463A      0.414267   464A      0.414818  
     465A      0.415451   466A      0.416263   467A      0.418031  
     468A      0.420193   469A      0.420397   470A      0.422117  
     471A      0.424218   472A      0.424617   473A      0.426681  
     474A      0.427510   475A      0.432073   476A      0.435505  
     477A      0.435637   478A      0.440193   479A      0.442689  
     480A      0.444553   481A      0.448747   482A      0.450196  
     483A      0.451614   484A      0.453576   485A      0.457924  
     486A      0.461421   487A      0.462091   488A      0.464147  
     489A      0.465411   490A      0.466405   491A      0.468365  
     492A      0.468678   493A      0.470106   494A      0.472379  
     495A      0.474932   496A      0.475990   497A      0.477091  
     498A      0.480195   499A      0.481101   500A      0.486778  
     501A      0.488606   502A      0.490547   503A      0.492421  
     504A      0.497952   505A      0.502566   506A      0.505895  
     507A      0.506815   508A      0.512591   509A      0.515653  
     510A      0.517256   511A      0.518134   512A      0.522416  
     513A      0.526358   514A      0.534082   515A      0.537728  
     516A      0.543173   517A      0.544280   518A      0.544918  
     519A      0.547073   520A      0.553763   521A      0.565408  
     522A      0.570483   523A      0.572898   524A      0.580545  
     525A      0.584552   526A      0.585711   527A      0.586863  
     528A      0.590401   529A      0.592554   530A      0.593732  
     531A      0.604765   532A      0.615269   533A      0.631286  
     534A      0.631393   535A      0.657059   536A      0.658747  
     537A      0.660065   538A      0.660828   539A      0.661221  
     540A      0.661616   541A      0.671864   542A      0.672619  
     543A      0.682922   544A      0.691098   545A      0.705024  
     546A      0.713225   547A      0.715817   548A      0.718463  
     549A      0.728778   550A      0.733818   551A      0.735381  
     552A      0.743131   553A      0.744990   554A      0.750423  
     555A      0.751252   556A      0.760644   557A      0.766783  
     558A      0.769121   559A      0.772726   560A      0.777932  
     561A      0.779473   562A      0.780801   563A      0.787651  
     564A      0.790058   565A      0.791990   566A      0.793518  
     567A      0.794746   568A      0.798206   569A      0.798802  
     570A      0.800539   571A      0.804032   572A      0.804754  
     573A      0.807515   574A      0.809732   575A      0.813857  
     576A      0.814495   577A      0.816115   578A      0.816270  
     579A      0.819055   580A      0.823907   581A      0.827843  
     582A      0.831942   583A      0.833004   584A      0.834395  
     585A      0.835586   586A      0.836439   587A      0.838577  
     588A      0.840328   589A      0.841089   590A      0.842437  
     591A      0.845688   592A      0.847926   593A      0.850292  
     594A      0.852758   595A      0.854568   596A      0.856330  
     597A      0.860364   598A      0.861333   599A      0.863939  
     600A      0.867854   601A      0.869611   602A      0.872333  
     603A      0.875900   604A      0.878571   605A      0.879391  
     606A      0.883073   607A      0.884016   608A      0.884446  
     609A      0.886117   610A      0.889114   611A      0.890905  
     612A      0.893737   613A      0.894246   614A      0.898792  
     615A      0.899573   616A      0.903765   617A      0.905191  
     618A      0.906589   619A      0.909355   620A      0.910725  
     621A      0.914457   622A      0.920557   623A      0.921672  
     624A      0.924117   625A      0.925919   626A      0.927727  
     627A      0.929166   628A      0.934594   629A      0.934642  
     630A      0.937766   631A      0.938159   632A      0.942294  
     633A      0.943525   634A      0.946399   635A      0.946912  
     636A      0.949355   637A      0.949397   638A      0.950764  
     639A      0.957017   640A      0.959038   641A      0.960206  
     642A      0.961451   643A      0.963365   644A      0.964463  
     645A      0.965648   646A      0.968530   647A      0.969809  
     648A      0.970185   649A      0.973830   650A      0.975665  
     651A      0.977844   652A      0.978341   653A      0.980571  
     654A      0.982123   655A      0.984933   656A      0.986309  
     657A      0.988681   658A      0.991557   659A      0.993062  
     660A      0.994191   661A      0.996058   662A      0.998132  
     663A      1.002834   664A      1.003478   665A      1.008407  
     666A      1.008655   667A      1.010427   668A      1.010511  
     669A      1.014230   670A      1.016785   671A      1.020553  
     672A      1.022313   673A      1.024734   674A      1.025255  
     675A      1.025953   676A      1.028054   677A      1.029349  
     678A      1.030990   679A      1.034828   680A      1.037314  
     681A      1.038807   682A      1.042761   683A      1.044061  
     684A      1.046046   685A      1.051617   686A      1.054047  
     687A      1.056968   688A      1.060246   689A      1.063750  
     690A      1.064410   691A      1.067238   692A      1.067424  
     693A      1.072074   694A      1.076130   695A      1.076660  
     696A      1.079418   697A      1.082368   698A      1.085222  
     699A      1.087330   700A      1.094817   701A      1.101095  
     702A      1.105702   703A      1.110277   704A      1.113369  
     705A      1.115732   706A      1.116720   707A      1.122957  
     708A      1.125499   709A      1.129506   710A      1.131946  
     711A      1.135246   712A      1.136364   713A      1.140289  
     714A      1.141811   715A      1.142899   716A      1.150308  
     717A      1.152495   718A      1.157120   719A      1.158248  
     720A      1.159446   721A      1.165634   722A      1.167117  
     723A      1.168835   724A      1.171472   725A      1.173816  
     726A      1.176456   727A      1.178344   728A      1.180564  
     729A      1.182728   730A      1.183299   731A      1.187743  
     732A      1.190050   733A      1.192450   734A      1.200459  
     735A      1.201451   736A      1.202594   737A      1.204772  
     738A      1.211380   739A      1.212617   740A      1.214429  
     741A      1.216847   742A      1.220933   743A      1.224665  
     744A      1.228279   745A      1.233010   746A      1.238124  
     747A      1.239386   748A      1.242669   749A      1.244312  
     750A      1.247801   751A      1.249338   752A      1.251340  
     753A      1.254024   754A      1.257127   755A      1.258088  
     756A      1.262410   757A      1.263294   758A      1.265364  
     759A      1.268695   760A      1.273363   761A      1.277305  
     762A      1.280803   763A      1.282827   764A      1.287520  
     765A      1.289543   766A      1.294566   767A      1.300798  
     768A      1.302591   769A      1.303390   770A      1.307662  
     771A      1.315430   772A      1.316722   773A      1.320013  
     774A      1.320987   775A      1.325364   776A      1.328351  
     777A      1.331400   778A      1.333528   779A      1.334135  
     780A      1.338742   781A      1.341297   782A      1.342388  
     783A      1.344836   784A      1.350254   785A      1.354188  
     786A      1.358714   787A      1.361377   788A      1.364530  
     789A      1.365647   790A      1.366472   791A      1.369518  
     792A      1.371642   793A      1.373173   794A      1.378763  
     795A      1.380922   796A      1.386819   797A      1.391557  
     798A      1.395528   799A      1.405233   800A      1.412992  
     801A      1.417510   802A      1.426845   803A      1.428998  
     804A      1.434642   805A      1.440316   806A      1.442817  
     807A      1.446987   808A      1.455957   809A      1.466275  
     810A      1.472668   811A      1.473884   812A      1.482934  
     813A      1.491447   814A      1.502081   815A      1.508909  
     816A      1.515190   817A      1.518255   818A      1.519569  
     819A      1.526841   820A      1.538227   821A      1.544022  
     822A      1.546939   823A      1.550096   824A      1.551734  
     825A      1.552977   826A      1.554873   827A      1.556439  
     828A      1.559915   829A      1.562936   830A      1.568900  
     831A      1.571649   832A      1.576216   833A      1.577133  
     834A      1.579649   835A      1.581689   836A      1.583285  
     837A      1.587677   838A      1.589886   839A      1.592730  
     840A      1.598508   841A      1.599320   842A      1.601237  
     843A      1.603232   844A      1.607329   845A      1.609797  
     846A      1.613064   847A      1.614536   848A      1.619825  
     849A      1.627364   850A      1.628930   851A      1.631558  
     852A      1.638120   853A      1.643829   854A      1.647793  
     855A      1.651385   856A      1.659080   857A      1.669557  
     858A      1.674159   859A      1.678035   860A      1.679624  
     861A      1.681359   862A      1.683312   863A      1.685559  
     864A      1.687323   865A      1.693786   866A      1.701743  
     867A      1.704178   868A      1.710185   869A      1.721063  
     870A      1.725374   871A      1.729217   872A      1.731252  
     873A      1.735071   874A      1.736151   875A      1.740241  
     876A      1.746098   877A      1.747811   878A      1.757421  
     879A      1.758569   880A      1.760195   881A      1.764673  
     882A      1.771129   883A      1.774734   884A      1.777008  
     885A      1.781565   886A      1.783828   887A      1.787533  
     888A      1.789204   889A      1.793406   890A      1.796342  
     891A      1.797551   892A      1.805634   893A      1.807617  
     894A      1.810395   895A      1.812147   896A      1.816660  
     897A      1.821178   898A      1.822843   899A      1.824015  
     900A      1.826553   901A      1.828851   902A      1.829445  
     903A      1.830972   904A      1.833795   905A      1.838968  
     906A      1.843132   907A      1.844742   908A      1.848705  
     909A      1.855721   910A      1.856856   911A      1.860873  
     912A      1.864949   913A      1.866364   914A      1.867844  
     915A      1.868985   916A      1.871210   917A      1.873022  
     918A      1.874957   919A      1.879451   920A      1.889038  
     921A      1.891118   922A      1.895836   923A      1.901769  
     924A      1.905775   925A      1.908119   926A      1.910059  
     927A      1.914020   928A      1.919314   929A      1.921574  
     930A      1.924598   931A      1.928096   932A      1.928841  
     933A      1.931630   934A      1.936586   935A      1.938983  
     936A      1.942920   937A      1.945390   938A      1.945889  
     939A      1.949595   940A      1.952217   941A      1.954238  
     942A      1.958498   943A      1.960789   944A      1.964558  
     945A      1.967555   946A      1.969640   947A      1.970291  
     948A      1.972794   949A      1.975717   950A      1.977900  
     951A      1.980798   952A      1.982582   953A      1.988035  
     954A      1.991868   955A      1.996115   956A      1.997968  
     957A      2.000545   958A      2.004588   959A      2.008524  
     960A      2.010739   961A      2.012854   962A      2.013559  
     963A      2.015960   964A      2.018870   965A      2.019988  
     966A      2.020341   967A      2.022035   968A      2.026685  
     969A      2.028035   970A      2.029948   971A      2.030895  
     972A      2.031680   973A      2.035684   974A      2.038974  
     975A      2.039646   976A      2.041302   977A      2.041819  
     978A      2.043057   979A      2.047073   980A      2.049788  
     981A      2.050926   982A      2.054836   983A      2.055576  
     984A      2.059939   985A      2.061339   986A      2.062948  
     987A      2.067292   988A      2.070951   989A      2.073894  
     990A      2.077116   991A      2.081407   992A      2.085681  
     993A      2.086900   994A      2.088271   995A      2.094745  
     996A      2.097606   997A      2.099566   998A      2.102420  
     999A      2.105234  1000A      2.108174  1001A      2.109877  
    1002A      2.114985  1003A      2.116180  1004A      2.117825  
    1005A      2.120398  1006A      2.126745  1007A      2.127113  
    1008A      2.129281  1009A      2.133850  1010A      2.135190  
    1011A      2.141262  1012A      2.146140  1013A      2.158026  
    1014A      2.160191  1015A      2.162592  1016A      2.164940  
    1017A      2.166784  1018A      2.167392  1019A      2.168525  
    1020A      2.171879  1021A      2.173038  1022A      2.180901  
    1023A      2.181715  1024A      2.181928  1025A      2.186141  
    1026A      2.189580  1027A      2.192707  1028A      2.195381  
    1029A      2.199448  1030A      2.203286  1031A      2.211389  
    1032A      2.216555  1033A      2.223465  1034A      2.230913  
    1035A      2.234659  1036A      2.242267  1037A      2.245012  
    1038A      2.251418  1039A      2.253713  1040A      2.256193  
    1041A      2.261224  1042A      2.262896  1043A      2.267566  
    1044A      2.268078  1045A      2.271147  1046A      2.273515  
    1047A      2.279865  1048A      2.281167  1049A      2.292552  
    1050A      2.301189  1051A      2.308100  1052A      2.315302  
    1053A      2.316110  1054A      2.331800  1055A      2.332945  
    1056A      2.336288  1057A      2.337558  1058A      2.338661  
    1059A      2.342408  1060A      2.351698  1061A      2.369820  
    1062A      2.372324  1063A      2.373967  1064A      2.382501  
    1065A      2.393351  1066A      2.400234  1067A      2.405700  
    1068A      2.410125  1069A      2.421018  1070A      2.423655  
    1071A      2.430406  1072A      2.437693  1073A      2.445079  
    1074A      2.451430  1075A      2.462329  1076A      2.466473  
    1077A      2.467702  1078A      2.470964  1079A      2.472770  
    1080A      2.474388  1081A      2.475397  1082A      2.480085  
    1083A      2.480483  1084A      2.482235  1085A      2.485912  
    1086A      2.496990  1087A      2.498285  1088A      2.500205  
    1089A      2.507369  1090A      2.507899  1091A      2.515323  
    1092A      2.520351  1093A      2.522455  1094A      2.527575  
    1095A      2.535438  1096A      2.539944  1097A      2.546013  
    1098A      2.550984  1099A      2.556577  1100A      2.561708  
    1101A      2.566793  1102A      2.570818  1103A      2.573234  
    1104A      2.575718  1105A      2.580681  1106A      2.589345  
    1107A      2.594698  1108A      2.605503  1109A      2.609333  
    1110A      2.611989  1111A      2.619393  1112A      2.623643  
    1113A      2.624320  1114A      2.627714  1115A      2.631947  
    1116A      2.632368  1117A      2.633900  1118A      2.636375  
    1119A      2.661226  1120A      2.673360  1121A      2.679200  
    1122A      2.679635  1123A      2.681892  1124A      2.686305  
    1125A      2.711722  1126A      2.717003  1127A      2.723962  
    1128A      2.737748  1129A      2.743680  1130A      2.749263  
    1131A      2.755510  1132A      2.763539  1133A      2.765679  
    1134A      2.767514  1135A      2.770910  1136A      2.771597  
    1137A      2.783386  1138A      2.793987  1139A      2.808442  
    1140A      2.810755  1141A      2.817442  1142A      2.826749  
    1143A      2.837866  1144A      2.839318  1145A      2.843825  
    1146A      2.853932  1147A      2.858888  1148A      2.868097  
    1149A      2.871897  1150A      2.882226  1151A      2.885079  
    1152A      2.897734  1153A      2.901552  1154A      2.932325  
    1155A      2.935367  1156A      2.939815  1157A      2.960883  
    1158A      2.964159  1159A      2.975304  1160A      2.976645  
    1161A      2.983188  1162A      2.987771  1163A      3.014168  
    1164A      3.018750  1165A      3.039969  1166A      3.043542  
    1167A      3.057430  1168A      3.060191  1169A      3.063562  
    1170A      3.064326  1171A      3.066467  1172A      3.067886  
    1173A      3.070534  1174A      3.075239  1175A      3.076891  
    1176A      3.084228  1177A      3.095014  1178A      3.097520  
    1179A      3.102919  1180A      3.109261  1181A      3.123944  
    1182A      3.132674  1183A      3.139116  1184A      3.159096  
    1185A      3.160239  1186A      3.168841  1187A      3.175474  
    1188A      3.200873  1189A      3.213408  1190A      3.236531  
    1191A      3.242707  1192A      3.255096  1193A      3.339599  
    1194A      3.340444  1195A      3.410337  1196A      3.413720  
    1197A      3.476298  1198A      3.487140  1199A      3.531586  
    1200A      3.542709  1201A      3.558943  1202A      3.569442  
    1203A      3.577970  1204A      3.588104  1205A      3.615073  
    1206A      3.643088  1207A      3.664337  1208A      3.728744  
    1209A      3.787117  1210A      3.788290  1211A      3.793844  
    1212A      3.829890  1213A      3.831735  1214A      3.846267  
    1215A      3.908183  1216A      3.922792  1217A      4.049451  
    1218A      4.059753  1219A      4.120958  

    Final Occupation by Irrep:
              A 
    DOCC [   197 ]
    NA   [   197 ]
    NB   [   197 ]

  @DF-RHF Final Energy: -2359.13237461747258

   => Energetics <=

    Nuclear Repulsion Energy =           8596.0503617288995883
    One-Electron Energy =              -20289.2157155286768102
    Two-Electron Energy =                9334.0329791823041887
    Total Energy =                      -2359.1323746174730331

Computation Completed


Properties will be evaluated at   0.000000,   0.000000,   0.000000 [a0]

Properties computed using the SCF density matrix


 Multipole Moments:

 ------------------------------------------------------------------------------------
     Multipole            Electronic (a.u.)      Nuclear  (a.u.)        Total (a.u.)
 ------------------------------------------------------------------------------------

 L = 1.  Multiply by 2.5417464519 to convert [e a0] to [Debye]
 Dipole X            :          0.0044255            0.0006313            0.0050568
 Dipole Y            :         -1.6710505            1.8864948            0.2154443
 Dipole Z            :        -11.7340154           14.5396051            2.8055896
 Magnitude           :                                                    2.8138541

 ------------------------------------------------------------------------------------

*** tstop() called on d-16-7-4 at Mon Jan 22 16:48:42 2024
Module time:
	user time   =    4883.92 seconds =      81.40 minutes
	system time =     271.65 seconds =       4.53 minutes
	total time  =       1002 seconds =      16.70 minutes
Total time:
	user time   =    4883.92 seconds =      81.40 minutes
	system time =     271.65 seconds =       4.53 minutes
	total time  =       1002 seconds =      16.70 minutes

  //>>>>>>>>>>>>>>>>>>>>>>>>>>>>>>>>>>>//
  //            Monomer A HF           //
  //<<<<<<<<<<<<<<<<<<<<<<<<<<<<<<<<<<<//

   => Libint2 <=

    Primary   basis highest AM E, G, H:  7, 7, 4
    Auxiliary basis highest AM E, G, H:  7, 7, 5
    Onebody   basis highest AM E, G, H:  7, 7, 5
    Solid Harmonics ordering:            gaussian

*** tstart() called on d-16-7-4
*** at Mon Jan 22 16:48:42 2024

   => Loading Basis Set <=

    Name: JUN-CC-PVDZ
    Role: ORBITAL
    Keyword: BASIS
    atoms 1-2, 4-5, 10, 17-70 entry C          line   164 file /home/gridsan/tfroembgen/.conda/envs/psi4test/share/psi4/basis/jun-cc-pvdz.gbs 
    atoms 3, 6                entry N          line   198 file /home/gridsan/tfroembgen/.conda/envs/psi4test/share/psi4/basis/jun-cc-pvdz.gbs 
    atoms 7-9, 11-16, 71-88   entry H          line    36 file /home/gridsan/tfroembgen/.conda/envs/psi4test/share/psi4/basis/jun-cc-pvdz.gbs 


         ---------------------------------------------------------
                                   SCF
               by Justin Turney, Rob Parrish, Andy Simmonett
                          and Daniel G. A. Smith
                              RHF Reference
                       12 Threads,  30517 MiB Core
         ---------------------------------------------------------

  ==> Geometry <==

    Molecular point group: c1
    Full point group: C1

    Geometry (in Angstrom), charge = 1, multiplicity = 1:

       Center              X                  Y                   Z               Mass       
    ------------   -----------------  -----------------  -----------------  -----------------
         C            0.680066520158    -1.215933861162     2.451901360098    12.000000000000
         C           -0.680504479842    -1.215549861162     2.449873360098    12.000000000000
         N           -1.085635479842     0.102774138838     2.448875360098    14.003074004430
         C            0.000107520158     0.884175138838     2.445599360098    12.000000000000
         C           -2.477365479842     0.570753138838     2.399469360098    12.000000000000
         N            1.085221520158     0.102774138838     2.448875360098    14.003074004430
         H            1.385145520158    -2.033372861162     2.459729360098     1.007825032230
         H           -1.385302479842    -2.033218861162     2.450063360098     1.007825032230
         H           -0.000009479842     1.965264138838     2.443852360098     1.007825032230
         C            2.478116520158     0.567872138838     2.465767360098    12.000000000000
         H            2.490591520158     1.658125138838     2.438422360098     1.007825032230
         H            2.967027520158     0.220696138838     3.379213360098     1.007825032230
         H            3.001427520158     0.176400138838     1.590284360098     1.007825032230
         H           -2.857359479842     0.490794138838     1.377398360098     1.007825032230
         H           -3.082679479842    -0.042310861162     3.069553360098     1.007825032230
         H           -2.518128479842     1.610701138838     2.726453360098     1.007825032230
      Gh(C)           1.225311895423     0.707533799757    -0.350003012619    12.000000000000
      Gh(C)           1.225323856051    -0.707543383733    -0.362333822189    12.000000000000
      Gh(C)          -0.000006153932     1.414961424928    -0.362867445710    12.000000000000
      Gh(C)           2.456448753949     1.418323398016    -0.347116155219    12.000000000000
      Gh(C)           0.000010827279    -1.414980987797    -0.352667888385    12.000000000000
      Gh(C)          -1.225300948908     0.707540884822    -0.347751492296    12.000000000000
      Gh(C)           2.456437755320    -1.418327793043    -0.364578979046    12.000000000000
      Gh(C)          -0.000001332978     2.836796542119    -0.365270995844    12.000000000000
      Gh(C)           3.681826697470     0.709313466839    -0.364230189248    12.000000000000
      Gh(C)           2.455120048865     2.834219172327    -0.364332746209    12.000000000000
      Gh(C)           3.681821105219    -0.709338328591    -0.348157705230    12.000000000000
      Gh(C)          -1.225313598688    -0.707532004706    -0.361261060762    12.000000000000
      Gh(C)           1.226699581202     3.543464994832    -0.347973673299    12.000000000000
      Gh(C)           0.000004784858    -2.836786628398    -0.347819720764    12.000000000000
      Gh(C)          -2.456436032848     1.418312429123    -0.347716096450    12.000000000000
      Gh(C)           2.455123417779    -2.834234517751    -0.348309613597    12.000000000000
      Gh(C)          -1.226714364589     3.543464574588    -0.347870340080    12.000000000000
      Gh(C)           4.914517295202     1.427168383327    -0.357749506218    12.000000000000
      Gh(C)           3.693150191476     3.542790803383    -0.357699706582    12.000000000000
      Gh(C)          -2.456437600068    -1.418317770001    -0.364604017170    12.000000000000
      Gh(C)           1.226704841943    -3.543478731069    -0.363943804049    12.000000000000
      Gh(C)          -2.455125398508     2.834212173472    -0.364326369862    12.000000000000
      Gh(C)           4.914524380782    -1.427191399106    -0.354776763484    12.000000000000
      Gh(C)           1.221424613699     4.970129576098    -0.354638329224    12.000000000000
      Gh(C)           4.893008229321     2.825183510864    -0.356532837860    12.000000000000
      Gh(C)          -1.226697008489    -3.543475486239    -0.363676599639    12.000000000000
      Gh(C)          -3.681818976526     0.709320477570    -0.364217508768    12.000000000000
      Gh(C)           3.693147101150    -3.542805830553    -0.354658872923    12.000000000000
      Gh(C)          -1.221432251994     4.970123808701    -0.354454833852    12.000000000000
      Gh(C)           6.134770972926     0.680543457943    -0.356979731669    12.000000000000
      Gh(C)           3.656788880610     4.972948754405    -0.356791068800    12.000000000000
      Gh(C)          -2.455126907733    -2.834219582223    -0.348553971395    12.000000000000
      Gh(C)          -3.681819179061    -0.709330192631    -0.348040083651    12.000000000000
      Gh(C)           4.893012617914    -2.825204594794    -0.355921685964    12.000000000000
      Gh(C)          -0.000001073113     5.650442876870    -0.355686142558    12.000000000000
      Gh(C)           6.134775112332    -0.680559343237    -0.355714411153    12.000000000000
      Gh(C)           2.478131482856     5.653572262169    -0.355502289150    12.000000000000
      Gh(C)           1.221422404738    -4.970131544095    -0.357437826247    12.000000000000
      Gh(C)          -3.693162383965     3.542792465030    -0.357534199123    12.000000000000
      Gh(C)          -1.221428520945    -4.970122792758    -0.357550588080    12.000000000000
      Gh(C)          -4.914521807942     1.427170957833    -0.357672561211    12.000000000000
      Gh(C)           3.656787019679    -4.972959715401    -0.355340568266    12.000000000000
      Gh(C)          -2.478138530106     5.653569933366    -0.355217764141    12.000000000000
      Gh(C)          -3.693141738564    -3.542794708141    -0.354774999079    12.000000000000
      Gh(C)          -4.914512483053    -1.427185489190    -0.354742066310    12.000000000000
      Gh(C)          -0.000006008926    -5.650442776176    -0.356081646680    12.000000000000
      Gh(C)          -4.893020484101     2.825184109757    -0.356542919720    12.000000000000
      Gh(C)           2.478125993298    -5.653578033051    -0.356431169058    12.000000000000
      Gh(C)          -3.656798710258     4.972951692879    -0.356614388425    12.000000000000
      Gh(C)          -4.892999478856    -2.825196256222    -0.356075721662    12.000000000000
      Gh(C)          -2.478128498083    -5.653570659169    -0.356706356705    12.000000000000
      Gh(C)          -6.134770503331     0.680544277094    -0.357005283371    12.000000000000
      Gh(C)          -3.656788833189    -4.972948512133    -0.355554856082    12.000000000000
      Gh(C)          -6.134765042913    -0.680558404644    -0.355734886948    12.000000000000
      Gh(H)           5.835288495816     3.369271405792    -0.352173512197     1.007825032230
      Gh(H)           7.073859172747     1.228212759737    -0.356518088275     1.007825032230
      Gh(H)           4.600663264174     5.512376313291    -0.356285868048     1.007825032230
      Gh(H)           5.835283387305    -3.369310545891    -0.360376153279     1.007825032230
      Gh(H)          -0.000012151306     6.738526184974    -0.360035387566     1.007825032230
      Gh(H)           7.073861171831    -1.228231431906    -0.356223149247     1.007825032230
      Gh(H)           2.473313731799     6.740679802232    -0.355969010080     1.007825032230
      Gh(H)           4.600668491381    -5.512380618338    -0.355750565434     1.007825032230
      Gh(H)          -2.473318680537     6.740677230444    -0.355667663455     1.007825032230
      Gh(H)          -0.000010268228    -6.738532665614    -0.351551961695     1.007825032230
      Gh(H)          -5.835301914343     3.369266461134    -0.352037490049     1.007825032230
      Gh(H)           2.473307923831    -6.740689863591    -0.355860838633     1.007825032230
      Gh(H)          -4.600674841208     5.512373537441    -0.356120539724     1.007825032230
      Gh(H)          -5.835279506835    -3.369293452942    -0.360655459160     1.007825032230
      Gh(H)          -2.473300347440    -6.740683567302    -0.356310155177     1.007825032230
      Gh(H)          -7.073857766768     1.228215983678    -0.356602079756     1.007825032230
      Gh(H)          -4.600673786085    -5.512367158949    -0.355922873457     1.007825032230
      Gh(H)          -7.073856934409    -1.228225121139    -0.356318005714     1.007825032230

  Running in c1 symmetry.

  Rotational constants: A =      0.00202  B =      0.00198  C =      0.00109 [cm^-1]
  Rotational constants: A =     60.59347  B =     59.37154  C =     32.56832 [MHz]
  Nuclear repulsion =  306.774908447733026

  Charge       = 1
  Multiplicity = 1
  Electrons    = 52
  Nalpha       = 26
  Nbeta        = 26

  ==> Algorithm <==

  SCF Algorithm Type is DF.
  DIIS enabled.
  MOM disabled.
  Fractional occupation disabled.
  Guess Type is SAD.
  Energy threshold   = 1.00e-08
  Density threshold  = 1.00e-08
  Integral threshold = 1.00e-12

  ==> Primary Basis <==

  Basis Set: JUN-CC-PVDZ
    Blend: JUN-CC-PVDZ
    Number of shells: 569
    Number of basis functions: 1233
    Number of Cartesian functions: 1294
    Spherical Harmonics?: true
    Max angular momentum: 2

   => Loading Basis Set <=

    Name: (JUN-CC-PVDZ AUX)
    Role: JKFIT
    Keyword: DF_BASIS_SCF
    atoms 1-2, 4-5, 10, 17-70 entry C          line   146 file /home/gridsan/tfroembgen/.conda/envs/psi4test/share/psi4/basis/jun-cc-pvdz-jkfit.gbs 
    atoms 3, 6                entry N          line   202 file /home/gridsan/tfroembgen/.conda/envs/psi4test/share/psi4/basis/jun-cc-pvdz-jkfit.gbs 
    atoms 7-9, 11-16, 71-88   entry H          line    70 file /home/gridsan/tfroembgen/.conda/envs/psi4test/share/psi4/basis/jun-cc-pvdz-jkfit.gbs 

  ==> Integral Setup <==

  ==> DiskDFJK: Density-Fitted J/K Matrices <==

    J tasked:                  Yes
    K tasked:                  Yes
    wK tasked:                  No
    OpenMP threads:             12
    Integrals threads:          12
    Memory [MiB]:            22888
    Algorithm:                Disk
    Integral Cache:           LOAD
    Schwarz Cutoff:          1E-12
    Fitting Condition:       1E-10

   => Auxiliary Basis Set <=

  Basis Set: (JUN-CC-PVDZ AUX)
    Blend: JUN-CC-PVDZ-JKFIT
    Number of shells: 1890
    Number of basis functions: 5440
    Number of Cartesian functions: 6226
    Spherical Harmonics?: true
    Max angular momentum: 3

  Minimum eigenvalue in the overlap matrix is 3.4852143949E-10.
  Reciprocal condition number of the overlap matrix is 1.2818426299E-11.
    Using canonical orthogonalization.
  Overall, 14 of 1233 possible MOs eliminated.


  ==> Pre-Iterations <==

  SCF Guess: Superposition of Atomic Densities via on-the-fly atomic UHF (no occupation information).

   -------------------------
    Irrep   Nso     Nmo    
   -------------------------
     A       1233    1219 
   -------------------------
    Total    1233    1219
   -------------------------

  ==> Iterations <==

                           Total Energy        Delta E     RMS |[F,P]|

   @DF-RHF iter SAD:  -303.36539057858880   -3.03365e+02   0.00000e+00 
   @DF-RHF iter   1:  -303.17196827644813    1.93422e-01   3.45911e-04 DIIS/ADIIS
   @DF-RHF iter   2:  -303.28644733282738   -1.14479e-01   1.16282e-04 DIIS/ADIIS
   @DF-RHF iter   3:  -303.29799491809234   -1.15476e-02   4.56540e-05 DIIS
   @DF-RHF iter   4:  -303.29993032933589   -1.93541e-03   1.00360e-05 DIIS
   @DF-RHF iter   5:  -303.30004000246794   -1.09673e-04   2.45688e-06 DIIS
   @DF-RHF iter   6:  -303.30004974674097   -9.74427e-06   6.65463e-07 DIIS
   @DF-RHF iter   7:  -303.30005087209685   -1.12536e-06   3.42842e-07 DIIS
   @DF-RHF iter   8:  -303.30005114575818   -2.73661e-07   1.38724e-07 DIIS
   @DF-RHF iter   9:  -303.30005119900932   -5.32511e-08   3.45865e-08 DIIS
   @DF-RHF iter  10:  -303.30005120194346   -2.93414e-09   1.30374e-08 DIIS
   @DF-RHF iter  11:  -303.30005120219471   -2.51248e-10   3.21342e-09 DIIS
  Energy and wave function converged.


  ==> Post-Iterations <==

    Orbital Energies [Eh]
    ---------------------

    Doubly Occupied:                                                      

       1A    -15.834502     2A    -15.833941     3A    -11.529001  
       4A    -11.459611     5A    -11.458044     6A    -11.449348  
       7A    -11.449185     8A     -1.577162     9A     -1.432870  
      10A     -1.237789    11A     -1.188596    12A     -1.118306  
      13A     -1.021633    14A     -0.996118    15A     -0.916324  
      16A     -0.849991    17A     -0.815556    18A     -0.812284  
      19A     -0.789366    20A     -0.785861    21A     -0.781075  
      22A     -0.729205    23A     -0.725312    24A     -0.716836  
      25A     -0.595565    26A     -0.523436  

    Virtual:                                                              

      27A     -0.080574    28A     -0.071349    29A     -0.063902  
      30A     -0.063694    31A     -0.045573    32A     -0.044184  
      33A     -0.043425    34A     -0.039874    35A     -0.035293  
      36A     -0.030958    37A     -0.023078    38A     -0.022649  
      39A     -0.020304    40A     -0.016734    41A     -0.015917  
      42A     -0.014340    43A     -0.010598    44A     -0.007435  
      45A      0.001194    46A      0.001743    47A      0.003064  
      48A      0.003183    49A      0.006161    50A      0.007861  
      51A      0.009690    52A      0.011599    53A      0.012878  
      54A      0.015366    55A      0.025706    56A      0.025800  
      57A      0.026855    58A      0.027553    59A      0.032143  
      60A      0.032676    61A      0.033425    62A      0.034863  
      63A      0.037374    64A      0.038325    65A      0.039740  
      66A      0.042827    67A      0.044266    68A      0.050071  
      69A      0.052224    70A      0.054830    71A      0.055040  
      72A      0.056835    73A      0.057928    74A      0.058422  
      75A      0.060008    76A      0.062413    77A      0.063936  
      78A      0.064035    79A      0.064919    80A      0.069282  
      81A      0.070072    82A      0.072909    83A      0.075705  
      84A      0.077257    85A      0.078481    86A      0.079159  
      87A      0.080956    88A      0.081501    89A      0.082494  
      90A      0.082702    91A      0.086771    92A      0.087437  
      93A      0.092385    94A      0.092658    95A      0.096601  
      96A      0.096770    97A      0.097093    98A      0.099826  
      99A      0.101352   100A      0.105981   101A      0.106914  
     102A      0.107645   103A      0.108081   104A      0.108865  
     105A      0.109752   106A      0.110844   107A      0.111184  
     108A      0.114433   109A      0.115495   110A      0.115914  
     111A      0.119559   112A      0.121239   113A      0.123051  
     114A      0.124378   115A      0.125920   116A      0.128687  
     117A      0.129840   118A      0.130315   119A      0.131039  
     120A      0.133576   121A      0.137396   122A      0.138607  
     123A      0.139626   124A      0.141064   125A      0.143109  
     126A      0.145037   127A      0.147575   128A      0.150740  
     129A      0.150818   130A      0.151121   131A      0.152320  
     132A      0.153090   133A      0.154077   134A      0.157146  
     135A      0.157329   136A      0.158759   137A      0.160563  
     138A      0.161075   139A      0.163088   140A      0.165297  
     141A      0.166801   142A      0.168120   143A      0.168574  
     144A      0.169033   145A      0.169441   146A      0.170924  
     147A      0.172568   148A      0.173843   149A      0.175939  
     150A      0.177061   151A      0.178560   152A      0.179875  
     153A      0.183758   154A      0.186234   155A      0.189611  
     156A      0.193068   157A      0.195187   158A      0.197215  
     159A      0.198108   160A      0.198696   161A      0.199337  
     162A      0.200594   163A      0.202480   164A      0.203914  
     165A      0.205619   166A      0.206452   167A      0.208576  
     168A      0.212195   169A      0.212527   170A      0.213865  
     171A      0.217139   172A      0.218570   173A      0.219052  
     174A      0.220068   175A      0.220624   176A      0.221303  
     177A      0.223038   178A      0.225580   179A      0.227282  
     180A      0.230832   181A      0.231524   182A      0.231667  
     183A      0.233415   184A      0.234160   185A      0.236858  
     186A      0.239155   187A      0.242056   188A      0.249003  
     189A      0.250189   190A      0.250854   191A      0.253728  
     192A      0.255968   193A      0.257438   194A      0.258420  
     195A      0.259382   196A      0.261931   197A      0.262341  
     198A      0.264673   199A      0.267683   200A      0.268611  
     201A      0.269999   202A      0.272074   203A      0.274654  
     204A      0.275044   205A      0.275826   206A      0.276225  
     207A      0.279625   208A      0.280669   209A      0.280827  
     210A      0.283547   211A      0.286264   212A      0.288140  
     213A      0.288313   214A      0.289512   215A      0.291898  
     216A      0.297019   217A      0.298000   218A      0.300867  
     219A      0.301796   220A      0.304419   221A      0.305372  
     222A      0.308351   223A      0.308597   224A      0.310752  
     225A      0.312650   226A      0.316474   227A      0.317489  
     228A      0.317589   229A      0.321014   230A      0.321635  
     231A      0.324624   232A      0.326489   233A      0.329611  
     234A      0.332797   235A      0.336568   236A      0.339774  
     237A      0.342168   238A      0.344936   239A      0.345119  
     240A      0.349770   241A      0.351300   242A      0.354056  
     243A      0.354507   244A      0.356099   245A      0.359343  
     246A      0.361166   247A      0.362297   248A      0.363705  
     249A      0.365992   250A      0.366416   251A      0.370252  
     252A      0.371019   253A      0.373529   254A      0.374015  
     255A      0.376025   256A      0.376347   257A      0.378758  
     258A      0.380226   259A      0.382013   260A      0.384558  
     261A      0.385716   262A      0.387085   263A      0.388125  
     264A      0.390698   265A      0.391823   266A      0.394920  
     267A      0.398162   268A      0.398480   269A      0.399993  
     270A      0.401337   271A      0.404482   272A      0.405239  
     273A      0.406868   274A      0.408954   275A      0.413303  
     276A      0.414678   277A      0.416296   278A      0.418287  
     279A      0.419179   280A      0.421992   281A      0.424951  
     282A      0.429376   283A      0.429584   284A      0.429890  
     285A      0.431473   286A      0.435334   287A      0.437079  
     288A      0.440147   289A      0.441161   290A      0.444627  
     291A      0.446608   292A      0.448434   293A      0.449012  
     294A      0.450310   295A      0.451613   296A      0.453887  
     297A      0.456763   298A      0.459704   299A      0.462387  
     300A      0.463611   301A      0.466311   302A      0.467475  
     303A      0.469281   304A      0.470571   305A      0.477019  
     306A      0.481574   307A      0.482375   308A      0.484656  
     309A      0.489771   310A      0.492031   311A      0.492765  
     312A      0.493853   313A      0.495831   314A      0.497650  
     315A      0.497808   316A      0.499542   317A      0.502301  
     318A      0.506468   319A      0.508396   320A      0.510802  
     321A      0.513238   322A      0.516327   323A      0.518252  
     324A      0.519851   325A      0.522221   326A      0.525080  
     327A      0.525789   328A      0.534621   329A      0.535165  
     330A      0.536176   331A      0.536857   332A      0.540145  
     333A      0.544575   334A      0.546193   335A      0.547998  
     336A      0.550125   337A      0.551356   338A      0.552483  
     339A      0.557205   340A      0.558627   341A      0.561034  
     342A      0.562284   343A      0.562852   344A      0.563354  
     345A      0.565530   346A      0.570846   347A      0.576434  
     348A      0.578628   349A      0.582497   350A      0.583856  
     351A      0.584578   352A      0.587141   353A      0.589150  
     354A      0.590344   355A      0.593911   356A      0.595113  
     357A      0.595637   358A      0.596610   359A      0.599640  
     360A      0.600998   361A      0.602865   362A      0.606208  
     363A      0.608300   364A      0.612244   365A      0.615057  
     366A      0.616232   367A      0.618744   368A      0.621179  
     369A      0.624515   370A      0.625951   371A      0.629679  
     372A      0.634790   373A      0.639544   374A      0.644917  
     375A      0.646128   376A      0.647810   377A      0.654504  
     378A      0.661608   379A      0.664083   380A      0.665126  
     381A      0.667961   382A      0.669780   383A      0.672059  
     384A      0.672622   385A      0.674269   386A      0.675965  
     387A      0.676619   388A      0.677286   389A      0.679399  
     390A      0.679719   391A      0.682226   392A      0.684470  
     393A      0.687352   394A      0.692255   395A      0.695425  
     396A      0.700484   397A      0.701786   398A      0.704040  
     399A      0.705031   400A      0.706314   401A      0.710362  
     402A      0.712393   403A      0.715968   404A      0.721282  
     405A      0.722010   406A      0.724880   407A      0.734487  
     408A      0.738081   409A      0.748196   410A      0.753286  
     411A      0.761251   412A      0.761538   413A      0.765125  
     414A      0.766176   415A      0.767446   416A      0.771381  
     417A      0.779447   418A      0.785622   419A      0.788213  
     420A      0.792987   421A      0.796103   422A      0.800768  
     423A      0.804096   424A      0.808210   425A      0.809809  
     426A      0.813972   427A      0.817048   428A      0.819387  
     429A      0.823952   430A      0.827975   431A      0.828486  
     432A      0.839627   433A      0.845547   434A      0.855596  
     435A      0.858971   436A      0.871561   437A      0.873097  
     438A      0.875189   439A      0.876831   440A      0.878783  
     441A      0.880574   442A      0.886496   443A      0.892187  
     444A      0.905867   445A      0.907830   446A      0.913631  
     447A      0.917030   448A      0.917108   449A      0.921993  
     450A      0.926314   451A      0.929374   452A      0.935078  
     453A      0.946636   454A      0.950477   455A      0.953907  
     456A      0.959922   457A      0.966799   458A      0.968700  
     459A      0.973809   460A      0.974226   461A      0.976753  
     462A      0.978834   463A      0.990277   464A      0.998833  
     465A      1.008132   466A      1.013022   467A      1.015427  
     468A      1.016409   469A      1.018045   470A      1.030525  
     471A      1.036149   472A      1.045152   473A      1.057156  
     474A      1.058565   475A      1.062757   476A      1.066763  
     477A      1.070749   478A      1.083912   479A      1.090770  
     480A      1.091903   481A      1.095738   482A      1.098934  
     483A      1.101918   484A      1.105593   485A      1.110486  
     486A      1.120839   487A      1.123964   488A      1.127806  
     489A      1.132510   490A      1.141083   491A      1.151103  
     492A      1.165188   493A      1.171079   494A      1.194636  
     495A      1.196014   496A      1.199234   497A      1.203293  
     498A      1.207455   499A      1.211090   500A      1.213835  
     501A      1.216739   502A      1.227195   503A      1.230888  
     504A      1.231918   505A      1.234407   506A      1.236058  
     507A      1.239783   508A      1.249259   509A      1.264141  
     510A      1.275359   511A      1.276427   512A      1.291104  
     513A      1.291807   514A      1.346886   515A      1.354746  
     516A      1.357135   517A      1.361243   518A      1.365464  
     519A      1.368878   520A      1.369046   521A      1.394711  
     522A      1.398102   523A      1.399339   524A      1.406518  
     525A      1.422955   526A      1.425332   527A      1.432491  
     528A      1.449031   529A      1.459455   530A      1.462374  
     531A      1.475212   532A      1.481159   533A      1.486876  
     534A      1.494005   535A      1.509293   536A      1.512409  
     537A      1.520141   538A      1.533890   539A      1.542101  
     540A      1.545022   541A      1.552330   542A      1.571048  
     543A      1.572400   544A      1.580645   545A      1.586323  
     546A      1.588319   547A      1.595199   548A      1.600591  
     549A      1.605397   550A      1.611046   551A      1.614127  
     552A      1.623009   553A      1.632963   554A      1.644138  
     555A      1.651508   556A      1.654056   557A      1.657981  
     558A      1.662848   559A      1.668072   560A      1.676230  
     561A      1.678690   562A      1.680750   563A      1.686449  
     564A      1.686863   565A      1.692285   566A      1.698948  
     567A      1.700510   568A      1.705134   569A      1.708187  
     570A      1.709709   571A      1.711942   572A      1.717551  
     573A      1.721982   574A      1.726256   575A      1.728338  
     576A      1.733752   577A      1.734590   578A      1.735985  
     579A      1.737262   580A      1.742106   581A      1.743269  
     582A      1.747998   583A      1.750453   584A      1.755793  
     585A      1.759034   586A      1.760945   587A      1.762053  
     588A      1.768970   589A      1.771342   590A      1.772201  
     591A      1.774709   592A      1.777705   593A      1.781154  
     594A      1.784151   595A      1.789816   596A      1.790541  
     597A      1.791759   598A      1.795789   599A      1.796673  
     600A      1.803188   601A      1.804831   602A      1.808701  
     603A      1.812773   604A      1.816174   605A      1.819462  
     606A      1.823802   607A      1.825521   608A      1.827487  
[...]
     820A      1.790209   821A      1.796233   822A      1.801035  
     823A      1.810107   824A      1.817940   825A      1.818939  
     826A      1.821445   827A      1.822211   828A      1.822983  
     829A      1.830929   830A      1.834629   831A      1.838019  
     832A      1.842407   833A      1.843028   834A      1.846818  
     835A      1.847748   836A      1.857067   837A      1.859296  
     838A      1.862554   839A      1.862826   840A      1.864837  
     841A      1.866741   842A      1.877795   843A      1.878074  
     844A      1.879918   845A      1.882318   846A      1.884872  
     847A      1.888274   848A      1.897300   849A      1.898904  
     850A      1.903518   851A      1.907187   852A      1.909512  
     853A      1.911519   854A      1.915533   855A      1.916028  
     856A      1.918311   857A      1.922130   858A      1.924296  
     859A      1.925823   860A      1.928418   861A      1.932203  
     862A      1.938317   863A      1.938999   864A      1.944019  
     865A      1.946204   866A      1.949793   867A      1.951408  
     868A      1.952793   869A      1.955473   870A      1.957297  
     871A      1.958084   872A      1.962345   873A      1.965937  
     874A      1.970502   875A      1.977639   876A      1.982577  
     877A      1.993401   878A      1.994099   879A      1.997635  
     880A      2.000651   881A      2.004345   882A      2.009112  
     883A      2.009191   884A      2.011182   885A      2.013416  
     886A      2.015945   887A      2.018955   888A      2.023602  
     889A      2.028252   890A      2.031140   891A      2.036981  
     892A      2.038893   893A      2.041001   894A      2.043916  
     895A      2.046326   896A      2.046845   897A      2.051599  
     898A      2.054355   899A      2.056837   900A      2.056946  
     901A      2.063366   902A      2.064786   903A      2.067914  
     904A      2.069158   905A      2.073773   906A      2.076960  
     907A      2.081484   908A      2.082046   909A      2.088332  
     910A      2.090337   911A      2.091858   912A      2.094965  
     913A      2.097308   914A      2.099981   915A      2.102054  
     916A      2.103169   917A      2.103619   918A      2.106757  
     919A      2.108375   920A      2.110949   921A      2.112438  
     922A      2.113525   923A      2.116127   924A      2.119341  
     925A      2.119980   926A      2.121571   927A      2.124843  
     928A      2.126047   929A      2.126791   930A      2.129921  
     931A      2.132750   932A      2.134200   933A      2.135067  
     934A      2.136279   935A      2.140622   936A      2.142246  
     937A      2.143088   938A      2.144991   939A      2.149795  
     940A      2.157449   941A      2.159117   942A      2.163154  
     943A      2.167229   944A      2.170403   945A      2.171151  
     946A      2.179873   947A      2.180655   948A      2.183645  
     949A      2.185210   950A      2.189021   951A      2.194662  
     952A      2.195881   953A      2.199892   954A      2.200940  
     955A      2.202996   956A      2.205045   957A      2.210266  
     958A      2.215263   959A      2.218475   960A      2.222076  
     961A      2.226353   962A      2.233003   963A      2.239010  
     964A      2.240773   965A      2.244035   966A      2.245127  
     967A      2.247336   968A      2.248436   969A      2.253098  
     970A      2.253767   971A      2.255991   972A      2.261832  
     973A      2.263113   974A      2.266952   975A      2.269358  
     976A      2.272434   977A      2.275040   978A      2.276273  
     979A      2.281516   980A      2.283035   981A      2.287059  
     982A      2.297136   983A      2.310721   984A      2.313004  
     985A      2.316283   986A      2.322281   987A      2.323388  
     988A      2.328997   989A      2.336869   990A      2.338492  
     991A      2.345141   992A      2.349618   993A      2.350935  
     994A      2.355660   995A      2.357106   996A      2.358755  
     997A      2.363000   998A      2.366431   999A      2.377489  
    1000A      2.382497  1001A      2.391176  1002A      2.395727  
    1003A      2.398646  1004A      2.400041  1005A      2.412834  
    1006A      2.415713  1007A      2.419800  1008A      2.423158  
    1009A      2.424804  1010A      2.427583  1011A      2.433141  
    1012A      2.436051  1013A      2.438816  1014A      2.443917  
    1015A      2.449099  1016A      2.454763  1017A      2.459718  
    1018A      2.468662  1019A      2.478255  1020A      2.484681  
    1021A      2.485710  1022A      2.490317  1023A      2.500430  
    1024A      2.501726  1025A      2.504742  1026A      2.510625  
    1027A      2.521006  1028A      2.529907  1029A      2.532003  
    1030A      2.537019  1031A      2.548025  1032A      2.548740  
    1033A      2.551622  1034A      2.554833  1035A      2.556925  
    1036A      2.558295  1037A      2.560040  1038A      2.562333  
    1039A      2.563234  1040A      2.567267  1041A      2.568655  
    1042A      2.574563  1043A      2.577510  1044A      2.580328  
    1045A      2.581386  1046A      2.591292  1047A      2.593874  
    1048A      2.602324  1049A      2.604157  1050A      2.608013  
    1051A      2.611275  1052A      2.618500  1053A      2.624521  
    1054A      2.627407  1055A      2.631323  1056A      2.636838  
    1057A      2.648592  1058A      2.650285  1059A      2.651601  
    1060A      2.653218  1061A      2.666969  1062A      2.669445  
    1063A      2.676332  1064A      2.684076  1065A      2.686412  
    1066A      2.689153  1067A      2.694780  1068A      2.700063  
    1069A      2.705828  1070A      2.707608  1071A      2.714706  
    1072A      2.716425  1073A      2.718366  1074A      2.719953  
    1075A      2.722215  1076A      2.728262  1077A      2.743740  
    1078A      2.748984  1079A      2.755681  1080A      2.759102  
    1081A      2.765912  1082A      2.775255  1083A      2.778283  
    1084A      2.790711  1085A      2.795977  1086A      2.805050  
    1087A      2.814209  1088A      2.822492  1089A      2.830224  
    1090A      2.832360  1091A      2.844632  1092A      2.848346  
    1093A      2.848688  1094A      2.856274  1095A      2.857221  
    1096A      2.860230  1097A      2.874223  1098A      2.889731  
    1099A      2.905009  1100A      2.907038  1101A      2.917320  
    1102A      2.918836  1103A      2.923371  1104A      2.926875  
    1105A      2.935110  1106A      2.942442  1107A      2.952240  
    1108A      2.964109  1109A      2.965844  1110A      2.973940  
    1111A      2.976694  1112A      2.994361  1113A      3.003740  
    1114A      3.018820  1115A      3.022834  1116A      3.029079  
    1117A      3.043035  1118A      3.048564  1119A      3.058652  
    1120A      3.066054  1121A      3.071933  1122A      3.077478  
    1123A      3.086913  1124A      3.096419  1125A      3.101447  
    1126A      3.123367  1127A      3.127962  1128A      3.131511  
    1129A      3.134231  1130A      3.143758  1131A      3.145951  
    1132A      3.147178  1133A      3.149906  1134A      3.153657  
    1135A      3.156613  1136A      3.161429  1137A      3.164037  
    1138A      3.171805  1139A      3.185955  1140A      3.190262  
    1141A      3.195504  1142A      3.207211  1143A      3.210142  
    1144A      3.220629  1145A      3.226815  1146A      3.240260  
    1147A      3.254085  1148A      3.263251  1149A      3.286196  
    1150A      3.299647  1151A      3.309616  1152A      3.323846  
    1153A      3.339437  1154A      3.349580  1155A      3.362721  
    1156A      3.390059  1157A      3.397802  1158A      3.430580  
    1159A      3.435006  1160A      3.453805  1161A      3.477775  
    1162A      3.501479  1163A      3.522433  1164A      3.534869  
    1165A      3.574226  1166A      3.597005  1167A      3.633055  
    1168A      3.642434  1169A      3.645078  1170A      3.669407  
    1171A      3.671228  1172A      3.677283  1173A      3.702701  
    1174A      3.710738  1175A      3.731111  1176A      3.767712  
    1177A      3.785394  1178A      3.836607  1179A      3.850900  
    1180A      3.858684  1181A      3.873615  1182A      3.874994  
    1183A      3.903454  1184A      3.918740  1185A      3.921830  
    1186A      3.941011  1187A      4.006968  1188A      4.013096  
    1189A      4.033508  1190A      4.141578  1191A      4.173076  
    1192A      4.244197  1193A      4.348992  1194A      4.357530  
    1195A      4.616705  1196A      4.690295  1197A      4.772827  
    1198A      4.902843  1199A      4.919285  1200A      4.967427  
    1201A      5.019401  1202A      5.028987  1203A      5.110567  
    1204A      5.133813  1205A      5.154236  1206A      5.199601  
    1207A      5.229471  1208A      5.442460  1209A      5.457236  
    1210A      5.803285  1211A      5.813645  1212A      6.093106  
    1213A     18.231989  1214A     18.496267  1215A     18.515295  
    1216A     18.630900  1217A     18.949712  1218A     25.381519  
    1219A     25.419524  

    Final Occupation by Irrep:
              A 
    DOCC [   171 ]
    NA   [   171 ]
    NB   [   171 ]

  @DF-RHF Final Energy: -2055.89716664885646

   => Energetics <=

    Nuclear Repulsion Energy =           6452.5568002797772351
    One-Electron Energy =              -15636.5598764697697334
    Two-Electron Energy =                7128.1059095411364979
    Total Energy =                      -2055.8971666488560004

Computation Completed


Properties will be evaluated at   0.000000,   0.000000,   0.000000 [a0]

Properties computed using the SCF density matrix


 Multipole Moments:

 ------------------------------------------------------------------------------------
     Multipole            Electronic (a.u.)      Nuclear  (a.u.)        Total (a.u.)
 ------------------------------------------------------------------------------------

 L = 1.  Multiply by 2.5417464519 to convert [e a0] to [Debye]
 Dipole X            :         -0.0006922           -0.0000085           -0.0007007
 Dipole Y            :          0.0004076           -0.0028843           -0.0024767
 Dipole Z            :        230.1745151         -230.1702718            0.0042433
 Magnitude           :                                                    0.0049629

 ------------------------------------------------------------------------------------

*** tstop() called on d-16-7-4 at Mon Jan 22 17:38:49 2024
Module time:
	user time   =    3176.80 seconds =      52.95 minutes
	system time =     286.93 seconds =       4.78 minutes
	total time  =       2150 seconds =      35.83 minutes
Total time:
	user time   =    9828.85 seconds =     163.81 minutes
	system time =     751.90 seconds =      12.53 minutes
	total time  =       4009 seconds =      66.82 minutes
  Constructing Basis Sets for SAPT...

   => Loading Basis Set <=

    Name: (JUN-CC-PVDZ AUX)
    Role: RIFIT
    Keyword: DF_BASIS_SAPT
    atoms 1-2, 4-5, 10, 17-70 entry C          line   100 file /home/gridsan/tfroembgen/.conda/envs/psi4test/share/psi4/basis/jun-cc-pvdz-ri.gbs 
    atoms 3, 6                entry N          line   144 file /home/gridsan/tfroembgen/.conda/envs/psi4test/share/psi4/basis/jun-cc-pvdz-ri.gbs 
    atoms 7-9, 11-16, 71-88   entry H          line    30 file /home/gridsan/tfroembgen/.conda/envs/psi4test/share/psi4/basis/jun-cc-pvdz-ri.gbs 

   => Loading Basis Set <=

    Name: (JUN-CC-PVDZ AUX)
    Role: JKFIT
    Keyword: DF_BASIS_ELST
    atoms 1-2, 4-5, 10, 17-70 entry C          line   146 file /home/gridsan/tfroembgen/.conda/envs/psi4test/share/psi4/basis/jun-cc-pvdz-jkfit.gbs 
    atoms 3, 6                entry N          line   202 file /home/gridsan/tfroembgen/.conda/envs/psi4test/share/psi4/basis/jun-cc-pvdz-jkfit.gbs 
    atoms 7-9, 11-16, 71-88   entry H          line    70 file /home/gridsan/tfroembgen/.conda/envs/psi4test/share/psi4/basis/jun-cc-pvdz-jkfit.gbs 


  //>>>>>>>>>>>>>>>>>>>>>>>>>>>>>>>>>>>//
  //               SSAPT0              //
  //<<<<<<<<<<<<<<<<<<<<<<<<<<<<<<<<<<<//


*** tstart() called on d-16-7-4
*** at Mon Jan 22 17:38:50 2024

        SAPT0  
    Ed Hohenstein
     6 June 2009

      Orbital Information
  --------------------------
    NSO        =      1233
    NMO        =      1219
    NRI        =      4343
    NRI (Elst) =      5440
    NOCC A     =        26
    NOCC B     =       171
    FOCC A     =         7
    FOCC B     =        54
    NVIR A     =      1193
    NVIR B     =      1048

    Elst10,r            =    -0.070276796469 [Eh]
    Exch10              =     0.167098051255 [Eh]
    Exch10 (S^2)        =     0.164071766781 [Eh]

    Iter     Energy [mEh]          dE [mEh]         Residual      Time [s]
       1     -23.55486082      23.554860823      25.223901401           318
       2     -29.80695878       6.252097961       6.854273250           770
       3     -30.18392199       0.376963203       1.796685196          1107
       4     -30.11085296      -0.073069026       0.727209533          1399
       5     -30.08393826      -0.026914703       0.135322895          1675
       6     -30.08717818       0.003239919       0.064062166          1918
       7     -30.08906611       0.001887932       0.020217075          2163
       8     -30.08844863      -0.000617477       0.007006890          2379
       9     -30.08844843      -0.000000203       0.002802528          2554
      10     -30.08850008       0.000051651       0.000796295          2813
      11     -30.08849719      -0.000002891       0.000222440          3035
      12     -30.08849439      -0.000002795       0.000078377          3262
      13     -30.08849450       0.000000110       0.000019883          3438
      14     -30.08849478       0.000000281       0.000007401          3674
      15     -30.08849475      -0.000000032       0.000002834          3921
      16     -30.08849472      -0.000000036       0.000001117          4239
      17     -30.08849472       0.000000007       0.000000380          4450

    CHF Iterations converged


    Iter     Energy [mEh]          dE [mEh]         Residual      Time [s]
       1     -56.05106267      56.051062674      89.573229458           253
       2     -50.48535943      -5.565703240      19.154478085           475
       3     -54.77187614       4.286516701       9.160500199           565
       4     -56.25008585       1.478209718       1.576747250           592
       5     -56.18975538      -0.060330470       0.717047350           615
       6     -56.13811012      -0.051645266       0.296245887           650
       7     -56.13895460       0.000844483       0.176298313           674
       8     -56.15049354       0.011538943       0.075931056           696
       9     -56.15053267       0.000039127       0.039058422           719
      10     -56.14866948      -0.001863188       0.019925250           741
      11     -56.14851339      -0.000156091       0.011300933           763
      12     -56.14890323       0.000389841       0.005374333           786
      13     -56.14895062       0.000047393       0.002570107           810
      14     -56.14889874      -0.000051882       0.001374338           840
      15     -56.14886512      -0.000033617       0.000664918           866
      16     -56.14887795       0.000012821       0.000335781           892
      17     -56.14888600       0.000008056       0.000161063           923
      18     -56.14888276      -0.000003246       0.000110561           961
      19     -56.14888063      -0.000002122       0.000061644          1017
      20     -56.14888145       0.000000820       0.000031457          1180
      21     -56.14888217       0.000000719       0.000015283          1226
      22     -56.14888198      -0.000000197       0.000008502          1247
      23     -56.14888180      -0.000000174       0.000004134          1267
      24     -56.14888183       0.000000030       0.000001848          1299
      25     -56.14888187       0.000000037       0.000000816          1323

    CHF Iterations converged

    Ind20,r (A<-B)      =    -0.030088494724 [Eh]
    Ind20,r (B<-A)      =    -0.056148881869 [Eh]
    Ind20,r             =    -0.086237376593 [Eh]
    Exch-Ind20,r (A<-B) =     0.028273299270 [Eh]
    Exch-Ind20,r (B<-A) =     0.035950500357 [Eh]
    Exch-Ind20,r        =     0.064223799627 [Eh]
    Disp20              =    -0.096243373745 [Eh]
    Disp20 (SS)         =    -0.048121686873 [Eh]
    Disp20 (OS)         =    -0.048121686873 [Eh]
    Exch-Disp20         =     0.014495240802 [Eh]
    Exch-Disp20 (SS)    =     0.008648766413 [Eh]
    Exch-Disp20 (OS)    =     0.005846474389 [Eh]

    SAPT Results 
  --------------------------------------------------------------------------------------------------------
    Electrostatics                -70.27679647 [mEh]     -44.09935557 [kcal/mol]    -184.51170371 [kJ/mol]
      Elst10,r                    -70.27679647 [mEh]     -44.09935557 [kcal/mol]    -184.51170371 [kJ/mol]

    Exchange                      167.09805125 [mEh]     104.85561021 [kcal/mol]     438.71587313 [kJ/mol]
      Exch10                      167.09805125 [mEh]     104.85561021 [kcal/mol]     438.71587313 [kJ/mol]
      Exch10(S^2)                 164.07176678 [mEh]     102.95658803 [kcal/mol]     430.77036434 [kJ/mol]

    Induction                     -31.97802121 [mEh]     -20.06651126 [kcal/mol]     -83.95828311 [kJ/mol]
      Ind20,r                     -86.23737659 [mEh]     -54.11477081 [kcal/mol]    -226.41620105 [kJ/mol]
      Exch-Ind20,r                 64.22379963 [mEh]      40.30104271 [kcal/mol]     168.61956269 [kJ/mol]
      delta HF,r (2)               -9.96444424 [mEh]      -6.25278316 [kcal/mol]     -26.16164475 [kJ/mol]

    Dispersion                    -81.74813294 [mEh]     -51.29772789 [kcal/mol]    -214.62969347 [kJ/mol]
      Disp20                      -96.24337375 [mEh]     -60.39362881 [kcal/mol]    -252.68694296 [kJ/mol]
      Exch-Disp20                  14.49524080 [mEh]       9.09590093 [kcal/mol]      38.05724948 [kJ/mol]
      Disp20 (SS)                 -48.12168687 [mEh]     -30.19681441 [kcal/mol]    -126.34347148 [kJ/mol]
      Disp20 (OS)                 -48.12168687 [mEh]     -30.19681441 [kcal/mol]    -126.34347148 [kJ/mol]
      Exch-Disp20 (SS)              8.64876641 [mEh]       5.42718286 [kcal/mol]      22.70733309 [kJ/mol]
      Exch-Disp20 (OS)              5.84647439 [mEh]       3.66871807 [kcal/mol]      15.34991639 [kJ/mol]

  Total HF                         64.84323358 [mEh]      40.68974338 [kcal/mol]     170.24588631 [kJ/mol]
  Total SAPT0                     -16.90489936 [mEh]     -10.60798450 [kcal/mol]     -44.38380717 [kJ/mol]

  Special recipe for scaled SAPT0 (see Manual):
    Electrostatics sSAPT0         -70.27679647 [mEh]     -44.09935557 [kcal/mol]    -184.51170371 [kJ/mol]
    Exchange sSAPT0               167.09805125 [mEh]     104.85561021 [kcal/mol]     438.71587313 [kJ/mol]
    Induction sSAPT0              -28.35826741 [mEh]     -17.79508146 [kcal/mol]     -74.45462083 [kJ/mol]
    Dispersion sSAPT0             -80.93115850 [mEh]     -50.78506868 [kcal/mol]    -212.48472737 [kJ/mol]
  Total sSAPT0                    -12.46817113 [mEh]      -7.82389550 [kcal/mol]     -32.73517879 [kJ/mol]
  --------------------------------------------------------------------------------------------------------

*** tstop() called on d-16-7-4 at Mon Jan 22 20:08:29 2024
Module time:
	user time   =    9563.35 seconds =     159.39 minutes
	system time =    1260.21 seconds =      21.00 minutes
	total time  =       8979 seconds =     149.65 minutes
Total time:
	user time   =   19393.58 seconds =     323.23 minutes
	system time =    2012.12 seconds =      33.54 minutes
	total time  =      12989 seconds =     216.48 minutes

    Psi4 stopped on: Monday, 22 January 2024 08:08PM
    Psi4 wall time for execution: 3:36:29.96

*** Psi4 exiting successfully. Buy a developer a beer!
