
    -----------------------------------------------------------------------
          Psi4: An Open-Source Ab Initio Electronic Structure Package
                               Psi4 1.9 release

                         Git: Rev {} zzzzzzz 


    D. G. A. Smith, L. A. Burns, A. C. Simmonett, R. M. Parrish,
    M. C. Schieber, R. Galvelis, P. Kraus, H. Kruse, R. Di Remigio,
    A. Alenaizan, A. M. James, S. Lehtola, J. P. Misiewicz, M. Scheurer,
    R. A. Shaw, J. B. Schriber, Y. Xie, Z. L. Glick, D. A. Sirianni,
    J. S. O'Brien, J. M. Waldrop, A. Kumar, E. G. Hohenstein,
    B. P. Pritchard, B. R. Brooks, H. F. Schaefer III, A. Yu. Sokolov,
    K. Patkowski, A. E. DePrince III, U. Bozkaya, R. A. King,
    F. A. Evangelista, J. M. Turney, T. D. Crawford, C. D. Sherrill,
    J. Chem. Phys. 152(18) 184108 (2020). https://doi.org/10.1063/5.0006002

                            Additional Code Authors
    E. T. Seidl, C. L. Janssen, E. F. Valeev, M. L. Leininger,
    J. F. Gonthier, R. M. Richard, H. R. McAlexander, M. Saitow, X. Wang,
    P. Verma, M. H. Lechner, A. Jiang, S. Behnle, A. G. Heide,
    M. F. Herbst, and D. L. Poole

             Previous Authors, Complete List of Code Contributors,
                       and Citations for Specific Modules
    https://github.com/psi4/psi4/blob/master/codemeta.json
    https://github.com/psi4/psi4/graphs/contributors
    http://psicode.org/psi4manual/master/introduction.html#citing-psifour

    -----------------------------------------------------------------------


    Psi4 started on: Monday, 22 January 2024 07:51PM

    Process ID: 2851194
    Host:       d-18-8-4
    PSIDATADIR: /home/gridsan/tfroembgen/.conda/envs/psi4test/share/psi4
    Memory:     500.0 MiB
    Threads:    12
    
  ==> Input File <==

--------------------------------------------------------------------------
memory 32 GB # how much memory is available ! Depends on the nodes/cores !

molecule dimer {
# monomer A
+1 1    # Charge and multiplicity
C  0.680067 -0.008042  -9.215929
C -0.680504 -0.006014  -9.215545
N -1.085635 -0.005016  -7.897221
C  0.000108 -0.001740  -7.115820
C -2.477365  0.044390  -7.429242
N  1.085222 -0.005016  -7.897221
H  1.385146 -0.015870 -10.033368
H -1.385302 -0.006204 -10.033214
H -0.000009  0.000007  -6.034731
C  2.478117 -0.021908  -7.432123
H  2.490592  0.005437  -6.341870
H  2.967028 -0.935354  -7.779299
H  3.001428  0.853575  -7.823595
H -2.857359  1.066461  -7.509201
H -3.082679 -0.625694  -8.042306
H -2.518128 -0.282594  -6.389294
--
# monomer B
0 1     # Charge and multiplicity
C   1.22531237526482      0.70753866091955      0.00613762728373
C   1.22532433589282     -0.70753852257020     -0.00619318228664
C   -0.00000567409046      1.41496628609039     -0.00672680580738
C   2.45644923379077      1.41832825917820      0.00902448468363
C   0.00001130712078     -1.41497612663474      0.00347275151708
C   -1.22530046906674      0.70754574598412      0.00838914760619
C   2.45643823516184     -1.41832293188077     -0.00843833914343
C   -0.00000085313587      2.83680140328112     -0.00913035594137
C   3.68182717731192      0.70931832800114     -0.00808954934571
C   2.45512052870677      2.83422403348893     -0.00819210630633
C   3.68182158506039     -0.70933346742900      0.00798293467272
C   -1.22531311884624     -0.70752714354401     -0.00512042085974
C   1.22670006104402      3.54346985599427      0.00816696660346
C   0.00000526469929     -2.83678176723568      0.00832091913869
C   -2.45643555300670      1.41831729028492      0.00842454345199
C   2.45512389762097     -2.83422965658853      0.00783102630520
C   -1.22671388474763      3.54346943575023      0.00827029982280
C   4.91451777504333      1.42717324448953     -0.00160886631602
C   3.69315067131765      3.54279566454522     -0.00155906667985
C   -2.45643712022637     -1.41831290883911     -0.00846337726810
C   1.22670532178455     -3.54347386990643     -0.00780316414624
C   -2.45512491866593      2.83421703463423     -0.00818572995999
C   4.91452486062398     -1.42718653794377      0.00136387641845
C   1.22142509354026      4.97013443726031      0.00150231067809
C   4.89300870916237      2.82518837202648     -0.00039219795739
C   -1.22669652864725     -3.54347062507680     -0.00753595973677
C   -3.68181849668397      0.70932533873199     -0.00807686886569
C   3.69314758099218     -3.54280096939050      0.00148176697923
C   -1.22143177215231      4.97012866986289      0.00168580605083
C   6.13477145276790      0.68054831910577     -0.00083909176631
C   3.65678936045204      4.97295361556775     -0.00065042889723
C   -2.45512642789169     -2.83421472106065      0.00758666850712
C   -3.68181869921921     -0.70932533146830      0.00810055625144
C   4.89301309775526     -2.82519973363176      0.00021895393805
C   -0.00000059327114      5.65044773803267      0.00045449734393
C   6.13477559217374     -0.68055448207492      0.00042622874941
C   2.47813196269732      5.65357712333155      0.00063835075260
C   1.22142288457925     -4.97012668293268     -0.00129718634452
C   -3.69316190412301      3.54279732619245     -0.00139355922051
C   -1.22142804110313     -4.97011793159564     -0.00140994817719
C   -4.91452132810043      1.42717581899491     -0.00153192130862
C   3.65678749952045     -4.97295485423912      0.00080007163680
C   -2.47813805026426      5.65357479452875      0.00092287576113
C   -3.69314125872231     -3.54278984697859      0.00136564082345
C   -4.91451200321153     -1.42718062802730      0.00139857359209
C   -0.00000552908399     -5.65043791501335      0.00005899322272
C   -4.89302000425900      2.82518897091939     -0.00040227981744
C   2.47812647313991     -5.65357317188818     -0.00029052915548
C   -3.65679823041642      4.97295655404175     -0.00047374852278
C   -4.89299899901461     -2.82519139505969      0.00006491824035
C   -2.47812801824129     -5.65356579800621     -0.00056571680280
C   -6.13477002348955      0.68054913825639     -0.00086464346868
C   -3.65678835334731     -4.97294365097028      0.00058578382008
C   -6.13476456307132     -0.68055354348201      0.00040575295444
H   5.83528897565761      3.36927626695423      0.00396712770529
H   7.07385965258860      1.22821762089947     -0.00037744837300
H   4.60066374401555      5.51238117445323     -0.00014522814529
H   5.83528386714679     -3.36930568472863     -0.00423551337640
H   -0.00001167146422      6.73853104613662     -0.00389474766392
H   7.07386165167227     -1.22822657074368     -0.00008250934481
H   2.47331421164041      6.74068466339473      0.00017162982210
H   4.60066897122302     -5.51237575717576      0.00039007446835
H   -2.47331820069565      6.74068209160650      0.00047297644710
H   -0.00000978838621     -6.73852780445195      0.00458867820736
H   -5.83530143450167      3.36927132229595      0.00410314985360
H   2.47330840367253     -6.74068500242887      0.00027980126949
H   -4.60067436136587      5.51237839860371      0.00002010017831
H   -5.83527902699321     -3.36928859177951     -0.00451481925734
H   -2.47329986759855     -6.74067870613986     -0.00016951527498
H   -7.07385728692578      1.22822084484047     -0.00046143985387
H   -4.60067330624313     -5.51236229778631      0.00021776644566
H   -7.07385645456741     -1.22822025997701     -0.00017736581114

    units angstrom      # Angstroms are the default
    no_reorient         # Geometry fixed, default
    symmetry c1         # C1 symmetry, default
}

set {
    scf_type DF         # Density fitting, faster than exact integrals
    freeze_core True    # Freeze core electrons
    basis jun-cc-pVDZ   # Jun-cc-pVDZ basis set, recommended for sSAPT0 in https://doi.org/10.1063/1.4867135
}

energy('ssapt0')        # Compute sSAPT0 energy, includes also SAPT0
--------------------------------------------------------------------------

  Memory set to  29.802 GiB by Python driver.

Scratch directory: /state/partition1/slurm_tmp/24798282.4294967291.0/
   => Loading Basis Set <=

    Name: JUN-CC-PVDZ
    Role: ORBITAL
    Keyword: BASIS
    atoms 1-2, 4-5, 10, 17-70 entry C          line   164 file /home/gridsan/tfroembgen/.conda/envs/psi4test/share/psi4/basis/jun-cc-pvdz.gbs 
    atoms 3, 6                entry N          line   198 file /home/gridsan/tfroembgen/.conda/envs/psi4test/share/psi4/basis/jun-cc-pvdz.gbs 
    atoms 7-9, 11-16, 71-88   entry H          line    36 file /home/gridsan/tfroembgen/.conda/envs/psi4test/share/psi4/basis/jun-cc-pvdz.gbs 

   => Loading Basis Set <=

    Name: JUN-CC-PVDZ
    Role: ORBITAL
    Keyword: BASIS
    atoms 1-2, 4-5, 10, 17-70 entry C          line   164 file /home/gridsan/tfroembgen/.conda/envs/psi4test/share/psi4/basis/jun-cc-pvdz.gbs 
    atoms 3, 6                entry N          line   198 file /home/gridsan/tfroembgen/.conda/envs/psi4test/share/psi4/basis/jun-cc-pvdz.gbs 
    atoms 7-9, 11-16, 71-88   entry H          line    36 file /home/gridsan/tfroembgen/.conda/envs/psi4test/share/psi4/basis/jun-cc-pvdz.gbs 


  //>>>>>>>>>>>>>>>>>>>>>>>>>>>>>>>>>>>//
  //              Dimer HF             //
  //<<<<<<<<<<<<<<<<<<<<<<<<<<<<<<<<<<<//

   => Libint2 <=

    Primary   basis highest AM E, G, H:  7, 7, 4
    Auxiliary basis highest AM E, G, H:  7, 7, 5
    Onebody   basis highest AM E, G, H:  7, 7, 5
    Solid Harmonics ordering:            gaussian

*** tstart() called on d-18-8-4
*** at Mon Jan 22 19:51:14 2024

   => Loading Basis Set <=

    Name: JUN-CC-PVDZ
    Role: ORBITAL
    Keyword: BASIS
    atoms 1-2, 4-5, 10, 17-70 entry C          line   164 file /home/gridsan/tfroembgen/.conda/envs/psi4test/share/psi4/basis/jun-cc-pvdz.gbs 
    atoms 3, 6                entry N          line   198 file /home/gridsan/tfroembgen/.conda/envs/psi4test/share/psi4/basis/jun-cc-pvdz.gbs 
    atoms 7-9, 11-16, 71-88   entry H          line    36 file /home/gridsan/tfroembgen/.conda/envs/psi4test/share/psi4/basis/jun-cc-pvdz.gbs 


         ---------------------------------------------------------
                                   SCF
               by Justin Turney, Rob Parrish, Andy Simmonett
                          and Daniel G. A. Smith
                              RHF Reference
                       12 Threads,  30517 MiB Core
         ---------------------------------------------------------

  ==> Geometry <==

    Molecular point group: c1
    Full point group: C1

    Geometry (in Angstrom), charge = 1, multiplicity = 1:

       Center              X                  Y                   Z               Mass       
    ------------   -----------------  -----------------  -----------------  -----------------
         C            0.680066520158    -0.008042372515    -8.198380356379    12.000000000000
         C           -0.680504479842    -0.006014372515    -8.197996356379    12.000000000000
         N           -1.085635479842    -0.005016372515    -6.879672356379    14.003074004430
         C            0.000107520158    -0.001740372515    -6.098271356379    12.000000000000
         C           -2.477365479842     0.044389627485    -6.411693356379    12.000000000000
         N            1.085221520158    -0.005016372515    -6.879672356379    14.003074004430
         H            1.385145520158    -0.015870372515    -9.015819356379     1.007825032230
         H           -1.385302479842    -0.006204372515    -9.015665356379     1.007825032230
         H           -0.000009479842     0.000006627485    -5.017182356379     1.007825032230
         C            2.478116520158    -0.021908372515    -6.414574356379    12.000000000000
         H            2.490591520158     0.005436627485    -5.324321356379     1.007825032230
         H            2.967027520158    -0.935354372515    -6.761750356379     1.007825032230
         H            3.001427520158     0.853574627485    -6.806046356379     1.007825032230
         H           -2.857359479842     1.066460627485    -6.491652356379     1.007825032230
         H           -3.082679479842    -0.625694372515    -7.024757356379     1.007825032230
         H           -2.518128479842    -0.282594372515    -5.371745356379     1.007825032230
         C            1.225311895423     0.707538288405     1.023686270905    12.000000000000
         C            1.225323856051    -0.707538895085     1.011355461334    12.000000000000
         C           -0.000006153932     1.414965913575     1.010821837813    12.000000000000
         C            2.456448753949     1.418327886663     1.026573128304    12.000000000000
         C            0.000010827279    -1.414976499150     1.021021395138    12.000000000000
         C           -1.225300948908     0.707545373469     1.025937791227    12.000000000000
         C            2.456437755320    -1.418323304396     1.009110304477    12.000000000000
         C           -0.000001332978     2.836801030766     1.008418287679    12.000000000000
         C            3.681826697470     0.709317955486     1.009459094275    12.000000000000
         C            2.455120048865     2.834223660974     1.009356537315    12.000000000000
         C            3.681821105219    -0.709333839944     1.025531578294    12.000000000000
         C           -1.225313598688    -0.707527516059     1.012428222761    12.000000000000
         C            1.226699581202     3.543469483479     1.025715610224    12.000000000000
         C            0.000004784858    -2.836782139751     1.025869562760    12.000000000000
         C           -2.456436032848     1.418316917770     1.025973187073    12.000000000000
         C            2.455123417779    -2.834230029103     1.025379669926    12.000000000000
         C           -1.226714364589     3.543469063235     1.025818943444    12.000000000000
         C            4.914517295202     1.427172871975     1.015939777305    12.000000000000
         C            3.693150191476     3.542795292030     1.015989576941    12.000000000000
         C           -2.456437600068    -1.418313281354     1.009085266353    12.000000000000
         C            1.226704841943    -3.543474242421     1.009745479475    12.000000000000
         C           -2.455125398508     2.834216662119     1.009362913661    12.000000000000
         C            4.914524380782    -1.427186910459     1.018912520039    12.000000000000
         C            1.221424613699     4.970134064745     1.019050954299    12.000000000000
         C            4.893008229321     2.825187999512     1.017156445663    12.000000000000
         C           -1.226697008489    -3.543470997592     1.010012683884    12.000000000000
         C           -3.681818976526     0.709324966217     1.009471774755    12.000000000000
         C            3.693147101150    -3.542801341905     1.019030410600    12.000000000000
         C           -1.221432251994     4.970128297348     1.019234449672    12.000000000000
         C            6.134770972926     0.680547946591     1.016709551855    12.000000000000
         C            3.656788880610     4.972953243053     1.016898214724    12.000000000000
         C           -2.455126907733    -2.834215093576     1.025135312128    12.000000000000
         C           -3.681819179061    -0.709325703983     1.025649199872    12.000000000000
         C            4.893012617914    -2.825200106147     1.017767597559    12.000000000000
         C           -0.000001073113     5.650447365518     1.018003140965    12.000000000000
         C            6.134775112332    -0.680554854590     1.017974872370    12.000000000000
         C            2.478131482856     5.653576750817     1.018186994373    12.000000000000
         C            1.221422404738    -4.970127055448     1.016251457276    12.000000000000
         C           -3.693162383965     3.542796953677     1.016155084400    12.000000000000
         C           -1.221428520945    -4.970118304111     1.016138695444    12.000000000000
         C           -4.914521807942     1.427175446480     1.016016722312    12.000000000000
         C            3.656787019679    -4.972955226754     1.018348715258    12.000000000000
         C           -2.478138530106     5.653574422014     1.018471519382    12.000000000000
         C           -3.693141738564    -3.542790219494     1.018914284444    12.000000000000
         C           -4.914512483053    -1.427181000542     1.018947217213    12.000000000000
         C           -0.000006008926    -5.650438287528     1.017607636844    12.000000000000
         C           -4.893020484101     2.825188598404     1.017146363803    12.000000000000
         C            2.478125993298    -5.653573544403     1.017258114465    12.000000000000
         C           -3.656798710258     4.972956181527     1.017074895098    12.000000000000
         C           -4.892999478856    -2.825191767575     1.017613561861    12.000000000000
         C           -2.478128498083    -5.653566170521     1.016982926818    12.000000000000
         C           -6.134770503331     0.680548765741     1.016684000152    12.000000000000
         C           -3.656788833189    -4.972944023485     1.018134427441    12.000000000000
         C           -6.134765042913    -0.680553915997     1.017954396575    12.000000000000
         H            5.835288495816     3.369275894439     1.021515771326     1.007825032230
         H            7.073859172747     1.228217248385     1.017171195248     1.007825032230
         H            4.600663264174     5.512380801938     1.017403415476     1.007825032230
         H            5.835283387305    -3.369306057244     1.013313130244     1.007825032230
         H           -0.000012151306     6.738530673622     1.013653895957     1.007825032230
         H            7.073861171831    -1.228226943259     1.017466134276     1.007825032230
         H            2.473313731799     6.740684290880     1.017720273443     1.007825032230
         H            4.600668491381    -5.512376129691     1.017938718089     1.007825032230
         H           -2.473318680537     6.740681719092     1.018021620068     1.007825032230
         H           -0.000010268228    -6.738528176967     1.022137321828     1.007825032230
         H           -5.835301914343     3.369270949781     1.021651793474     1.007825032230
         H            2.473307923831    -6.740685374944     1.017828444890     1.007825032230
         H           -4.600674841208     5.512378026089     1.017568743799     1.007825032230
         H           -5.835279506835    -3.369288964294     1.013033824364     1.007825032230
         H           -2.473300347440    -6.740679078655     1.017379128346     1.007825032230
         H           -7.073857766768     1.228220472326     1.017087203767     1.007825032230
         H           -4.600673786085    -5.512362670301     1.017766410067     1.007825032230
         H           -7.073856934409    -1.228220632492     1.017371277810     1.007825032230

  Running in c1 symmetry.

  Rotational constants: A =      0.00129  B =      0.00126  C =      0.00109 [cm^-1]
  Rotational constants: A =     38.58212  B =     37.88989  C =     32.71081 [MHz]
  Nuclear repulsion = 7790.135385944077825

  Charge       = 1
  Multiplicity = 1
  Electrons    = 394
  Nalpha       = 197
  Nbeta        = 197

  ==> Algorithm <==

  SCF Algorithm Type is DF.
  DIIS enabled.
  MOM disabled.
  Fractional occupation disabled.
  Guess Type is SAD.
  Energy threshold   = 1.00e-08
  Density threshold  = 1.00e-08
  Integral threshold = 1.00e-12

  ==> Primary Basis <==

  Basis Set: JUN-CC-PVDZ
    Blend: JUN-CC-PVDZ
    Number of shells: 569
    Number of basis functions: 1233
    Number of Cartesian functions: 1294
    Spherical Harmonics?: true
    Max angular momentum: 2

   => Loading Basis Set <=

    Name: (JUN-CC-PVDZ AUX)
    Role: JKFIT
    Keyword: DF_BASIS_SCF
    atoms 1-2, 4-5, 10, 17-70 entry C          line   146 file /home/gridsan/tfroembgen/.conda/envs/psi4test/share/psi4/basis/jun-cc-pvdz-jkfit.gbs 
    atoms 3, 6                entry N          line   202 file /home/gridsan/tfroembgen/.conda/envs/psi4test/share/psi4/basis/jun-cc-pvdz-jkfit.gbs 
    atoms 7-9, 11-16, 71-88   entry H          line    70 file /home/gridsan/tfroembgen/.conda/envs/psi4test/share/psi4/basis/jun-cc-pvdz-jkfit.gbs 

  ==> Integral Setup <==

  ==> DiskDFJK: Density-Fitted J/K Matrices <==

    J tasked:                  Yes
    K tasked:                  Yes
    wK tasked:                  No
    OpenMP threads:             12
    Integrals threads:          12
    Memory [MiB]:            22888
    Algorithm:                Core
    Integral Cache:           SAVE
    Schwarz Cutoff:          1E-12
    Fitting Condition:       1E-10

   => Auxiliary Basis Set <=

  Basis Set: (JUN-CC-PVDZ AUX)
    Blend: JUN-CC-PVDZ-JKFIT
    Number of shells: 1890
    Number of basis functions: 5440
    Number of Cartesian functions: 6226
    Spherical Harmonics?: true
    Max angular momentum: 3

  Minimum eigenvalue in the overlap matrix is 8.3965348855E-10.
  Reciprocal condition number of the overlap matrix is 3.7556305643E-11.
    Using canonical orthogonalization.
  Overall, 14 of 1233 possible MOs eliminated.


  ==> Pre-Iterations <==

  SCF Guess: Superposition of Atomic Densities via on-the-fly atomic UHF (no occupation information).

   -------------------------
    Irrep   Nso     Nmo    
   -------------------------
     A       1233    1219 
   -------------------------
    Total    1233    1219
   -------------------------

  ==> Iterations <==

                           Total Energy        Delta E     RMS |[F,P]|

   @DF-RHF iter SAD: -2365.39398117234714   -2.36539e+03   0.00000e+00 
   @DF-RHF iter   1: -2358.18898856560190    7.20499e+00   9.47950e-04 DIIS/ADIIS
   @DF-RHF iter   2: -2359.08940464434545   -9.00416e-01   3.23594e-04 DIIS/ADIIS
   @DF-RHF iter   3: -2359.18158175584585   -9.21771e-02   1.18665e-04 DIIS/ADIIS
   @DF-RHF iter   4: -2359.19481821547060   -1.32365e-02   4.47628e-05 DIIS
   @DF-RHF iter   5: -2359.19676991771576   -1.95170e-03   1.01312e-05 DIIS
   @DF-RHF iter   6: -2359.19694735724806   -1.77440e-04   5.13745e-06 DIIS
   @DF-RHF iter   7: -2359.19701644526185   -6.90880e-05   2.25087e-06 DIIS
   @DF-RHF iter   8: -2359.19703687512492   -2.04299e-05   1.13470e-06 DIIS
   @DF-RHF iter   9: -2359.19704189849335   -5.02337e-06   2.59602e-07 DIIS
   @DF-RHF iter  10: -2359.19704213942714   -2.40934e-07   8.65319e-08 DIIS
   @DF-RHF iter  11: -2359.19704215699585   -1.75687e-08   3.19892e-08 DIIS
   @DF-RHF iter  12: -2359.19704216061518   -3.61933e-09   1.18192e-08 DIIS
   @DF-RHF iter  13: -2359.19704216095079   -3.35604e-10   4.99485e-09 DIIS
  Energy and wave function converged.


  ==> Post-Iterations <==

    Orbital Energies [Eh]
    ---------------------

    Doubly Occupied:                                                      

       1A    -15.825345     2A    -15.824824     3A    -11.520038  
       4A    -11.451498     5A    -11.449944     6A    -11.440178  
       7A    -11.440072     8A    -11.318152     9A    -11.317685  
      10A    -11.317655    11A    -11.316708    12A    -11.316667  
      13A    -11.316281    14A    -11.315548    15A    -11.315543  
      16A    -11.315445    17A    -11.315390    18A    -11.315272  
      19A    -11.315176    20A    -11.314105    21A    -11.314092  
      22A    -11.313936    23A    -11.313900    24A    -11.313860  
      25A    -11.313833    26A    -11.313756    27A    -11.313753  
      28A    -11.313554    29A    -11.313544    30A    -11.313514  
      31A    -11.313510    32A    -11.313088    33A    -11.313084  
      34A    -11.312889    35A    -11.312887    36A    -11.312880  
      37A    -11.312877    38A    -11.312435    39A    -11.312428  
      40A    -11.312262    41A    -11.312252    42A    -11.312186  
      43A    -11.312178    44A    -11.306310    45A    -11.306307  
      46A    -11.306273    47A    -11.306271    48A    -11.306134  
      49A    -11.306131    50A    -11.306036    51A    -11.306004  
      52A    -11.305736    53A    -11.305732    54A    -11.305727  
      55A    -11.305723    56A    -11.304712    57A    -11.304708  
      58A    -11.304303    59A    -11.304299    60A    -11.304297  
      61A    -11.304294    62A     -1.569108    63A     -1.424623  
      64A     -1.301035    65A     -1.276059    66A     -1.275884  
      67A     -1.245195    68A     -1.245177    69A     -1.237253  
      70A     -1.229741    71A     -1.212658    72A     -1.204501  
      73A     -1.191603    74A     -1.191443    75A     -1.180005  
      76A     -1.168223    77A     -1.168187    78A     -1.138215  
      79A     -1.138203    80A     -1.134400    81A     -1.120845  
      82A     -1.120829    83A     -1.109549    84A     -1.094603  
      85A     -1.080463    86A     -1.077967    87A     -1.077896  
      88A     -1.072678    89A     -1.067470    90A     -1.042634  
      91A     -1.042582    92A     -1.016879    93A     -1.016873  
      94A     -1.013633    95A     -0.987678    96A     -0.949401  
      97A     -0.949333    98A     -0.944046    99A     -0.942289  
     100A     -0.942146   101A     -0.937076   102A     -0.936989  
     103A     -0.916854   104A     -0.907802   105A     -0.891660  
     106A     -0.873317   107A     -0.872427   108A     -0.867706  
     109A     -0.867606   110A     -0.849338   111A     -0.849337  
     112A     -0.841349   113A     -0.807430   114A     -0.803574  
     115A     -0.802450   116A     -0.800480   117A     -0.789047  
     118A     -0.788914   119A     -0.786913   120A     -0.786829  
     121A     -0.781173   122A     -0.776992   123A     -0.773179  
     124A     -0.771761   125A     -0.753995   126A     -0.753866  
     127A     -0.748856   128A     -0.748725   129A     -0.720119  
     130A     -0.716272   131A     -0.715819   132A     -0.708402  
     133A     -0.707913   134A     -0.706806   135A     -0.704791  
     136A     -0.704741   137A     -0.694218   138A     -0.694160  
     139A     -0.685009   140A     -0.682810   141A     -0.682795  
     142A     -0.663789   143A     -0.659268   144A     -0.657192  
     145A     -0.654526   146A     -0.654367   147A     -0.649065  
     148A     -0.647100   149A     -0.646989   150A     -0.639263  
     151A     -0.632835   152A     -0.632576   153A     -0.621720  
     154A     -0.621666   155A     -0.621464   156A     -0.621337  
     157A     -0.614105   158A     -0.609353   159A     -0.609201  
     160A     -0.593940   161A     -0.593909   162A     -0.593133  
     163A     -0.593100   164A     -0.587289   165A     -0.584696  
     166A     -0.584672   167A     -0.577883   168A     -0.577740  
     169A     -0.554906   170A     -0.550645   171A     -0.547858  
     172A     -0.543353   173A     -0.540474   174A     -0.536822  
     175A     -0.536775   176A     -0.526656   177A     -0.526437  
     178A     -0.515259   179A     -0.506907   180A     -0.506747  
     181A     -0.493978   182A     -0.493937   183A     -0.460707  
     184A     -0.460706   185A     -0.459383   186A     -0.430096  
     187A     -0.430078   188A     -0.404454   189A     -0.394465  
     190A     -0.393424   191A     -0.393337   192A     -0.366210  
     193A     -0.352332   194A     -0.340451   195A     -0.340411  
     196A     -0.280212   197A     -0.280156  

    Virtual:                                                              

     198A     -0.059526   199A     -0.054284   200A     -0.046605  
     201A     -0.041346   202A     -0.041167   203A     -0.040376  
     204A     -0.024020   205A     -0.021938   206A     -0.021325  
     207A     -0.017113   208A     -0.001211   209A      0.002068  
     210A      0.002502   211A      0.002902   212A      0.004137  
     213A      0.005447   214A      0.005856   215A      0.008779  
     216A      0.008940   217A      0.010522   218A      0.010824  
     219A      0.011973   220A      0.013426   221A      0.017911  
     222A      0.024490   223A      0.028894   224A      0.028974  
     225A      0.029323   226A      0.031029   227A      0.031507  
     228A      0.031741   229A      0.033871   230A      0.035466  
     231A      0.038565   232A      0.042318   233A      0.043751  
     234A      0.044611   235A      0.044627   236A      0.045254  
     237A      0.047162   238A      0.051094   239A      0.051769  
     240A      0.053963   241A      0.056436   242A      0.063234  
     243A      0.063848   244A      0.064141   245A      0.064358  
     246A      0.068218   247A      0.070885   248A      0.072190  
     249A      0.074605   250A      0.075254   251A      0.078328  
     252A      0.079307   253A      0.083538   254A      0.084256  
     255A      0.084828   256A      0.085492   257A      0.087293  
     258A      0.087587   259A      0.088379   260A      0.091520  
     261A      0.091935   262A      0.093883   263A      0.095860  
     264A      0.100941   265A      0.102850   266A      0.105355  
     267A      0.105887   268A      0.106996   269A      0.110496  
     270A      0.111831   271A      0.115043   272A      0.118601  
     273A      0.118998   274A      0.119624   275A      0.124275  
     276A      0.127784   277A      0.129356   278A      0.130054  
     279A      0.132253   280A      0.134035   281A      0.134527  
     282A      0.134681   283A      0.135862   284A      0.137146  
     285A      0.138766   286A      0.139500   287A      0.141115  
     288A      0.141204   289A      0.142597   290A      0.144682  
     291A      0.146917   292A      0.150279   293A      0.153779  
     294A      0.154876   295A      0.155260   296A      0.155933  
     297A      0.157454   298A      0.161802   299A      0.162104  
     300A      0.162164   301A      0.163060   302A      0.163402  
     303A      0.164452   304A      0.166432   305A      0.166915  
     306A      0.167951   307A      0.169746   308A      0.173065  
     309A      0.174022   310A      0.177615   311A      0.177955  
     312A      0.178552   313A      0.178995   314A      0.181161  
     315A      0.181373   316A      0.182095   317A      0.183607  
     318A      0.184080   319A      0.184365   320A      0.186963  
     321A      0.189824   322A      0.193889   323A      0.195668  
     324A      0.196278   325A      0.198029   326A      0.199528  
     327A      0.201066   328A      0.201267   329A      0.202252  
     330A      0.203835   331A      0.203906   332A      0.206082  
     333A      0.206881   334A      0.207050   335A      0.211644  
     336A      0.215521   337A      0.215642   338A      0.216109  
     339A      0.216512   340A      0.218208   341A      0.218246  
     342A      0.221741   343A      0.222290   344A      0.222573  
     345A      0.224553   346A      0.226815   347A      0.232364  
     348A      0.233668   349A      0.234991   350A      0.235727  
     351A      0.240290   352A      0.240753   353A      0.241906  
     354A      0.245143   355A      0.245911   356A      0.250401  
     357A      0.250760   358A      0.251336   359A      0.252638  
     360A      0.256422   361A      0.256848   362A      0.257122  
     363A      0.257811   364A      0.259588   365A      0.260095  
     366A      0.260161   367A      0.261908   368A      0.262800  
     369A      0.264029   370A      0.264869   371A      0.267386  
     372A      0.268693   373A      0.269713   374A      0.269887  
     375A      0.270180   376A      0.271040   377A      0.271765  
     378A      0.274899   379A      0.277404   380A      0.278230  
     381A      0.279032   382A      0.284365   383A      0.285323  
     384A      0.287085   385A      0.291054   386A      0.292416  
     387A      0.293446   388A      0.294642   389A      0.294855  
     390A      0.295267   391A      0.297350   392A      0.298779  
     393A      0.299705   394A      0.301355   395A      0.302684  
     396A      0.303914   397A      0.305134   398A      0.309226  
     399A      0.312694   400A      0.314256   401A      0.316705  
     402A      0.318832   403A      0.320360   404A      0.320797  
     405A      0.321250   406A      0.322717   407A      0.329451  
     408A      0.330003   409A      0.331806   410A      0.331869  
     411A      0.336805   412A      0.337424   413A      0.337561  
     414A      0.338224   415A      0.338865   416A      0.339377  
     417A      0.341820   418A      0.343394   419A      0.343617  
     420A      0.344238   421A      0.346815   422A      0.348378  
     423A      0.349960   424A      0.352651   425A      0.353016  
     426A      0.353173   427A      0.353789   428A      0.354227  
     429A      0.354650   430A      0.356768   431A      0.357206  
     432A      0.359785   433A      0.361177   434A      0.366396  
     435A      0.367552   436A      0.369316   437A      0.369716  
     438A      0.370232   439A      0.375482   440A      0.379050  
     441A      0.382617   442A      0.382944   443A      0.385583  
     444A      0.389570   445A      0.389843   446A      0.391504  
     447A      0.391623   448A      0.394137   449A      0.395844  
     450A      0.396290   451A      0.399005   452A      0.400605  
     453A      0.402669   454A      0.405395   455A      0.406093  
     456A      0.406185   457A      0.406609   458A      0.408153  
     459A      0.409908   460A      0.413567   461A      0.416198  
     462A      0.416542   463A      0.417419   464A      0.418817  
     465A      0.422977   466A      0.427659   467A      0.427978  
     468A      0.429686   469A      0.429946   470A      0.439406  
     471A      0.439619   472A      0.439719   473A      0.441173  
     474A      0.441804   475A      0.444111   476A      0.447628  
     477A      0.447833   478A      0.449020   479A      0.452800  
     480A      0.453488   481A      0.456086   482A      0.458406  
     483A      0.458593   484A      0.459027   485A      0.462665  
     486A      0.464601   487A      0.465421   488A      0.470641  
     489A      0.471431   490A      0.472473   491A      0.482061  
     492A      0.484176   493A      0.486125   494A      0.487976  
     495A      0.489470   496A      0.493930   497A      0.494190  
     498A      0.494633   499A      0.498068   500A      0.498164  
     501A      0.499470   502A      0.501339   503A      0.501578  
     504A      0.506213   505A      0.507555   506A      0.507811  
     507A      0.508264   508A      0.514880   509A      0.515153  
     510A      0.516299   511A      0.531619   512A      0.531969  
     513A      0.541987   514A      0.542610   515A      0.543511  
     516A      0.550778   517A      0.559147   518A      0.559497  
     519A      0.566637   520A      0.566775   521A      0.572220  
     522A      0.572323   523A      0.572967   524A      0.589643  
     525A      0.594680   526A      0.594858   527A      0.599649  
     528A      0.612494   529A      0.612551   530A      0.615237  
     531A      0.617127   532A      0.622989   533A      0.623047  
     534A      0.626855   535A      0.637048   536A      0.656938  
     537A      0.660387   538A      0.661572   539A      0.662129  
     540A      0.671917   541A      0.677937   542A      0.686276  
     543A      0.687103   544A      0.688475   545A      0.688987  
     546A      0.689231   547A      0.689499   548A      0.695618  
     549A      0.702536   550A      0.702717   551A      0.703106  
     552A      0.707109   553A      0.711700   554A      0.715807  
     555A      0.719703   556A      0.727786   557A      0.736698  
     558A      0.740262   559A      0.743242   560A      0.747625  
     561A      0.748750   562A      0.751579   563A      0.753078  
     564A      0.755868   565A      0.758053   566A      0.759629  
     567A      0.762400   568A      0.766680   569A      0.770812  
     570A      0.773544   571A      0.773687   572A      0.776793  
     573A      0.777235   574A      0.782135   575A      0.787298  
     576A      0.788353   577A      0.791009   578A      0.791548  
     579A      0.801073   580A      0.801212   581A      0.804188  
     582A      0.808681   583A      0.810257   584A      0.811722  
     585A      0.816193   586A      0.818014   587A      0.818264  
     588A      0.819119   589A      0.821483   590A      0.823577  
     591A      0.823774   592A      0.827436   593A      0.833851  
     594A      0.834625   595A      0.836479   596A      0.841712  
     597A      0.842872   598A      0.844104   599A      0.844474  
     600A      0.848675   601A      0.853894   602A      0.854280  
     603A      0.854983   604A      0.856504   605A      0.857889  
     606A      0.860017   607A      0.861322   608A      0.862374  
     609A      0.867977   610A      0.868016   611A      0.874154  
     612A      0.876666   613A      0.877175   614A      0.877539  
     615A      0.878196   616A      0.881442   617A      0.881492  
     618A      0.887431   619A      0.887795   620A      0.891111  
     621A      0.891676   622A      0.894127   623A      0.902763  
     624A      0.902934   625A      0.903468   626A      0.911626  
     627A      0.916364   628A      0.916452   629A      0.917194  
     630A      0.917514   631A      0.918914   632A      0.918965  
     633A      0.923135   634A      0.925315   635A      0.926607  
     636A      0.933310   637A      0.933667   638A      0.939481  
     639A      0.943786   640A      0.943912   641A      0.950967  
     642A      0.954698   643A      0.960276   644A      0.961873  
     645A      0.962248   646A      0.962923   647A      0.964526  
     648A      0.965793   649A      0.974015   650A      0.977552  
     651A      0.978121   652A      0.980301   653A      0.980583  
     654A      0.981130   655A      0.984207   656A      0.984468  
     657A      0.985062   658A      0.986559   659A      0.987091  
     660A      0.990369   661A      0.990799   662A      0.990960  
     663A      0.991678   664A      0.993115   665A      0.994535  
     666A      0.999710   667A      1.000244   668A      1.005640  
     669A      1.006185   670A      1.006672   671A      1.006872  
     672A      1.012566   673A      1.014631   674A      1.016861  
     675A      1.017627   676A      1.018232   677A      1.022987  
     678A      1.025324   679A      1.028201   680A      1.029385  
     681A      1.029590   682A      1.031828   683A      1.032619  
     684A      1.033861   685A      1.038542   686A      1.042087  
     687A      1.049495   688A      1.049665   689A      1.050465  
     690A      1.056556   691A      1.058938   692A      1.061142  
     693A      1.061647   694A      1.061755   695A      1.062320  
     696A      1.065722   697A      1.066599   698A      1.071028  
     699A      1.071142   700A      1.074318   701A      1.077644  
     702A      1.079789   703A      1.079990   704A      1.085618  
     705A      1.085689   706A      1.086463   707A      1.088791  
     708A      1.090414   709A      1.099586   710A      1.107049  
     711A      1.112560   712A      1.112801   713A      1.119177  
     714A      1.122377   715A      1.122608   716A      1.124082  
     717A      1.127690   718A      1.127874   719A      1.130055  
     720A      1.134801   721A      1.141098   722A      1.142647  
     723A      1.144431   724A      1.145073   725A      1.148683  
     726A      1.156048   727A      1.158510   728A      1.163450  
     729A      1.163556   730A      1.166092   731A      1.168375  
     732A      1.168523   733A      1.172426   734A      1.184769  
     735A      1.185103   736A      1.185234   737A      1.202307  
     738A      1.205791   739A      1.207946   740A      1.208111  
     741A      1.208257   742A      1.208554   743A      1.211381  
     744A      1.211726   745A      1.214177   746A      1.222934  
     747A      1.227217   748A      1.240161   749A      1.240406  
     750A      1.242549   751A      1.242673   752A      1.243950  
     753A      1.245529   754A      1.253478   755A      1.253992  
     756A      1.255451   757A      1.255645   758A      1.264573  
     759A      1.265053   760A      1.266081   761A      1.267043  
     762A      1.274912   763A      1.275070   764A      1.276173  
     765A      1.280356   766A      1.281696   767A      1.285495  
     768A      1.286987   769A      1.287458   770A      1.293543  
     771A      1.294956   772A      1.299114   773A      1.299233  
     774A      1.302911   775A      1.303827   776A      1.304729  
     777A      1.305914   778A      1.310254   779A      1.311630  
     780A      1.326367   781A      1.330162   782A      1.336485  
     783A      1.345942   784A      1.348395   785A      1.349394  
     786A      1.352336   787A      1.352853   788A      1.356011  
     789A      1.357833   790A      1.359503   791A      1.364454  
     792A      1.368348   793A      1.369867   794A      1.371793  
     795A      1.373554   796A      1.377452   797A      1.381493  
     798A      1.382131   799A      1.382232   800A      1.384747  
     801A      1.385282   802A      1.385636   803A      1.393389  
     804A      1.394061   805A      1.395587   806A      1.407465  
     807A      1.407783   808A      1.416658   809A      1.417809  
     810A      1.433022   811A      1.461752   812A      1.462004  
     813A      1.465639   814A      1.465740   815A      1.474096  
     816A      1.477560   817A      1.487065   818A      1.496754  
     819A      1.512291   820A      1.519755   821A      1.527353  
     822A      1.542404   823A      1.543898   824A      1.544432  
     825A      1.552308   826A      1.552699   827A      1.553601  
     828A      1.555649   829A      1.555922   830A      1.559694  
     831A      1.566141   832A      1.566535   833A      1.572691  
     834A      1.573602   835A      1.574098   836A      1.584817  
     837A      1.584846   838A      1.587633   839A      1.587849  
     840A      1.587888   841A      1.587957   842A      1.595487  
     843A      1.605936   844A      1.605979   845A      1.612401  
     846A      1.615134   847A      1.619885   848A      1.619928  
     849A      1.621268   850A      1.621990   851A      1.622122  
     852A      1.627718   853A      1.629232   854A      1.631130  
     855A      1.631179   856A      1.641111   857A      1.642637  
     858A      1.644506   859A      1.644703   860A      1.645261  
     861A      1.648447   862A      1.648555   863A      1.661081  
     864A      1.661207   865A      1.670979   866A      1.678984  
     867A      1.686413   868A      1.690403   869A      1.695666  
     870A      1.701647   871A      1.706149   872A      1.706922  
     873A      1.707024   874A      1.707583   875A      1.721766  
     876A      1.721770   877A      1.736526   878A      1.736591  
     879A      1.742478   880A      1.755931   881A      1.758174  
     882A      1.761168   883A      1.762096   884A      1.762371  
     885A      1.763806   886A      1.765733   887A      1.768834  
     888A      1.768910   889A      1.775691   890A      1.775860  
     891A      1.782215   892A      1.786713   893A      1.786943  
     894A      1.792707   895A      1.805728   896A      1.806115  
     897A      1.806576   898A      1.806737   899A      1.809487  
     900A      1.814150   901A      1.816980   902A      1.817992  
     903A      1.820615   904A      1.824459   905A      1.824554  
     906A      1.826652   907A      1.841064   908A      1.841125  
     909A      1.845500   910A      1.849079   911A      1.849203  
     912A      1.853069   913A      1.853174   914A      1.854004  
     915A      1.859475   916A      1.860733   917A      1.862394  
     918A      1.862556   919A      1.863864   920A      1.866689  
     921A      1.866864   922A      1.867347   923A      1.877907  
     924A      1.885580   925A      1.887171   926A      1.887411  
     927A      1.887589   928A      1.893123   929A      1.893217  
     930A      1.898122   931A      1.898509   932A      1.899049  
     933A      1.899302   934A      1.902812   935A      1.904313  
     936A      1.907326   937A      1.916693   938A      1.926937  
     939A      1.927213   940A      1.935100   941A      1.942158  
     942A      1.944031   943A      1.944047   944A      1.950118  
     945A      1.954366   946A      1.955158   947A      1.957868  
     948A      1.957892   949A      1.972200   950A      1.973776  
     951A      1.974645   952A      1.975104   953A      1.975266  
     954A      1.976202   955A      1.976424   956A      1.976735  
     957A      1.993244   958A      1.997071   959A      1.997372  
     960A      2.002129   961A      2.003133   962A      2.004517  
     963A      2.005709   964A      2.012114   965A      2.014284  
     966A      2.014854   967A      2.016065   968A      2.016479  
     969A      2.020214   970A      2.020841   971A      2.026153  
     972A      2.028748   973A      2.029151   974A      2.038676  
     975A      2.040122   976A      2.041949   977A      2.042350  
     978A      2.045501   979A      2.045772   980A      2.049522  
     981A      2.052882   982A      2.053158   983A      2.053296  
     984A      2.053593   985A      2.054527   986A      2.056948  
     987A      2.059908   988A      2.064645   989A      2.064706  
     990A      2.064846   991A      2.065300   992A      2.071490  
     993A      2.071756   994A      2.075566   995A      2.078652  
     996A      2.079606   997A      2.081421   998A      2.081536  
     999A      2.088595  1000A      2.088628  1001A      2.098999  
    1002A      2.101085  1003A      2.103733  1004A      2.103927  
    1005A      2.107467  1006A      2.107660  1007A      2.115235  
    1008A      2.123419  1009A      2.123629  1010A      2.136586  
    1011A      2.136868  1012A      2.136950  1013A      2.139308  
    1014A      2.139356  1015A      2.140365  1016A      2.142152  
    1017A      2.144628  1018A      2.153656  1019A      2.164379  
    1020A      2.164437  1021A      2.164715  1022A      2.166866  
    1023A      2.171752  1024A      2.172908  1025A      2.173084  
    1026A      2.173916  1027A      2.189652  1028A      2.190124  
    1029A      2.190157  1030A      2.190391  1031A      2.193334  
    1032A      2.206247  1033A      2.206366  1034A      2.207552  
    1035A      2.215421  1036A      2.215482  1037A      2.217827  
    1038A      2.217872  1039A      2.227662  1040A      2.231819  
    1041A      2.245966  1042A      2.252188  1043A      2.254703  
    1044A      2.255894  1045A      2.256857  1046A      2.264846  
    1047A      2.266743  1048A      2.274656  1049A      2.274733  
    1050A      2.275392  1051A      2.278083  1052A      2.295100  
    1053A      2.295725  1054A      2.297406  1055A      2.297541  
    1056A      2.302637  1057A      2.310694  1058A      2.310818  
    1059A      2.318123  1060A      2.324641  1061A      2.333080  
    1062A      2.342081  1063A      2.361553  1064A      2.368827  
    1065A      2.369333  1066A      2.369511  1067A      2.382018  
    1068A      2.385694  1069A      2.385730  1070A      2.414775  
    1071A      2.417990  1072A      2.418427  1073A      2.430524  
    1074A      2.430784  1075A      2.447312  1076A      2.450732  
    1077A      2.464770  1078A      2.468055  1079A      2.474635  
    1080A      2.475080  1081A      2.489609  1082A      2.490893  
    1083A      2.491140  1084A      2.498792  1085A      2.500543  
    1086A      2.500711  1087A      2.504376  1088A      2.504864  
    1089A      2.504951  1090A      2.517807  1091A      2.517847  
    1092A      2.520982  1093A      2.521459  1094A      2.531694  
    1095A      2.531797  1096A      2.531943  1097A      2.534897  
    1098A      2.537870  1099A      2.551660  1100A      2.569176  
    1101A      2.569339  1102A      2.570505  1103A      2.575910  
    1104A      2.576407  1105A      2.578855  1106A      2.586923  
    1107A      2.587020  1108A      2.596742  1109A      2.597058  
    1110A      2.602350  1111A      2.610232  1112A      2.626512  
    1113A      2.627588  1114A      2.629396  1115A      2.633057  
    1116A      2.641483  1117A      2.645880  1118A      2.646044  
    1119A      2.657336  1120A      2.657517  1121A      2.663173  
    1122A      2.663348  1123A      2.666782  1124A      2.667429  
    1125A      2.667596  1126A      2.679797  1127A      2.684395  
    1128A      2.684867  1129A      2.693627  1130A      2.697963  
    1131A      2.698154  1132A      2.711407  1133A      2.721972  
    1134A      2.738879  1135A      2.739026  1136A      2.742264  
    1137A      2.752830  1138A      2.761020  1139A      2.771286  
    1140A      2.773004  1141A      2.795983  1142A      2.796888  
    1143A      2.798905  1144A      2.799658  1145A      2.801977  
    1146A      2.803877  1147A      2.804066  1148A      2.813273  
    1149A      2.862727  1150A      2.862796  1151A      2.869638  
    1152A      2.879205  1153A      2.879356  1154A      2.894897  
    1155A      2.894935  1156A      2.908603  1157A      2.922631  
    1158A      2.951352  1159A      2.951900  1160A      2.958159  
    1161A      2.975356  1162A      2.980977  1163A      3.008299  
    1164A      3.008303  1165A      3.015162  1166A      3.015439  
    1167A      3.052018  1168A      3.054959  1169A      3.055731  
    1170A      3.069683  1171A      3.074283  1172A      3.074995  
    1173A      3.075097  1174A      3.082916  1175A      3.091698  
    1176A      3.091906  1177A      3.091985  1178A      3.094578  
    1179A      3.094802  1180A      3.103111  1181A      3.103685  
    1182A      3.111095  1183A      3.111723  1184A      3.137728  
    1185A      3.157157  1186A      3.163475  1187A      3.182769  
    1188A      3.217444  1189A      3.221801  1190A      3.221900  
    1191A      3.226486  1192A      3.226799  1193A      3.360560  
    1194A      3.361010  1195A      3.384591  1196A      3.425341  
    1197A      3.427800  1198A      3.444503  1199A      3.492772  
    1200A      3.520684  1201A      3.522522  1202A      3.533335  
    1203A      3.537543  1204A      3.571215  1205A      3.573227  
    1206A      3.607710  1207A      3.613438  1208A      3.713663  
    1209A      3.726699  1210A      3.727596  1211A      3.816092  
    1212A      3.816235  1213A      3.858043  1214A      3.858288  
    1215A      3.921059  1216A      3.954933  1217A      3.975487  
    1218A      3.987311  1219A      4.023653  

    Final Occupation by Irrep:
              A 
    DOCC [   197 ]
    NA   [   197 ]
    NB   [   197 ]

  @DF-RHF Final Energy: -2359.19704216095079

   => Energetics <=

    Nuclear Repulsion Energy =           7790.1353859440778251
    One-Electron Energy =              -18686.4980461458326317
    Two-Electron Energy =                8537.1656180408026557
    Total Energy =                      -2359.1970421609512414

Computation Completed


Properties will be evaluated at   0.000000,   0.000000,   0.000000 [a0]

Properties computed using the SCF density matrix


 Multipole Moments:

 ------------------------------------------------------------------------------------
     Multipole            Electronic (a.u.)      Nuclear  (a.u.)        Total (a.u.)
 ------------------------------------------------------------------------------------

 L = 1.  Multiply by 2.5417464519 to convert [e a0] to [Debye]
 Dipole X            :         -0.0011135            0.0006313           -0.0004822
 Dipole Y            :         -0.0479511            0.0560211            0.0080700
 Dipole Z            :         27.8313868          -39.8145932          -11.9832063
 Magnitude           :                                                   11.9832091

 ------------------------------------------------------------------------------------

*** tstop() called on d-18-8-4 at Mon Jan 22 19:58:46 2024
Module time:
	user time   =    4028.00 seconds =      67.13 minutes
	system time =      77.93 seconds =       1.30 minutes
	total time  =        452 seconds =       7.53 minutes
Total time:
	user time   =    4028.00 seconds =      67.13 minutes
	system time =      77.93 seconds =       1.30 minutes
	total time  =        452 seconds =       7.53 minutes

  //>>>>>>>>>>>>>>>>>>>>>>>>>>>>>>>>>>>//
  //            Monomer A HF           //
  //<<<<<<<<<<<<<<<<<<<<<<<<<<<<<<<<<<<//

   => Libint2 <=

    Primary   basis highest AM E, G, H:  7, 7, 4
    Auxiliary basis highest AM E, G, H:  7, 7, 5
    Onebody   basis highest AM E, G, H:  7, 7, 5
    Solid Harmonics ordering:            gaussian

*** tstart() called on d-18-8-4
*** at Mon Jan 22 19:58:46 2024

   => Loading Basis Set <=

    Name: JUN-CC-PVDZ
    Role: ORBITAL
    Keyword: BASIS
    atoms 1-2, 4-5, 10, 17-70 entry C          line   164 file /home/gridsan/tfroembgen/.conda/envs/psi4test/share/psi4/basis/jun-cc-pvdz.gbs 
    atoms 3, 6                entry N          line   198 file /home/gridsan/tfroembgen/.conda/envs/psi4test/share/psi4/basis/jun-cc-pvdz.gbs 
    atoms 7-9, 11-16, 71-88   entry H          line    36 file /home/gridsan/tfroembgen/.conda/envs/psi4test/share/psi4/basis/jun-cc-pvdz.gbs 


         ---------------------------------------------------------
                                   SCF
               by Justin Turney, Rob Parrish, Andy Simmonett
                          and Daniel G. A. Smith
                              RHF Reference
                       12 Threads,  30517 MiB Core
         ---------------------------------------------------------

  ==> Geometry <==

    Molecular point group: c1
    Full point group: C1

    Geometry (in Angstrom), charge = 1, multiplicity = 1:

       Center              X                  Y                   Z               Mass       
    ------------   -----------------  -----------------  -----------------  -----------------
         C            0.680066520158    -0.008042372515    -8.198380356379    12.000000000000
         C           -0.680504479842    -0.006014372515    -8.197996356379    12.000000000000
         N           -1.085635479842    -0.005016372515    -6.879672356379    14.003074004430
         C            0.000107520158    -0.001740372515    -6.098271356379    12.000000000000
         C           -2.477365479842     0.044389627485    -6.411693356379    12.000000000000
         N            1.085221520158    -0.005016372515    -6.879672356379    14.003074004430
         H            1.385145520158    -0.015870372515    -9.015819356379     1.007825032230
         H           -1.385302479842    -0.006204372515    -9.015665356379     1.007825032230
         H           -0.000009479842     0.000006627485    -5.017182356379     1.007825032230
         C            2.478116520158    -0.021908372515    -6.414574356379    12.000000000000
         H            2.490591520158     0.005436627485    -5.324321356379     1.007825032230
         H            2.967027520158    -0.935354372515    -6.761750356379     1.007825032230
         H            3.001427520158     0.853574627485    -6.806046356379     1.007825032230
         H           -2.857359479842     1.066460627485    -6.491652356379     1.007825032230
         H           -3.082679479842    -0.625694372515    -7.024757356379     1.007825032230
         H           -2.518128479842    -0.282594372515    -5.371745356379     1.007825032230
      Gh(C)           1.225311895423     0.707538288405     1.023686270905    12.000000000000
      Gh(C)           1.225323856051    -0.707538895085     1.011355461334    12.000000000000
      Gh(C)          -0.000006153932     1.414965913575     1.010821837813    12.000000000000
      Gh(C)           2.456448753949     1.418327886663     1.026573128304    12.000000000000
      Gh(C)           0.000010827279    -1.414976499150     1.021021395138    12.000000000000
      Gh(C)          -1.225300948908     0.707545373469     1.025937791227    12.000000000000
      Gh(C)           2.456437755320    -1.418323304396     1.009110304477    12.000000000000
      Gh(C)          -0.000001332978     2.836801030766     1.008418287679    12.000000000000
      Gh(C)           3.681826697470     0.709317955486     1.009459094275    12.000000000000
      Gh(C)           2.455120048865     2.834223660974     1.009356537315    12.000000000000
      Gh(C)           3.681821105219    -0.709333839944     1.025531578294    12.000000000000
      Gh(C)          -1.225313598688    -0.707527516059     1.012428222761    12.000000000000
      Gh(C)           1.226699581202     3.543469483479     1.025715610224    12.000000000000
      Gh(C)           0.000004784858    -2.836782139751     1.025869562760    12.000000000000
      Gh(C)          -2.456436032848     1.418316917770     1.025973187073    12.000000000000
      Gh(C)           2.455123417779    -2.834230029103     1.025379669926    12.000000000000
      Gh(C)          -1.226714364589     3.543469063235     1.025818943444    12.000000000000
      Gh(C)           4.914517295202     1.427172871975     1.015939777305    12.000000000000
      Gh(C)           3.693150191476     3.542795292030     1.015989576941    12.000000000000
      Gh(C)          -2.456437600068    -1.418313281354     1.009085266353    12.000000000000
      Gh(C)           1.226704841943    -3.543474242421     1.009745479475    12.000000000000
      Gh(C)          -2.455125398508     2.834216662119     1.009362913661    12.000000000000
      Gh(C)           4.914524380782    -1.427186910459     1.018912520039    12.000000000000
      Gh(C)           1.221424613699     4.970134064745     1.019050954299    12.000000000000
      Gh(C)           4.893008229321     2.825187999512     1.017156445663    12.000000000000
      Gh(C)          -1.226697008489    -3.543470997592     1.010012683884    12.000000000000
      Gh(C)          -3.681818976526     0.709324966217     1.009471774755    12.000000000000
      Gh(C)           3.693147101150    -3.542801341905     1.019030410600    12.000000000000
      Gh(C)          -1.221432251994     4.970128297348     1.019234449672    12.000000000000
      Gh(C)           6.134770972926     0.680547946591     1.016709551855    12.000000000000
      Gh(C)           3.656788880610     4.972953243053     1.016898214724    12.000000000000
      Gh(C)          -2.455126907733    -2.834215093576     1.025135312128    12.000000000000
      Gh(C)          -3.681819179061    -0.709325703983     1.025649199872    12.000000000000
      Gh(C)           4.893012617914    -2.825200106147     1.017767597559    12.000000000000
      Gh(C)          -0.000001073113     5.650447365518     1.018003140965    12.000000000000
      Gh(C)           6.134775112332    -0.680554854590     1.017974872370    12.000000000000
      Gh(C)           2.478131482856     5.653576750817     1.018186994373    12.000000000000
      Gh(C)           1.221422404738    -4.970127055448     1.016251457276    12.000000000000
      Gh(C)          -3.693162383965     3.542796953677     1.016155084400    12.000000000000
      Gh(C)          -1.221428520945    -4.970118304111     1.016138695444    12.000000000000
      Gh(C)          -4.914521807942     1.427175446480     1.016016722312    12.000000000000
      Gh(C)           3.656787019679    -4.972955226754     1.018348715258    12.000000000000
      Gh(C)          -2.478138530106     5.653574422014     1.018471519382    12.000000000000
      Gh(C)          -3.693141738564    -3.542790219494     1.018914284444    12.000000000000
      Gh(C)          -4.914512483053    -1.427181000542     1.018947217213    12.000000000000
      Gh(C)          -0.000006008926    -5.650438287528     1.017607636844    12.000000000000
      Gh(C)          -4.893020484101     2.825188598404     1.017146363803    12.000000000000
      Gh(C)           2.478125993298    -5.653573544403     1.017258114465    12.000000000000
      Gh(C)          -3.656798710258     4.972956181527     1.017074895098    12.000000000000
      Gh(C)          -4.892999478856    -2.825191767575     1.017613561861    12.000000000000
      Gh(C)          -2.478128498083    -5.653566170521     1.016982926818    12.000000000000
      Gh(C)          -6.134770503331     0.680548765741     1.016684000152    12.000000000000
      Gh(C)          -3.656788833189    -4.972944023485     1.018134427441    12.000000000000
      Gh(C)          -6.134765042913    -0.680553915997     1.017954396575    12.000000000000
      Gh(H)           5.835288495816     3.369275894439     1.021515771326     1.007825032230
      Gh(H)           7.073859172747     1.228217248385     1.017171195248     1.007825032230
      Gh(H)           4.600663264174     5.512380801938     1.017403415476     1.007825032230
      Gh(H)           5.835283387305    -3.369306057244     1.013313130244     1.007825032230
      Gh(H)          -0.000012151306     6.738530673622     1.013653895957     1.007825032230
      Gh(H)           7.073861171831    -1.228226943259     1.017466134276     1.007825032230
      Gh(H)           2.473313731799     6.740684290880     1.017720273443     1.007825032230
      Gh(H)           4.600668491381    -5.512376129691     1.017938718089     1.007825032230
      Gh(H)          -2.473318680537     6.740681719092     1.018021620068     1.007825032230
      Gh(H)          -0.000010268228    -6.738528176967     1.022137321828     1.007825032230
      Gh(H)          -5.835301914343     3.369270949781     1.021651793474     1.007825032230
      Gh(H)           2.473307923831    -6.740685374944     1.017828444890     1.007825032230
      Gh(H)          -4.600674841208     5.512378026089     1.017568743799     1.007825032230
      Gh(H)          -5.835279506835    -3.369288964294     1.013033824364     1.007825032230
      Gh(H)          -2.473300347440    -6.740679078655     1.017379128346     1.007825032230
      Gh(H)          -7.073857766768     1.228220472326     1.017087203767     1.007825032230
      Gh(H)          -4.600673786085    -5.512362670301     1.017766410067     1.007825032230
      Gh(H)          -7.073856934409    -1.228220632492     1.017371277810     1.007825032230

  Running in c1 symmetry.

  Rotational constants: A =      0.00129  B =      0.00126  C =      0.00109 [cm^-1]
  Rotational constants: A =     38.58212  B =     37.88989  C =     32.71081 [MHz]
  Nuclear repulsion =  306.774908447733196

  Charge       = 1
  Multiplicity = 1
  Electrons    = 52
  Nalpha       = 26
  Nbeta        = 26

  ==> Algorithm <==

  SCF Algorithm Type is DF.
  DIIS enabled.
  MOM disabled.
  Fractional occupation disabled.
  Guess Type is SAD.
  Energy threshold   = 1.00e-08
  Density threshold  = 1.00e-08
  Integral threshold = 1.00e-12

  ==> Primary Basis <==

  Basis Set: JUN-CC-PVDZ
    Blend: JUN-CC-PVDZ
    Number of shells: 569
    Number of basis functions: 1233
    Number of Cartesian functions: 1294
    Spherical Harmonics?: true
    Max angular momentum: 2

   => Loading Basis Set <=

    Name: (JUN-CC-PVDZ AUX)
    Role: JKFIT
    Keyword: DF_BASIS_SCF
    atoms 1-2, 4-5, 10, 17-70 entry C          line   146 file /home/gridsan/tfroembgen/.conda/envs/psi4test/share/psi4/basis/jun-cc-pvdz-jkfit.gbs 
    atoms 3, 6                entry N          line   202 file /home/gridsan/tfroembgen/.conda/envs/psi4test/share/psi4/basis/jun-cc-pvdz-jkfit.gbs 
    atoms 7-9, 11-16, 71-88   entry H          line    70 file /home/gridsan/tfroembgen/.conda/envs/psi4test/share/psi4/basis/jun-cc-pvdz-jkfit.gbs 

  ==> Integral Setup <==

  ==> DiskDFJK: Density-Fitted J/K Matrices <==

    J tasked:                  Yes
    K tasked:                  Yes
    wK tasked:                  No
    OpenMP threads:             12
    Integrals threads:          12
    Memory [MiB]:            22888
    Algorithm:                Core
    Integral Cache:           LOAD
    Schwarz Cutoff:          1E-12
    Fitting Condition:       1E-10

   => Auxiliary Basis Set <=

  Basis Set: (JUN-CC-PVDZ AUX)
    Blend: JUN-CC-PVDZ-JKFIT
    Number of shells: 1890
    Number of basis functions: 5440
    Number of Cartesian functions: 6226
    Spherical Harmonics?: true
    Max angular momentum: 3

  Minimum eigenvalue in the overlap matrix is 8.3965348855E-10.
  Reciprocal condition number of the overlap matrix is 3.7556305643E-11.
    Using canonical orthogonalization.
  Overall, 14 of 1233 possible MOs eliminated.


  ==> Pre-Iterations <==

  SCF Guess: Superposition of Atomic Densities via on-the-fly atomic UHF (no occupation information).

   -------------------------
    Irrep   Nso     Nmo    
   -------------------------
     A       1233    1219 
   -------------------------
    Total    1233    1219
   -------------------------

  ==> Iterations <==

                           Total Energy        Delta E     RMS |[F,P]|

   @DF-RHF iter SAD:  -303.36533961542511   -3.03365e+02   0.00000e+00 
   @DF-RHF iter   1:  -303.16940816304418    1.95931e-01   3.44039e-04 DIIS/ADIIS
   @DF-RHF iter   2:  -303.28373724907300   -1.14329e-01   1.15858e-04 DIIS/ADIIS
   @DF-RHF iter   3:  -303.29518191715283   -1.14447e-02   4.53151e-05 DIIS
   @DF-RHF iter   4:  -303.29708286483481   -1.90095e-03   9.88881e-06 DIIS
   @DF-RHF iter   5:  -303.29718827918362   -1.05414e-04   2.41053e-06 DIIS
   @DF-RHF iter   6:  -303.29719752542911   -9.24625e-06   6.54148e-07 DIIS
   @DF-RHF iter   7:  -303.29719859733865   -1.07191e-06   3.32028e-07 DIIS
   @DF-RHF iter   8:  -303.29719884954255   -2.52204e-07   1.33586e-07 DIIS
   @DF-RHF iter   9:  -303.29719889793694   -4.83944e-08   3.37120e-08 DIIS
   @DF-RHF iter  10:  -303.29719890076206   -2.82512e-09   1.26763e-08 DIIS
   @DF-RHF iter  11:  -303.29719890100881   -2.46757e-10   2.99182e-09 DIIS
  Energy and wave function converged.


  ==> Post-Iterations <==

    Orbital Energies [Eh]
    ---------------------

    Doubly Occupied:                                                      

       1A    -15.834666     2A    -15.834134     3A    -11.529553  
       4A    -11.459859     5A    -11.458305     6A    -11.449668  
       7A    -11.449553     8A     -1.578231     9A     -1.433822  
      10A     -1.238663    11A     -1.189307    12A     -1.118864  
      13A     -1.022533    14A     -0.996963    15A     -0.917044  
      16A     -0.850521    17A     -0.816256    18A     -0.813201  
      19A     -0.790127    20A     -0.786225    21A     -0.781771  
      22A     -0.729703    23A     -0.725781    24A     -0.717094  
      25A     -0.596301    26A     -0.523855  

    Virtual:                                                              

      27A     -0.072007    28A     -0.070241    29A     -0.057394  
      30A     -0.050802    31A     -0.036399    32A     -0.034005  
      33A     -0.032460    34A     -0.031526    35A     -0.031067  
      36A     -0.023581    37A     -0.018984    38A     -0.017662  
      39A     -0.014391    40A     -0.009911    41A     -0.007028  
      42A     -0.005566    43A     -0.002505    44A      0.000129  
      45A      0.000936    46A      0.002055    47A      0.003162  
      48A      0.010570    49A      0.011981    50A      0.012360  
      51A      0.015103    52A      0.020264    53A      0.020408  
      54A      0.024016    55A      0.025724    56A      0.028430  
      57A      0.031112    58A      0.031736    59A      0.034112  
      60A      0.036299    61A      0.037467    62A      0.040884  
      63A      0.040962    64A      0.041970    65A      0.048659  
      66A      0.052059    67A      0.054557    68A      0.055080  
      69A      0.057412    70A      0.058718    71A      0.058862  
      72A      0.063818    73A      0.065603    74A      0.066101  
      75A      0.069780    76A      0.072377    77A      0.072729  
      78A      0.073196    79A      0.074966    80A      0.075147  
      81A      0.076826    82A      0.077227    83A      0.077925  
      84A      0.081367    85A      0.082973    86A      0.084497  
      87A      0.085035    88A      0.090188    89A      0.090896  
      90A      0.092100    91A      0.092149    92A      0.095062  
      93A      0.095345    94A      0.097075    95A      0.098880  
      96A      0.099987    97A      0.102508    98A      0.102854  
      99A      0.103283   100A      0.103872   101A      0.111812  
     102A      0.111957   103A      0.114078   104A      0.115560  
     105A      0.118041   106A      0.118369   107A      0.120272  
     108A      0.121850   109A      0.122649   110A      0.122915  
     111A      0.124767   112A      0.126978   113A      0.128207  
     114A      0.129113   115A      0.129847   116A      0.131377  
     117A      0.133245   118A      0.134924   119A      0.137301  
     120A      0.140699   121A      0.141634   122A      0.143615  
     123A      0.143731   124A      0.143974   125A      0.144451  
     126A      0.145733   127A      0.146475   128A      0.150014  
     129A      0.150039   130A      0.151061   131A      0.151790  
     132A      0.155858   133A      0.156028   134A      0.156847  
     135A      0.157744   136A      0.161471   137A      0.167175  
     138A      0.167381   139A      0.170727   140A      0.171062  
     141A      0.171173   142A      0.172421   143A      0.173130  
     144A      0.174424   145A      0.175953   146A      0.177244  
     147A      0.177845   148A      0.182937   149A      0.184082  
     150A      0.185495   151A      0.186336   152A      0.186888  
     153A      0.187299   154A      0.189358   155A      0.189456  
     156A      0.190448   157A      0.192220   158A      0.194344  
     159A      0.196467   160A      0.199375   161A      0.199478  
     162A      0.199893   163A      0.201245   164A      0.201963  
     165A      0.203953   166A      0.210339   167A      0.216437  
     168A      0.216969   169A      0.217675   170A      0.220958  
     171A      0.222007   172A      0.223837   173A      0.223878  
     174A      0.224354   175A      0.224408   176A      0.226144  
     177A      0.227197   178A      0.228783   179A      0.230810  
     180A      0.231235   181A      0.232884   182A      0.233228  
     183A      0.234532   184A      0.234577   185A      0.237795  
     186A      0.242037   187A      0.244618   188A      0.245277  
     189A      0.245721   190A      0.249215   191A      0.249498  
     192A      0.252672   193A      0.256556   194A      0.256744  
     195A      0.260687   196A      0.260961   197A      0.262218  
     198A      0.268440   199A      0.271465   200A      0.272002  
     201A      0.273054   202A      0.273461   203A      0.276227  
     204A      0.276869   205A      0.278794   206A      0.282454  
     207A      0.288872   208A      0.289303   209A      0.290449  
     210A      0.292506   211A      0.292843   212A      0.293837  
     213A      0.294268   214A      0.299138   215A      0.299769  
     216A      0.300686   217A      0.301611   218A      0.303310  
     219A      0.306602   220A      0.309050   221A      0.309783  
     222A      0.310261   223A      0.310630   224A      0.311266  
     225A      0.316314   226A      0.317233   227A      0.318618  
     228A      0.319930   229A      0.320061   230A      0.326461  
     231A      0.326674   232A      0.329574   233A      0.331992  
     234A      0.335013   235A      0.335745   236A      0.340844  
     237A      0.342738   238A      0.345272   239A      0.348830  
     240A      0.349491   241A      0.350775   242A      0.353736  
     243A      0.359307   244A      0.363148   245A      0.363877  
     246A      0.366416   247A      0.369608   248A      0.370203  
     249A      0.372111   250A      0.375445   251A      0.375756  
     252A      0.375943   253A      0.375953   254A      0.376623  
     255A      0.378854   256A      0.379691   257A      0.381191  
     258A      0.390310   259A      0.390886   260A      0.391793  
     261A      0.392822   262A      0.393076   263A      0.394564  
     264A      0.399867   265A      0.400342   266A      0.400662  
     267A      0.401224   268A      0.401744   269A      0.401865  
     270A      0.403739   271A      0.409718   272A      0.412757  
     273A      0.412956   274A      0.413433   275A      0.416395  
     276A      0.417076   277A      0.418611   278A      0.421266  
     279A      0.422194   280A      0.422287   281A      0.427573  
     282A      0.427944   283A      0.429269   284A      0.431429  
     285A      0.431694   286A      0.432632   287A      0.433111  
     288A      0.437914   289A      0.438999   290A      0.439889  
     291A      0.440008   292A      0.450287   293A      0.450791  
     294A      0.452583   295A      0.455145   296A      0.457868  
     297A      0.461685   298A      0.462178   299A      0.465431  
     300A      0.468968   301A      0.470584   302A      0.471856  
     303A      0.474416   304A      0.474652   305A      0.475320  
     306A      0.475996   307A      0.476729   308A      0.478464  
     309A      0.485595   310A      0.487119   311A      0.487198  
     312A      0.490640   313A      0.490945   314A      0.492691  
     315A      0.492818   316A      0.507775   317A      0.508401  
     318A      0.510257   319A      0.511534   320A      0.513786  
     321A      0.518715   322A      0.518870   323A      0.519523  
     324A      0.520134   325A      0.522030   326A      0.522730  
     327A      0.524075   328A      0.525208   329A      0.531856  
     330A      0.542064   331A      0.542635   332A      0.542838  
     333A      0.543710   334A      0.544638   335A      0.544720  
     336A      0.554202   337A      0.554267   338A      0.560066  
     339A      0.561101   340A      0.561622   341A      0.563490  
     342A      0.564053   343A      0.564866   344A      0.565902  
     345A      0.575402   346A      0.576325   347A      0.576911  
     348A      0.583832   349A      0.584077   350A      0.589841  
     351A      0.590106   352A      0.590606   353A      0.594917  
     354A      0.600078   355A      0.606069   356A      0.606753  
     357A      0.615374   358A      0.615617   359A      0.620671  
     360A      0.621900   361A      0.622071   362A      0.623477  
     363A      0.623687   364A      0.626954   365A      0.628857  
     366A      0.633124   367A      0.633630   368A      0.634949  
     369A      0.635195   370A      0.641488   371A      0.642312  
     372A      0.646075   373A      0.646152   374A      0.648945  
     375A      0.650082   376A      0.650154   377A      0.651183  
     378A      0.654120   379A      0.654570   380A      0.656822  
     381A      0.665579   382A      0.666697   383A      0.666971  
     384A      0.667787   385A      0.668059   386A      0.683735  
     387A      0.684691   388A      0.691337   389A      0.692268  
     390A      0.694005   391A      0.697228   392A      0.702846  
     393A      0.704711   394A      0.705123   395A      0.707934  
     396A      0.708369   397A      0.709224   398A      0.709947  
     399A      0.710173   400A      0.710771   401A      0.711814  
     402A      0.714008   403A      0.716785   404A      0.717589  
     405A      0.719964   406A      0.720318   407A      0.720749  
     408A      0.725161   409A      0.731268   410A      0.731451  
     411A      0.732729   412A      0.734773   413A      0.739492  
     414A      0.739579   415A      0.740100   416A      0.741453  
     417A      0.747158   418A      0.748285   419A      0.750714  
     420A      0.750895   421A      0.751909   422A      0.754143  
     423A      0.760996   424A      0.782262   425A      0.789284  
     426A      0.789573   427A      0.792060   428A      0.793119  
     429A      0.793331   430A      0.803227   431A      0.803320  
     432A      0.813321   433A      0.818299   434A      0.821470  
     435A      0.824706   436A      0.824788   437A      0.829729  
     438A      0.829801   439A      0.834184   440A      0.834988  
     441A      0.842503   442A      0.842614   443A      0.849670  
     444A      0.856774   445A      0.860843   446A      0.867902  
     447A      0.867977   448A      0.887537   449A      0.891812  
     450A      0.902186   451A      0.903899   452A      0.903966  
     453A      0.912299   454A      0.912346   455A      0.921518  
     456A      0.934662   457A      0.943809   458A      0.943971  
     459A      0.946023   460A      0.950782   461A      0.953067  
     462A      0.955925   463A      0.967285   464A      0.970844  
     465A      0.971039   466A      0.979096   467A      0.986005  
     468A      0.986428   469A      1.002857   470A      1.009509  
     471A      1.009570   472A      1.011659   473A      1.011848  
     474A      1.032409   475A      1.040037   476A      1.045782  
     477A      1.046620   478A      1.046996   479A      1.049167  
     480A      1.065582   481A      1.097348   482A      1.098071  
     483A      1.098222   484A      1.103627   485A      1.104820  
     486A      1.104951   487A      1.118776   488A      1.120761  
     489A      1.125428   490A      1.126718   491A      1.126964  
     492A      1.138996   493A      1.140196   494A      1.140205  
     495A      1.144886   496A      1.149805   497A      1.163098  
     498A      1.163596   499A      1.163658   500A      1.171845  
     501A      1.172782   502A      1.231214   503A      1.239197  
     504A      1.239201   505A      1.246569   506A      1.249542  
     507A      1.249771   508A      1.264533   509A      1.265472  
     510A      1.265700   511A      1.270636   512A      1.272708  
     513A      1.277041   514A      1.307714   515A      1.313848  
     516A      1.314028   517A      1.320025   518A      1.347382  
     519A      1.364377   520A      1.385903   521A      1.386375  
     522A      1.404858   523A      1.404948   524A      1.406465  
     525A      1.410029   526A      1.410259   527A      1.412820  
     528A      1.422140   529A      1.425753   530A      1.426719  
     531A      1.464221   532A      1.477726   533A      1.486871  
     534A      1.497971   535A      1.498435   536A      1.500443  
     537A      1.501234   538A      1.503255   539A      1.512188  
     540A      1.517523   541A      1.562771   542A      1.566346  
     543A      1.578350   544A      1.581230   545A      1.590323  
     546A      1.593496   547A      1.602041   548A      1.603792  
     549A      1.605093   550A      1.605677   551A      1.619459  
     552A      1.625322   553A      1.626842   554A      1.633393  
     555A      1.634982   556A      1.643977   557A      1.660610  
     558A      1.669070   559A      1.680770   560A      1.687176  
     561A      1.689225   562A      1.690172   563A      1.690834  
     564A      1.691777   565A      1.693420   566A      1.694611  
     567A      1.703231   568A      1.705357   569A      1.705841  
     570A      1.710225   571A      1.727214   572A      1.732646  
     573A      1.732785   574A      1.733821   575A      1.734855  
     576A      1.736827   577A      1.740744   578A      1.745549  
     579A      1.747971   580A      1.750831   581A      1.753703  
     582A      1.756411   583A      1.761954   584A      1.767696  
     585A      1.768790   586A      1.772853   587A      1.773044  
     588A      1.773545   589A      1.776665   590A      1.777161  
     591A      1.780604   592A      1.785733   593A      1.786091  
     594A      1.786350   595A      1.788177   596A      1.791923  
     597A      1.801156   598A      1.804179   599A      1.804582  
     600A      1.808009   601A      1.810954   602A      1.816664  
     603A      1.819664   604A      1.821428   605A      1.822902  
     606A      1.827370   607A      1.828701   608A      1.829856  
     609A      1.831984   610A      1.836187   611A      1.838875  
     612A      1.843482   613A      1.847232   614A      1.849303  
[...]
     790A      1.643531   791A      1.643616   792A      1.643713  
     793A      1.643982   794A      1.650129   795A      1.661049  
     796A      1.661100   797A      1.665394   798A      1.667504  
     799A      1.676299   800A      1.676387   801A      1.676753  
     802A      1.676771   803A      1.677031   804A      1.680874  
     805A      1.686640   806A      1.686694   807A      1.694101  
     808A      1.696059   809A      1.699294   810A      1.699353  
     811A      1.700520   812A      1.702924   813A      1.704759  
     814A      1.704827   815A      1.715746   816A      1.715788  
     817A      1.741697   818A      1.751409   819A      1.756119  
     820A      1.760277   821A      1.760386   822A      1.761071  
     823A      1.761751   824A      1.776732   825A      1.776761  
     826A      1.791448   827A      1.791511   828A      1.792743  
     829A      1.800787   830A      1.805367   831A      1.808004  
     832A      1.816602   833A      1.816622   834A      1.817128  
     835A      1.818319   836A      1.824662   837A      1.824801  
     838A      1.830789   839A      1.830994   840A      1.836905  
     841A      1.838122   842A      1.842412   843A      1.842878  
     844A      1.857735   845A      1.860660   846A      1.860809  
     847A      1.861345   848A      1.861642   849A      1.864160  
     850A      1.869262   851A      1.872227   852A      1.880154  
     853A      1.880311   854A      1.892671   855A      1.896145  
     856A      1.896362   857A      1.897611   858A      1.899442  
     859A      1.902958   860A      1.903142   861A      1.908572  
     862A      1.908672   863A      1.914076   864A      1.914695  
     865A      1.915800   866A      1.917693   867A      1.917871  
     868A      1.919304   869A      1.921979   870A      1.922128  
     871A      1.940637   872A      1.941810   873A      1.941968  
     874A      1.942095   875A      1.943091   876A      1.946502  
     877A      1.946716   878A      1.953959   879A      1.954350  
     880A      1.954546   881A      1.954745   882A      1.958020  
     883A      1.970393   884A      1.982914   885A      1.983208  
     886A      1.989810   887A      1.995670   888A      1.997132  
     889A      1.998631   890A      1.998674   891A      2.006050  
     892A      2.008144   893A      2.012377   894A      2.012392  
     895A      2.016802   896A      2.027816   897A      2.028671  
     898A      2.029877   899A      2.030126   900A      2.030299  
     901A      2.031230   902A      2.031406   903A      2.033684  
     904A      2.038395   905A      2.048109   906A      2.048544  
     907A      2.052093   908A      2.052246   909A      2.057462  
     910A      2.057643   911A      2.058412   912A      2.059796  
     913A      2.062020   914A      2.068360   915A      2.070430  
     916A      2.071345   917A      2.071703   918A      2.075731  
     919A      2.075965   920A      2.081732   921A      2.083405  
     922A      2.084338   923A      2.085744   924A      2.087430  
     925A      2.093897   926A      2.094966   927A      2.096186  
     928A      2.096864   929A      2.100550   930A      2.100646  
     931A      2.107588   932A      2.108125   933A      2.108349  
     934A      2.109233   935A      2.109548   936A      2.110368  
     937A      2.114579   938A      2.114816   939A      2.119246  
     940A      2.119287   941A      2.120259   942A      2.120979  
     943A      2.124993   944A      2.126211   945A      2.126446  
     946A      2.133216   947A      2.134569   948A      2.134986  
     949A      2.135829   950A      2.136425   951A      2.143174  
     952A      2.143191   953A      2.149937   954A      2.155979  
     955A      2.159560   956A      2.159663   957A      2.162726  
     958A      2.162890   959A      2.168920   960A      2.171320  
     961A      2.178241   962A      2.178772   963A      2.188321  
     964A      2.190407   965A      2.190758   966A      2.192500  
     967A      2.193885   968A      2.194295   969A      2.195789  
     970A      2.196316   971A      2.198455   972A      2.213659  
     973A      2.219668   974A      2.220330   975A      2.220369  
     976A      2.227865   977A      2.228174   978A      2.228727  
     979A      2.229042   980A      2.236850   981A      2.243278  
     982A      2.243642   983A      2.243995   984A      2.244272  
     985A      2.247159   986A      2.260092   987A      2.260176  
     988A      2.268022   989A      2.270131   990A      2.270185  
     991A      2.272053   992A      2.272073   993A      2.277722  
     994A      2.281054   995A      2.297989   996A      2.300312  
     997A      2.306670   998A      2.310319   999A      2.312212  
    1000A      2.317424  1001A      2.321000  1002A      2.322327  
    1003A      2.330958  1004A      2.330992  1005A      2.331103  
    1006A      2.333855  1007A      2.341871  1008A      2.343515  
    1009A      2.350747  1010A      2.351409  1011A      2.352418  
    1012A      2.352430  1013A      2.366304  1014A      2.366482  
    1015A      2.374668  1016A      2.379629  1017A      2.387163  
    1018A      2.415860  1019A      2.424006  1020A      2.424376  
    1021A      2.424401  1022A      2.436451  1023A      2.441121  
    1024A      2.441226  1025A      2.444751  1026A      2.448579  
    1027A      2.456853  1028A      2.469219  1029A      2.470235  
    1030A      2.472718  1031A      2.473013  1032A      2.476389  
    1033A      2.485390  1034A      2.485509  1035A      2.502291  
    1036A      2.508536  1037A      2.519387  1038A      2.529798  
    1039A      2.529982  1040A      2.543769  1041A      2.545320  
    1042A      2.545493  1043A      2.554294  1044A      2.554320  
    1045A      2.554801  1046A      2.559823  1047A      2.559845  
    1048A      2.572969  1049A      2.572993  1050A      2.574654  
    1051A      2.575203  1052A      2.578102  1053A      2.586215  
    1054A      2.586345  1055A      2.587375  1056A      2.589732  
    1057A      2.591396  1058A      2.606200  1059A      2.623388  
    1060A      2.623554  1061A      2.625528  1062A      2.631373  
    1063A      2.631850  1064A      2.633810  1065A      2.641101  
    1066A      2.641283  1067A      2.645864  1068A      2.650620  
    1069A      2.650855  1070A      2.651185  1071A      2.656833  
    1072A      2.658954  1073A      2.674170  1074A      2.682050  
    1075A      2.683109  1076A      2.684000  1077A      2.686886  
    1078A      2.702020  1079A      2.702261  1080A      2.713007  
    1081A      2.713015  1082A      2.718672  1083A      2.718681  
    1084A      2.722550  1085A      2.722917  1086A      2.737611  
    1087A      2.738069  1088A      2.747761  1089A      2.752325  
    1090A      2.752635  1091A      2.766912  1092A      2.777469  
    1093A      2.794555  1094A      2.794656  1095A      2.805300  
    1096A      2.816129  1097A      2.827096  1098A      2.827977  
    1099A      2.836205  1100A      2.851214  1101A      2.852035  
    1102A      2.856024  1103A      2.858315  1104A      2.859542  
    1105A      2.859607  1106A      2.867200  1107A      2.875848  
    1108A      2.889942  1109A      2.909191  1110A      2.916938  
    1111A      2.916985  1112A      2.923154  1113A      2.924030  
    1114A      2.933543  1115A      2.933744  1116A      2.948332  
    1117A      2.949624  1118A      2.949652  1119A      2.962936  
    1120A      2.971886  1121A      2.996250  1122A      3.006658  
    1123A      3.007172  1124A      3.009025  1125A      3.011862  
    1126A      3.029297  1127A      3.039355  1128A      3.064151  
    1129A      3.064174  1130A      3.070561  1131A      3.070677  
    1132A      3.109351  1133A      3.110211  1134A      3.128298  
    1135A      3.129575  1136A      3.129741  1137A      3.137448  
    1138A      3.140897  1139A      3.146178  1140A      3.146452  
    1141A      3.146595  1142A      3.148972  1143A      3.149176  
    1144A      3.157670  1145A      3.158120  1146A      3.165693  
    1147A      3.166239  1148A      3.191744  1149A      3.211141  
    1150A      3.218899  1151A      3.237506  1152A      3.273292  
    1153A      3.276920  1154A      3.277099  1155A      3.281836  
    1156A      3.281975  1157A      3.285227  1158A      3.306413  
    1159A      3.318428  1160A      3.401661  1161A      3.416372  
    1162A      3.416852  1163A      3.443003  1164A      3.481441  
    1165A      3.483965  1166A      3.522650  1167A      3.549194  
    1168A      3.567929  1169A      3.577098  1170A      3.579066  
    1171A      3.593831  1172A      3.626500  1173A      3.628460  
    1174A      3.643567  1175A      3.662904  1176A      3.668617  
    1177A      3.756285  1178A      3.769219  1179A      3.782653  
    1180A      3.783710  1181A      3.814556  1182A      3.866750  
    1183A      3.870749  1184A      3.870773  1185A      3.913085  
    1186A      3.913199  1187A      3.958657  1188A      3.976907  
    1189A      4.010873  1190A      4.032727  1191A      4.044596  
    1192A      4.081056  1193A      4.204049  1194A      4.207747  
    1195A      4.342823  1196A      4.359039  1197A      4.484760  
    1198A      4.735016  1199A      4.772731  1200A      4.828834  
    1201A      4.845006  1202A      4.934319  1203A      5.049114  
    1204A      5.055206  1205A      5.064524  1206A      5.109165  
    1207A      5.129936  1208A      5.390377  1209A      5.420577  
    1210A      5.730712  1211A      5.754194  1212A      6.065963  
    1213A     18.197154  1214A     18.452697  1215A     18.469738  
    1216A     18.557835  1217A     18.829644  1218A     25.337597  
    1219A     25.373533  

    Final Occupation by Irrep:
              A 
    DOCC [   171 ]
    NA   [   171 ]
    NB   [   171 ]

  @DF-RHF Final Energy: -2055.89174489266225

   => Energetics <=

    Nuclear Repulsion Energy =           6452.5568002797781446
    One-Electron Energy =              -15636.4294489982821688
    Two-Electron Energy =                7127.9809038258426881
    Total Energy =                      -2055.8917448926622455

Computation Completed


Properties will be evaluated at   0.000000,   0.000000,   0.000000 [a0]

Properties computed using the SCF density matrix


 Multipole Moments:

 ------------------------------------------------------------------------------------
     Multipole            Electronic (a.u.)      Nuclear  (a.u.)        Total (a.u.)
 ------------------------------------------------------------------------------------

 L = 1.  Multiply by 2.5417464519 to convert [e a0] to [Debye]
 Dipole X            :          0.0001064           -0.0000085            0.0000979
 Dipole Y            :         -0.0000300            0.0000167           -0.0000133
 Dipole Z            :       -657.6239176          657.6263405            0.0024230
 Magnitude           :                                                    0.0024250

 ------------------------------------------------------------------------------------

*** tstop() called on d-18-8-4 at Mon Jan 22 20:11:08 2024
Module time:
	user time   =    2806.28 seconds =      46.77 minutes
	system time =      88.33 seconds =       1.47 minutes
	total time  =        464 seconds =       7.73 minutes
Total time:
	user time   =    8525.31 seconds =     142.09 minutes
	system time =     216.20 seconds =       3.60 minutes
	total time  =       1194 seconds =      19.90 minutes
  Constructing Basis Sets for SAPT...

   => Loading Basis Set <=

    Name: (JUN-CC-PVDZ AUX)
    Role: RIFIT
    Keyword: DF_BASIS_SAPT
    atoms 1-2, 4-5, 10, 17-70 entry C          line   100 file /home/gridsan/tfroembgen/.conda/envs/psi4test/share/psi4/basis/jun-cc-pvdz-ri.gbs 
    atoms 3, 6                entry N          line   144 file /home/gridsan/tfroembgen/.conda/envs/psi4test/share/psi4/basis/jun-cc-pvdz-ri.gbs 
    atoms 7-9, 11-16, 71-88   entry H          line    30 file /home/gridsan/tfroembgen/.conda/envs/psi4test/share/psi4/basis/jun-cc-pvdz-ri.gbs 

   => Loading Basis Set <=

    Name: (JUN-CC-PVDZ AUX)
    Role: JKFIT
    Keyword: DF_BASIS_ELST
    atoms 1-2, 4-5, 10, 17-70 entry C          line   146 file /home/gridsan/tfroembgen/.conda/envs/psi4test/share/psi4/basis/jun-cc-pvdz-jkfit.gbs 
    atoms 3, 6                entry N          line   202 file /home/gridsan/tfroembgen/.conda/envs/psi4test/share/psi4/basis/jun-cc-pvdz-jkfit.gbs 
    atoms 7-9, 11-16, 71-88   entry H          line    70 file /home/gridsan/tfroembgen/.conda/envs/psi4test/share/psi4/basis/jun-cc-pvdz-jkfit.gbs 


  //>>>>>>>>>>>>>>>>>>>>>>>>>>>>>>>>>>>//
  //               SSAPT0              //
  //<<<<<<<<<<<<<<<<<<<<<<<<<<<<<<<<<<<//


*** tstart() called on d-18-8-4
*** at Mon Jan 22 20:11:09 2024

        SAPT0  
    Ed Hohenstein
     6 June 2009

      Orbital Information
  --------------------------
    NSO        =      1233
    NMO        =      1219
    NRI        =      4343
    NRI (Elst) =      5440
    NOCC A     =        26
    NOCC B     =       171
    FOCC A     =         7
    FOCC B     =        54
    NVIR A     =      1193
    NVIR B     =      1048

    Elst10,r            =    -0.006372274558 [Eh]
    Exch10              =    -0.000000211163 [Eh]
    Exch10 (S^2)        =    -0.000000211163 [Eh]

    Iter     Energy [mEh]          dE [mEh]         Residual      Time [s]
       1      -0.01509014       0.015090140       1.161197795           257
       2      -0.01432558      -0.000764558       0.305730863           471
       3      -0.01579100       0.001465415       0.083840930           633
       4      -0.01587430       0.000083303       0.039088107           747
       5      -0.01580412      -0.000070179       0.010580911           915
       6      -0.01580666       0.000002537       0.003710825          1010
       7      -0.01581172       0.000005066       0.000946201          1321
       8      -0.01581199       0.000000262       0.000307519          1648
       9      -0.01581179      -0.000000198       0.000091146          1835
      10      -0.01581173      -0.000000056       0.000027740          2105
      11      -0.01581174       0.000000006       0.000007750          2240
      12      -0.01581174       0.000000007       0.000002241          2451
      13      -0.01581174      -0.000000000       0.000000876          2593

    CHF Iterations converged


    Iter     Energy [mEh]          dE [mEh]         Residual      Time [s]
       1      -2.40948476       2.409484757      25.642444472           243
       2      -1.64097384      -0.768510919       3.177871810           521
       3      -1.64397908       0.003005240       1.165692561           649
       4      -1.68344417       0.039465088       0.261836494           750
       5      -1.68517008       0.001725913       0.074086357           784
       6      -1.68437793      -0.000792154       0.035681379           835
       7      -1.68410990      -0.000268026       0.016955303           872
       8      -1.68425860       0.000148700       0.011725882           902
       9      -1.68431256       0.000053963       0.006853511           937
      10      -1.68427726      -0.000035299       0.004343387           973
      11      -1.68426200      -0.000015265       0.001975610          1006
      12      -1.68426711       0.000005112       0.000922424          1033
      13      -1.68427084       0.000003734       0.000395657          1056
      14      -1.68427005      -0.000000791       0.000222292          1112
      15      -1.68426914      -0.000000909       0.000096464          1186
      16      -1.68426928       0.000000132       0.000046256          1219
      17      -1.68426951       0.000000231       0.000013413          1283
      18      -1.68426949      -0.000000016       0.000004485          1324
      19      -1.68426948      -0.000000015       0.000002351          1347
      20      -1.68426947      -0.000000003       0.000000969          1403

    CHF Iterations converged

    Ind20,r (A<-B)      =    -0.000015811744 [Eh]
    Ind20,r (B<-A)      =    -0.001684269474 [Eh]
    Ind20,r             =    -0.001700081219 [Eh]
    Exch-Ind20,r (A<-B) =     0.000000012106 [Eh]
    Exch-Ind20,r (B<-A) =     0.000000087808 [Eh]
    Exch-Ind20,r        =     0.000000099914 [Eh]
    Disp20              =    -0.000777375162 [Eh]
    Disp20 (SS)         =    -0.000388687581 [Eh]
    Disp20 (OS)         =    -0.000388687581 [Eh]
    Exch-Disp20         =     0.000000046696 [Eh]
    Exch-Disp20 (SS)    =     0.000000034750 [Eh]
    Exch-Disp20 (OS)    =     0.000000011946 [Eh]

    SAPT Results 
  --------------------------------------------------------------------------------------------------------
    Electrostatics                 -6.37227456 [mEh]      -3.99866265 [kcal/mol]     -16.73040455 [kJ/mol]
      Elst10,r                     -6.37227456 [mEh]      -3.99866265 [kcal/mol]     -16.73040455 [kJ/mol]

    Exchange                       -0.00021116 [mEh]      -0.00013251 [kcal/mol]      -0.00055441 [kJ/mol]
      Exch10                       -0.00021116 [mEh]      -0.00013251 [kcal/mol]      -0.00055441 [kJ/mol]
      Exch10(S^2)                  -0.00021116 [mEh]      -0.00013251 [kcal/mol]      -0.00055441 [kJ/mol]

    Induction                      -1.72588156 [mEh]      -1.08300703 [kcal/mol]      -4.53130141 [kJ/mol]
      Ind20,r                      -1.70008122 [mEh]      -1.06681707 [kcal/mol]      -4.46356262 [kJ/mol]
      Exch-Ind20,r                  0.00009991 [mEh]       0.00006270 [kcal/mol]       0.00026232 [kJ/mol]
      delta HF,r (2)               -0.02590025 [mEh]      -0.01625265 [kcal/mol]      -0.06800111 [kJ/mol]

    Dispersion                     -0.77732847 [mEh]      -0.48778098 [kcal/mol]      -2.04087561 [kJ/mol]
      Disp20                       -0.77737516 [mEh]      -0.48781028 [kcal/mol]      -2.04099821 [kJ/mol]
      Exch-Disp20                   0.00004670 [mEh]       0.00002930 [kcal/mol]       0.00012260 [kJ/mol]
      Disp20 (SS)                  -0.38868758 [mEh]      -0.24390514 [kcal/mol]      -1.02049910 [kJ/mol]
      Disp20 (OS)                  -0.38868758 [mEh]      -0.24390514 [kcal/mol]      -1.02049910 [kJ/mol]
      Exch-Disp20 (SS)              0.00003475 [mEh]       0.00002181 [kcal/mol]       0.00009124 [kJ/mol]
      Exch-Disp20 (OS)              0.00001195 [mEh]       0.00000750 [kcal/mol]       0.00003137 [kJ/mol]

  Total HF                         -8.09836728 [mEh]      -5.08180219 [kcal/mol]     -21.26226036 [kJ/mol]
  Total SAPT0                      -8.87569575 [mEh]      -5.56958317 [kcal/mol]     -23.30313597 [kJ/mol]

  Special recipe for scaled SAPT0 (see Manual):
    Electrostatics sSAPT0          -6.37227456 [mEh]      -3.99866265 [kcal/mol]     -16.73040455 [kJ/mol]
    Exchange sSAPT0                -0.00021116 [mEh]      -0.00013251 [kcal/mol]      -0.00055441 [kJ/mol]
    Induction sSAPT0               -1.72588156 [mEh]      -1.08300703 [kcal/mol]      -4.53130141 [kJ/mol]
    Dispersion sSAPT0              -0.77732847 [mEh]      -0.48778098 [kcal/mol]      -2.04087561 [kJ/mol]
  Total sSAPT0                     -8.87569575 [mEh]      -5.56958317 [kcal/mol]     -23.30313597 [kJ/mol]
  --------------------------------------------------------------------------------------------------------

*** tstop() called on d-18-8-4 at Mon Jan 22 22:08:06 2024
Module time:
	user time   =    8612.49 seconds =     143.54 minutes
	system time =    1035.88 seconds =      17.26 minutes
	total time  =       7017 seconds =     116.95 minutes
Total time:
	user time   =   17138.80 seconds =     285.65 minutes
	system time =    1252.09 seconds =      20.87 minutes
	total time  =       8212 seconds =     136.87 minutes

    Psi4 stopped on: Monday, 22 January 2024 10:08PM
    Psi4 wall time for execution: 2:16:54.08

*** Psi4 exiting successfully. Buy a developer a beer!
