
    -----------------------------------------------------------------------
          Psi4: An Open-Source Ab Initio Electronic Structure Package
                               Psi4 1.9 release

                         Git: Rev {} zzzzzzz 


    D. G. A. Smith, L. A. Burns, A. C. Simmonett, R. M. Parrish,
    M. C. Schieber, R. Galvelis, P. Kraus, H. Kruse, R. Di Remigio,
    A. Alenaizan, A. M. James, S. Lehtola, J. P. Misiewicz, M. Scheurer,
    R. A. Shaw, J. B. Schriber, Y. Xie, Z. L. Glick, D. A. Sirianni,
    J. S. O'Brien, J. M. Waldrop, A. Kumar, E. G. Hohenstein,
    B. P. Pritchard, B. R. Brooks, H. F. Schaefer III, A. Yu. Sokolov,
    K. Patkowski, A. E. DePrince III, U. Bozkaya, R. A. King,
    F. A. Evangelista, J. M. Turney, T. D. Crawford, C. D. Sherrill,
    J. Chem. Phys. 152(18) 184108 (2020). https://doi.org/10.1063/5.0006002

                            Additional Code Authors
    E. T. Seidl, C. L. Janssen, E. F. Valeev, M. L. Leininger,
    J. F. Gonthier, R. M. Richard, H. R. McAlexander, M. Saitow, X. Wang,
    P. Verma, M. H. Lechner, A. Jiang, S. Behnle, A. G. Heide,
    M. F. Herbst, and D. L. Poole

             Previous Authors, Complete List of Code Contributors,
                       and Citations for Specific Modules
    https://github.com/psi4/psi4/blob/master/codemeta.json
    https://github.com/psi4/psi4/graphs/contributors
    http://psicode.org/psi4manual/master/introduction.html#citing-psifour

    -----------------------------------------------------------------------


    Psi4 started on: Saturday, 27 January 2024 10:41AM

    Process ID: 954922
    Host:       n2cn1038
    PSIDATADIR: /opt/software/pc2/EB-SW/software/PSI4/1.9-foss-2022a/share/psi4
    Memory:     500.0 MiB
    Threads:    16
    
  ==> Input File <==

--------------------------------------------------------------------------
memory 64 GB # how much memory is available ! Depends on the nodes/cores !

molecule dimer {
# monomer A
-1 1    # Charge and multiplicity
B -1.977592e-04  2.742729e-04 -5.599966
F  1.123153e-16  1.430594e-17 -4.187181
F  1.147860e+00  6.757812e-01 -6.071107
F  1.191806e-02 -1.332011e+00 -6.070905
F -1.159666e+00  6.560735e-01 -6.070826
--
# monomer B
0 1     # Charge and multiplicity
C   -3.66844126402057      7.80375217008252      0.00190004133558
C   -4.84759871934653      7.13124183134024     -0.00046653359696
C   -4.89495929917518      5.69633040353158     -0.00103944469517
C   -3.65374067877320      4.98073034095895      0.00662099703436
C   -2.40942512149445      7.11398103667468      0.00209438359570
C   -2.42547734410473      5.68112195090346     -0.00491050527438
C   -1.19474401643570      7.78614419430947      0.00356656413763
C   0.03795902893699      7.09942164575698      0.00139585983271
C   0.03033258741920      5.66948955970466     -0.00408752508301
C   -1.20098450790502      4.96927034791531      0.00488220885047
C   1.27795782581485      7.77285944319479      0.00277170839332
C   2.48535808472416      7.08769688523756      0.00049722048857
C   2.48612868491717      5.65477081024076     -0.00644052849921
C   1.25408291964399      4.95607811366431      0.00518741308898
C   3.75171459140595      7.76391215098033      0.00062407186893
C   4.92356605618520      7.07878077698995     -0.00143240883900
C   4.95560727132542      5.64344746336949     -0.00159282164606
C   3.70680153420475      4.94121020833308      0.00349873852374
H   -3.65852113775815      8.89082741913536      0.00358502958574
H   -1.18921332975660      8.87412108735996      0.00753844057883
H   1.28429423888630      8.86083343548850      0.00693053253426
H   3.75354208679975      8.85103527897216      0.00214659618464
H   5.86995870320703      7.61379483465560     -0.00235777588134
H   -5.78823170750226      7.67630221293400     -0.00202638095293
C   -6.09197395869619      4.99326001364347     -0.00291168518608
C   -6.12866148031747      3.58258016879823     -0.00171050815740
C   -3.66457974004527      3.56418217974434     -0.00463560277484
C   -4.89429820469869      2.86108077590057      0.00453338221034
C   -2.43733499489796      2.84761165708481      0.00719617576166
C   -1.20922785759670      3.54788693497833     -0.00648285103018
C   1.24714157216223      3.53468075142962     -0.00729145743546
C   0.01517603956900      2.83311183930540      0.00439272578912
C   2.46764517244071      2.82128997725533      0.00449278391269
C   3.70254947457969      3.52466015442405     -0.00899517692985
C   6.14498038638375      4.92757236613191     -0.00282626685777
C   6.16658835886151      3.51658447594213     -0.00065971342101
C   4.92460995845939      2.80840792535402      0.00587903281610
H   7.08990550964105      5.46688776622306     -0.00658814770723
H   -7.03104175110130      5.54268795285765     -0.00714490013730
C   -7.33969804112295      2.85841153457957     -0.00333767559888
C   -7.36488195805880      1.47032337158330     -0.00157213747140
C   -4.90350460894690      1.44442681216000     -0.00628840166334
C   -6.13225715261081      0.73993935705394      0.00600164231964
C   -3.67687480051673      0.72669714267312      0.00433931473643
C   -2.44565658606518      1.42964113326212     -0.00597039546461
C   -1.22360068130162      0.71532450163492      0.00545886906656
C   0.00763786931376      1.41738314923765      0.00392452278437
C   1.23121980774686      0.70211669058719     -0.01490206287210
C   2.46082110053113      1.40329203612573      0.00460244601878
C   3.68443025419614      0.68719842821222      0.00377365974158
C   4.91870890153864      1.39173456118907     -0.00862816189375
C   7.36980207796101      2.77948220318441     -0.00242013321349
C   7.38016266612146      1.39121750785509     -0.00087345036788
C   6.13979953912259      0.67411862320065      0.00545489144369
H   -8.27919079934664      3.40711804112415     -0.00763522772059
H   8.31511347147953      3.31811809662368     -0.00663070901292
C   -8.59175593758115      0.72483255304480     -0.00123170985383
C   -8.59902460370342     -0.63263980622873      0.00089141472904
C   -6.13981313911873     -0.67413663715361     -0.00609792660607
C   -7.38018411213749     -1.39126618958160      0.00131813493501
C   -4.91868448025621     -1.39175501803000      0.00624257154343
C   -3.68443829568458     -0.68723731573599     -0.00478966852105
C   -2.46081704024768     -1.40334517882457      0.00575341766833
C   -1.23116201232071     -0.70217386488055     -0.00636696112346
C   -0.00756962538737     -1.41741884941102      0.00108956317991
C   1.22364771588843     -0.71527537726392      0.01109518512883
C   2.44567064933149     -1.42964328900682     -0.00065482763106
C   3.67686670284649     -0.72670743155550     -0.00479541202602
C   6.13224884641929     -0.73997883984993     -0.00632338623858
C   4.90351914550401     -1.44445752054090      0.00751768830159
C   8.59901484869081      0.63260386666793     -0.00101133422380
C   8.59174548810050     -0.72485086719319      0.00072504603735
C   7.36486276438985     -1.47033266560598      0.00049486934466
H   -9.52830597181814      1.27684744919284     -0.00270163681798
H   9.54141097460619      1.17457248844457     -0.00206336648518
C   -7.36983790976868     -2.77954514593389      0.00312634335708
C   -4.92459910905015     -2.80843725734101     -0.00460528907921
C   -6.16662249566744     -3.51665219282533      0.00169655107992
C   -3.70251035970491     -3.52468154912026      0.00571878010666
C   -2.46764698511392     -2.82132596280400     -0.00632585824990
C   -0.01513347410770     -2.83314164539971     -0.00604426974092
C   -1.24712184122656     -3.53473217556300      0.00551968366725
C   1.20924506964357     -3.54791467864352      0.00805871345849
C   2.43733602215464     -2.84764173817541     -0.00608104485234
C   4.89430234377080     -2.86112296828604     -0.00526030478103
C   3.66461525504104     -3.56421984553201      0.00761911515957
C   6.12863901474565     -3.58258405771778      0.00096495711699
C   7.33967266469532     -2.85841330737039      0.00248018319869
H   -9.54144911125902     -1.17456346666430      0.00226083090216
H   9.52826186807155     -1.27691907390448      0.00197485379837
H   -8.31516504384864     -3.31814985321231      0.00729857188773
H   8.27915514249207     -3.40714078989363      0.00681973918158
C   -6.14499418870218     -4.92764727278338      0.00302254913999
C   -3.70678334799751     -4.94126171411716     -0.00679841894792
C   -4.95559005800169     -5.64349397349412      0.00116871569699
C   -2.48612132622665     -5.65478557440947      0.00614125209662
C   -1.25405833548005     -4.95612205000132     -0.00503435388927
C   1.20101257386816     -4.96928038819302     -0.00385322963129
C   -0.03033667441341     -5.66952030313900      0.00398997003238
C   3.65375010132847     -4.98074377541453     -0.00309522988330
C   2.42549269587528     -5.68117463552727      0.00628170066869
C   6.09196561781097     -4.99325796338655      0.00325918379042
C   4.89497644461045     -5.69634842095790      0.00202298796027
H   -7.08989238804069     -5.46699984223871      0.00742531082125
H   7.03105520920009     -5.54265853633254      0.00683896355417
C   -4.92354532219813     -7.07882109967734      0.00061394679214
C   -2.48534208823777     -7.08772807792913     -0.00189594564379
C   -3.75168589177895     -7.76394715763627     -0.00170126671874
C   -0.03794895698805     -7.09946487446944     -0.00168022049625
C   -1.27795610040136     -7.77290438466689     -0.00366491325785
C   2.40944432072629     -7.11402201200282     -0.00081701968533
C   1.19474993715296     -7.78618536556242     -0.00296931056689
C   4.84762105249800     -7.13126211057943      0.00168979497423
C   3.66847160587561     -7.80378799294376     -0.00065863938960
H   -5.86994035041618     -7.61383059804164      0.00215798365757
H   5.78824962538815     -7.67633218931421      0.00281691445618
H   -3.75352693944918     -8.85107156923607     -0.00353718114765
H   -1.28430440589466     -8.86087539249706     -0.00809229711623
H   1.18922157469537     -8.87416062058945     -0.00706194725726
H   3.65854661482387     -8.89086063405326     -0.00231318081200

    units angstrom      # Angstroms are the default
    no_reorient         # Geometry fixed, default
    symmetry c1         # C1 symmetry, default
}

set {
    scf_type DF         # Density fitting, faster than exact integrals
    freeze_core True    # Freeze core electrons
    basis jun-cc-pVDZ   # Jun-cc-pVDZ basis set, recommended for sSAPT0 in https://doi.org/10.1063/1.4867135
}

energy('ssapt0')        # Compute sSAPT0 energy, includes also SAPT0
--------------------------------------------------------------------------

  Memory set to  59.605 GiB by Python driver.

Scratch directory: /tmp/
   => Loading Basis Set <=

    Name: JUN-CC-PVDZ
    Role: ORBITAL
    Keyword: BASIS
    atoms 1                                                   entry B          line   130 file /opt/software/pc2/EB-SW/software/PSI4/1.9-foss-2022a/share/psi4/basis/jun-cc-pvdz.gbs 
    atoms 2-5                                                 entry F          line   266 file /opt/software/pc2/EB-SW/software/PSI4/1.9-foss-2022a/share/psi4/basis/jun-cc-pvdz.gbs 
    atoms 6-23, 30-42, 45-59, 62-78, 81-93, 98-108, 111-119   entry C          line   164 file /opt/software/pc2/EB-SW/software/PSI4/1.9-foss-2022a/share/psi4/basis/jun-cc-pvdz.gbs 
    atoms 24-29, 43-44, 60-61, 79-80, 94-97, 109-110, 120-125 entry H          line    36 file /opt/software/pc2/EB-SW/software/PSI4/1.9-foss-2022a/share/psi4/basis/jun-cc-pvdz.gbs 

   => Loading Basis Set <=

    Name: JUN-CC-PVDZ
    Role: ORBITAL
    Keyword: BASIS
    atoms 1                                                   entry B          line   130 file /opt/software/pc2/EB-SW/software/PSI4/1.9-foss-2022a/share/psi4/basis/jun-cc-pvdz.gbs 
    atoms 2-5                                                 entry F          line   266 file /opt/software/pc2/EB-SW/software/PSI4/1.9-foss-2022a/share/psi4/basis/jun-cc-pvdz.gbs 
    atoms 6-23, 30-42, 45-59, 62-78, 81-93, 98-108, 111-119   entry C          line   164 file /opt/software/pc2/EB-SW/software/PSI4/1.9-foss-2022a/share/psi4/basis/jun-cc-pvdz.gbs 
    atoms 24-29, 43-44, 60-61, 79-80, 94-97, 109-110, 120-125 entry H          line    36 file /opt/software/pc2/EB-SW/software/PSI4/1.9-foss-2022a/share/psi4/basis/jun-cc-pvdz.gbs 


  //>>>>>>>>>>>>>>>>>>>>>>>>>>>>>>>>>>>//
  //              Dimer HF             //
  //<<<<<<<<<<<<<<<<<<<<<<<<<<<<<<<<<<<//

   => Libint2 <=

    Primary   basis highest AM E, G, H:  5, 4, 3
    Auxiliary basis highest AM E, G, H:  6, 5, 4
    Onebody   basis highest AM E, G, H:  6, 5, 4
    Solid Harmonics ordering:            gaussian

*** tstart() called on n2cn1038
*** at Sat Jan 27 10:41:51 2024

   => Loading Basis Set <=

    Name: JUN-CC-PVDZ
    Role: ORBITAL
    Keyword: BASIS
    atoms 1                                                   entry B          line   130 file /opt/software/pc2/EB-SW/software/PSI4/1.9-foss-2022a/share/psi4/basis/jun-cc-pvdz.gbs 
    atoms 2-5                                                 entry F          line   266 file /opt/software/pc2/EB-SW/software/PSI4/1.9-foss-2022a/share/psi4/basis/jun-cc-pvdz.gbs 
    atoms 6-23, 30-42, 45-59, 62-78, 81-93, 98-108, 111-119   entry C          line   164 file /opt/software/pc2/EB-SW/software/PSI4/1.9-foss-2022a/share/psi4/basis/jun-cc-pvdz.gbs 
    atoms 24-29, 43-44, 60-61, 79-80, 94-97, 109-110, 120-125 entry H          line    36 file /opt/software/pc2/EB-SW/software/PSI4/1.9-foss-2022a/share/psi4/basis/jun-cc-pvdz.gbs 


         ---------------------------------------------------------
                                   SCF
               by Justin Turney, Rob Parrish, Andy Simmonett
                          and Daniel G. A. Smith
                              RHF Reference
                       16 Threads,  61035 MiB Core
         ---------------------------------------------------------

  ==> Geometry <==

    Molecular point group: c1
    Full point group: C1

    Geometry (in Angstrom), charge = -1, multiplicity = 1:

       Center              X                  Y                   Z               Mass       
    ------------   -----------------  -----------------  -----------------  -----------------
         B           -0.000201921932     0.000288800891    -5.214266220659    11.009305360000
         F           -0.000004162732     0.000014527991    -3.801481220659    18.998403162730
         F            1.147855837268     0.675795727991    -5.685407220659    18.998403162730
         F            0.011913897268    -1.331996472009    -5.685205220659    18.998403162730
         F           -1.159670162732     0.656088027991    -5.685126220659    18.998403162730
         C           -3.668445426752     7.803766698073     0.387599820676    12.000000000000
         C           -4.847602882078     7.131256359331     0.385233245744    12.000000000000
         C           -4.894963461907     5.696344931522     0.384660334646    12.000000000000
         C           -3.653744841505     4.980744868950     0.392320776375    12.000000000000
         C           -2.409429284226     7.113995564665     0.387794162937    12.000000000000
         C           -2.425481506836     5.681136478894     0.380789274066    12.000000000000
         C           -1.194748179167     7.786158722300     0.389266343478    12.000000000000
         C            0.037954866205     7.099436173748     0.387095639174    12.000000000000
         C            0.030328424687     5.669504087695     0.381612254258    12.000000000000
         C           -1.200988670637     4.969284875906     0.390581988191    12.000000000000
         C            1.277953663083     7.772873971185     0.388471487734    12.000000000000
         C            2.485353921992     7.087711413228     0.386196999829    12.000000000000
         C            2.486124522185     5.654785338231     0.379259250842    12.000000000000
         C            1.254078756912     4.956092641655     0.390887192430    12.000000000000
         C            3.751710428674     7.763926678971     0.386323851210    12.000000000000
         C            4.923561893453     7.078795304981     0.384267370502    12.000000000000
         C            4.955603108594     5.643461991360     0.384106957695    12.000000000000
         C            3.706797371473     4.941224736324     0.389198517865    12.000000000000
         H           -3.658525300490     8.890841947126     0.389284808927     1.007825032230
         H           -1.189217492488     8.874135615351     0.393238219920     1.007825032230
         H            1.284290076155     8.860847963479     0.392630311875     1.007825032230
         H            3.753537924068     8.851049806963     0.387846375525     1.007825032230
         H            5.869954540475     7.613809362646     0.383342003459     1.007825032230
         H           -5.788235870234     7.676316740925     0.383673398388     1.007825032230
         C           -6.091978121428     4.993274541634     0.382788094155    12.000000000000
         C           -6.128665643049     3.582594696789     0.383989271183    12.000000000000
         C           -3.664583902777     3.564196707735     0.381064176566    12.000000000000
         C           -4.894302367430     2.861095303891     0.390233161551    12.000000000000
         C           -2.437339157630     2.847626185075     0.392895955102    12.000000000000
         C           -1.209232020328     3.547901462969     0.379216928311    12.000000000000
         C            1.247137409430     3.534695279420     0.378408321905    12.000000000000
         C            0.015171876837     2.833126367296     0.390092505130    12.000000000000
         C            2.467641009709     2.821304505246     0.390192563254    12.000000000000
         C            3.702545311848     3.524674682415     0.376704602411    12.000000000000
         C            6.144976223652     4.927586894122     0.382873512483    12.000000000000
         C            6.166584196130     3.516599003933     0.385040065920    12.000000000000
         C            4.924605795728     2.808422453345     0.391578812157    12.000000000000
         H            7.089901346909     5.466902294214     0.379111631634     1.007825032230
         H           -7.031045913833     5.542702480848     0.378554879204     1.007825032230
         C           -7.339702203855     2.858426062570     0.382362103742    12.000000000000
         C           -7.364886120791     1.470337899574     0.384127641869    12.000000000000
         C           -4.903508771679     1.444441340151     0.379411377677    12.000000000000
         C           -6.132261315343     0.739953885044     0.391701421660    12.000000000000
         C           -3.676878963248     0.726711670664     0.390039094077    12.000000000000
         C           -2.445660748797     1.429655661253     0.379729383876    12.000000000000
         C           -1.223604844033     0.715339029625     0.391158648407    12.000000000000
         C            0.007633706582     1.417397677228     0.389624302125    12.000000000000
         C            1.231215645015     0.702131218578     0.370797716469    12.000000000000
         C            2.460816937799     1.403306564116     0.390302225360    12.000000000000
         C            3.684426091464     0.687212956203     0.389473439082    12.000000000000
         C            4.918704738807     1.391749089180     0.377071617447    12.000000000000
         C            7.369797915229     2.779496731175     0.383279646127    12.000000000000
         C            7.380158503390     1.391232035846     0.384826328973    12.000000000000
         C            6.139795376391     0.674133151191     0.391154670785    12.000000000000
         H           -8.279194962078     3.407132569115     0.378064551620     1.007825032230
         H            8.315109308748     3.318132624614     0.379069070328     1.007825032230
         C           -8.591760100313     0.724847081035     0.384468069487    12.000000000000
         C           -8.599028766435    -0.632625278238     0.386591194070    12.000000000000
         C           -6.139817301850    -0.674122109163     0.379601852735    12.000000000000
         C           -7.380188274869    -1.391251661591     0.387017914276    12.000000000000
         C           -4.918688642988    -1.391740490039     0.391942350884    12.000000000000
         C           -3.684442458416    -0.687222787745     0.380910110820    12.000000000000
         C           -2.460821202979    -1.403330650834     0.391453197009    12.000000000000
         C           -1.231166175052    -0.702159336890     0.379332818217    12.000000000000
         C           -0.007573788119    -1.417404321420     0.386789342521    12.000000000000
         C            1.223643553157    -0.715260849273     0.396794964470    12.000000000000
         C            2.445666486600    -1.429628761016     0.385044951710    12.000000000000
         C            3.676862540115    -0.726692903565     0.380904367315    12.000000000000
         C            6.132244683688    -0.739964311859     0.379376393102    12.000000000000
         C            4.903514982772    -1.444442992550     0.393217467642    12.000000000000
         C            8.599010685959     0.632618394658     0.384688445117    12.000000000000
         C            8.591741325369    -0.724836339203     0.386424825378    12.000000000000
         C            7.364858601658    -1.470318137615     0.386194648685    12.000000000000
         H           -9.528310134550     1.276861977183     0.382998142523     1.007825032230
         H            9.541406811874     1.174587016435     0.383636412856     1.007825032230
         C           -7.369842072500    -2.779530617943     0.388826122698    12.000000000000
         C           -4.924603271782    -2.808422729350     0.381094490262    12.000000000000
         C           -6.166626658399    -3.516637664835     0.387396330421    12.000000000000
         C           -3.702514522437    -3.524667021130     0.391418559447    12.000000000000
         C           -2.467651147846    -2.821311434813     0.379373921091    12.000000000000
         C           -0.015137636839    -2.833127117409     0.379655509600    12.000000000000
         C           -1.247126003958    -3.534717647572     0.391219463008    12.000000000000
         C            1.209240906912    -3.547900150653     0.393758492799    12.000000000000
         C            2.437331859423    -2.847627210185     0.379618734488    12.000000000000
         C            4.894298181039    -2.861108440295     0.380439474560    12.000000000000
         C            3.664611092309    -3.564205317541     0.393318894500    12.000000000000
         C            6.128634852014    -3.582569529727     0.386664736458    12.000000000000
         C            7.339668501964    -2.858398779380     0.388179962540    12.000000000000
         H           -9.541453273991    -1.174548938674     0.387960610243     1.007825032230
         H            9.528257705340    -1.276904545914     0.387674633139     1.007825032230
         H           -8.315169206580    -3.318135325222     0.392998351229     1.007825032230
         H            8.279150979760    -3.407126261903     0.392519518522     1.007825032230
         C           -6.144998351434    -4.927632744793     0.388722328481    12.000000000000
         C           -3.706787510729    -4.941247186127     0.378901360393    12.000000000000
         C           -4.955594220733    -5.643479445504     0.386868495038    12.000000000000
         C           -2.486125488958    -5.654771046419     0.391841031437    12.000000000000
         C           -1.254062498212    -4.956107522011     0.380665425452    12.000000000000
         C            1.201008411136    -4.969265860202     0.381846549710    12.000000000000
         C           -0.030340837145    -5.669505775148     0.389689749373    12.000000000000
         C            3.653745938597    -4.980729247424     0.382604549458    12.000000000000
         C            2.425488533144    -5.681160107537     0.391981480010    12.000000000000
         C            6.091961455079    -4.993243435396     0.388958963131    12.000000000000
         C            4.894972281879    -5.696333892967     0.387722767301    12.000000000000
         H           -7.089896550772    -5.466985314248     0.393125090162     1.007825032230
         H            7.031051046468    -5.542644008342     0.392538742895     1.007825032230
         C           -4.923549484930    -7.078806571687     0.386313726133    12.000000000000
         C           -2.485346250970    -7.087713549939     0.383803833697    12.000000000000
         C           -3.751690054511    -7.763932629646     0.383998512622    12.000000000000
         C           -0.037953119720    -7.099450346479     0.384019558845    12.000000000000
         C           -1.277960263133    -7.772889856676     0.382034866083    12.000000000000
         C            2.409440157995    -7.114007484012     0.384882759655    12.000000000000
         C            1.194745774421    -7.786170837572     0.382730468774    12.000000000000
         C            4.847616889766    -7.131247582589     0.387389574315    12.000000000000
         C            3.668467443144    -7.803773464953     0.385041139951    12.000000000000
         H           -5.869944513148    -7.613816070051     0.387857762998     1.007825032230
         H            5.788245462656    -7.676317661324     0.388516693797     1.007825032230
         H           -3.753531102181    -8.851057041246     0.382162598193     1.007825032230
         H           -1.284308568626    -8.860860864507     0.377607482225     1.007825032230
         H            1.189217411964    -8.874146092599     0.378637832084     1.007825032230
         H            3.658542452092    -8.890846106063     0.383386598529     1.007825032230

  Running in c1 symmetry.

  Rotational constants: A =      0.00064  B =      0.00064  C =      0.00035 [cm^-1]
  Rotational constants: A =     19.04367  B =     19.04060  C =     10.55117 [MHz]
  Nuclear repulsion = 17388.655352898225829

  Charge       = -1
  Multiplicity = 1
  Electrons    = 642
  Nalpha       = 321
  Nbeta        = 321

  ==> Algorithm <==

  SCF Algorithm Type is DF.
  DIIS enabled.
  MOM disabled.
  Fractional occupation disabled.
  Guess Type is SAD.
  Energy threshold   = 1.00e-08
  Density threshold  = 1.00e-08
  Integral threshold = 1.00e-12

  ==> Primary Basis <==

  Basis Set: JUN-CC-PVDZ
    Blend: JUN-CC-PVDZ
    Number of shells: 880
    Number of basis functions: 1938
    Number of Cartesian functions: 2039
    Spherical Harmonics?: true
    Max angular momentum: 2

   => Loading Basis Set <=

    Name: (JUN-CC-PVDZ AUX)
    Role: JKFIT
    Keyword: DF_BASIS_SCF
    atoms 1                                                   entry B          line    90 file /opt/software/pc2/EB-SW/software/PSI4/1.9-foss-2022a/share/psi4/basis/jun-cc-pvdz-jkfit.gbs 
    atoms 2-5                                                 entry F          line   314 file /opt/software/pc2/EB-SW/software/PSI4/1.9-foss-2022a/share/psi4/basis/jun-cc-pvdz-jkfit.gbs 
    atoms 6-23, 30-42, 45-59, 62-78, 81-93, 98-108, 111-119   entry C          line   146 file /opt/software/pc2/EB-SW/software/PSI4/1.9-foss-2022a/share/psi4/basis/jun-cc-pvdz-jkfit.gbs 
    atoms 24-29, 43-44, 60-61, 79-80, 94-97, 109-110, 120-125 entry H          line    70 file /opt/software/pc2/EB-SW/software/PSI4/1.9-foss-2022a/share/psi4/basis/jun-cc-pvdz-jkfit.gbs 

  ==> Integral Setup <==

  ==> DiskDFJK: Density-Fitted J/K Matrices <==

    J tasked:                  Yes
    K tasked:                  Yes
    wK tasked:                  No
    OpenMP threads:             16
    Integrals threads:          16
    Memory [MiB]:            45776
    Algorithm:                Disk
    Integral Cache:           SAVE
    Schwarz Cutoff:          1E-12
    Fitting Condition:       1E-10

   => Auxiliary Basis Set <=

  Basis Set: (JUN-CC-PVDZ AUX)
    Blend: JUN-CC-PVDZ-JKFIT
    Number of shells: 2943
    Number of basis functions: 8531
    Number of Cartesian functions: 9791
    Spherical Harmonics?: true
    Max angular momentum: 3

  Minimum eigenvalue in the overlap matrix is 9.0232564137E-11.
  Reciprocal condition number of the overlap matrix is 3.9304009333E-12.
    Using canonical orthogonalization.
  Overall, 38 of 1938 possible MOs eliminated.


  ==> Pre-Iterations <==

  SCF Guess: Superposition of Atomic Densities via on-the-fly atomic UHF (no occupation information).

   -------------------------
    Irrep   Nso     Nmo    
   -------------------------
     A       1938    1900 
   -------------------------
    Total    1938    1900
   -------------------------

  ==> Iterations <==

                           Total Energy        Delta E     RMS |[F,P]|

   @DF-RHF iter SAD: -4085.00589191850031   -4.08501e+03   0.00000e+00 
   @DF-RHF iter   1: -4071.51785080873697    1.34880e+01   7.89875e-04 ADIIS/DIIS
   @DF-RHF iter   2: -4072.91628595502743   -1.39844e+00   3.09000e-04 ADIIS/DIIS
   @DF-RHF iter   3: -4073.08078398095904   -1.64498e-01   1.02063e-04 ADIIS/DIIS
   @DF-RHF iter   4: -4073.10264285978201   -2.18589e-02   3.70144e-05 DIIS
   @DF-RHF iter   5: -4073.10591413167504   -3.27127e-03   1.05543e-05 DIIS
   @DF-RHF iter   6: -4073.10633907094689   -4.24939e-04   4.18607e-06 DIIS
   @DF-RHF iter   7: -4073.10651642352104   -1.77353e-04   2.06773e-06 DIIS
   @DF-RHF iter   8: -4073.10656812738944   -5.17039e-05   1.13573e-06 DIIS
   @DF-RHF iter   9: -4073.10658275409924   -1.46267e-05   3.17131e-07 DIIS
   @DF-RHF iter  10: -4073.10658362664344   -8.72544e-07   1.63838e-07 DIIS
   @DF-RHF iter  11: -4073.10658377193613   -1.45293e-07   6.16449e-08 DIIS
   @DF-RHF iter  12: -4073.10658380395398   -3.20179e-08   3.25940e-08 DIIS
   @DF-RHF iter  13: -4073.10658381079156   -6.83758e-09   1.06891e-08 DIIS
   @DF-RHF iter  14: -4073.10658381129406   -5.02496e-10   4.44262e-09 DIIS
  Energy and wave function converged.


  ==> Post-Iterations <==

    Orbital Energies [Eh]
    ---------------------

    Doubly Occupied:                                                      

       1A    -26.071976     2A    -26.068791     3A    -26.068697  
       4A    -26.068611     5A    -11.205285     6A    -11.205275  
       7A    -11.205274     8A    -11.205273     9A    -11.205268  
      10A    -11.205264    11A    -11.205261    12A    -11.205257  
      13A    -11.205254    14A    -11.205252    15A    -11.205251  
      16A    -11.205241    17A    -11.204857    18A    -11.204837  
      19A    -11.204836    20A    -11.204835    21A    -11.204820  
      22A    -11.204813    23A    -11.202876    24A    -11.202861  
      25A    -11.202855    26A    -11.202809    27A    -11.202807  
      28A    -11.202759    29A    -11.202674    30A    -11.202612  
      31A    -11.202611    32A    -11.202534    33A    -11.202530  
      34A    -11.202497    35A    -11.201669    36A    -11.201645  
      37A    -11.201638    38A    -11.201590    39A    -11.201582  
      40A    -11.201559    41A    -11.201019    42A    -11.201016  
      43A    -11.201011    44A    -11.201008    45A    -11.201007  
      46A    -11.201006    47A    -11.201004    48A    -11.200971  
      49A    -11.200961    50A    -11.200879    51A    -11.200874  
      52A    -11.200864    53A    -11.200657    54A    -11.200654  
      55A    -11.200651    56A    -11.200646    57A    -11.200614  
      58A    -11.200557    59A    -11.200508    60A    -11.200472  
      61A    -11.200462    62A    -11.200455    63A    -11.200434  
      64A    -11.200431    65A    -11.200007    66A    -11.199908  
      67A    -11.199889    68A    -11.199684    69A    -11.199680  
      70A    -11.199564    71A    -11.199562    72A    -11.199554  
      73A    -11.199553    74A    -11.199551    75A    -11.199551  
      76A    -11.199547    77A    -11.199292    78A    -11.198971  
      79A    -11.198958    80A    -11.198638    81A    -11.198622  
      82A    -11.198545    83A    -11.198250    84A    -11.198011  
      85A    -11.197993    86A    -11.197505    87A    -11.197504  
      88A    -11.197496    89A    -11.197430    90A    -11.197428  
      91A    -11.197424    92A    -11.197412    93A    -11.197411  
      94A    -11.197403    95A    -11.197337    96A    -11.197336  
      97A    -11.197332    98A    -11.197201    99A    -11.197156  
     100A    -11.196696   101A     -7.541735   102A     -1.413420  
     103A     -1.355238   104A     -1.352902   105A     -1.352738  
     106A     -1.192034   107A     -1.179153   108A     -1.179149  
     109A     -1.161806   110A     -1.161800   111A     -1.154703  
     112A     -1.143404   113A     -1.137404   114A     -1.128067  
     115A     -1.128063   116A     -1.116388   117A     -1.116385  
     118A     -1.096135   119A     -1.096134   120A     -1.092827  
     121A     -1.087640   122A     -1.087637   123A     -1.070118  
     124A     -1.056088   125A     -1.055412   126A     -1.054840  
     127A     -1.052940   128A     -1.052925   129A     -1.030153  
     130A     -1.030139   131A     -1.020062   132A     -1.020061  
     133A     -1.008738   134A     -1.008708   135A     -1.005486  
     136A     -0.988939   137A     -0.988931   138A     -0.982537  
     139A     -0.981829   140A     -0.981829   141A     -0.965952  
     142A     -0.960729   143A     -0.960680   144A     -0.949792  
     145A     -0.948214   146A     -0.945722   147A     -0.941707  
     148A     -0.941660   149A     -0.934592   150A     -0.912462  
     151A     -0.912416   152A     -0.898517   153A     -0.898462  
     154A     -0.849305   155A     -0.849264   156A     -0.845828  
     157A     -0.845785   158A     -0.843839   159A     -0.832370  
     160A     -0.832310   161A     -0.830864   162A     -0.830806  
     163A     -0.830715   164A     -0.815323   165A     -0.813625  
     166A     -0.794567   167A     -0.788960   168A     -0.788940  
     169A     -0.786221   170A     -0.784483   171A     -0.776920  
     172A     -0.776907   173A     -0.771731   174A     -0.771728  
     175A     -0.728270   176A     -0.728254   177A     -0.724282  
     178A     -0.724263   179A     -0.724256   180A     -0.724237  
     181A     -0.723082   182A     -0.709179   183A     -0.701411  
     184A     -0.691840   185A     -0.677103   186A     -0.669293  
     187A     -0.669278   188A     -0.667085   189A     -0.666743  
     190A     -0.666723   191A     -0.659157   192A     -0.655051  
     193A     -0.655048   194A     -0.642500   195A     -0.642488  
     196A     -0.629011   197A     -0.629007   198A     -0.627187  
     199A     -0.624747   200A     -0.624736   201A     -0.621092  
     202A     -0.604763   203A     -0.596706   204A     -0.593631  
     205A     -0.593601   206A     -0.592708   207A     -0.591104  
     208A     -0.591089   209A     -0.582907   210A     -0.582519  
     211A     -0.582491   212A     -0.582198   213A     -0.577948  
     214A     -0.577920   215A     -0.571463   216A     -0.558696  
     217A     -0.558671   218A     -0.554829   219A     -0.551746  
     220A     -0.551739   221A     -0.541113   222A     -0.540212  
     223A     -0.540201   224A     -0.540021   225A     -0.538868  
     226A     -0.538856   227A     -0.538293   228A     -0.538282  
     229A     -0.537574   230A     -0.534077   231A     -0.533797  
     232A     -0.533793   233A     -0.531573   234A     -0.530573  
     235A     -0.530490   236A     -0.528020   237A     -0.522135  
     238A     -0.522125   239A     -0.516947   240A     -0.516945  
     241A     -0.516329   242A     -0.510429   243A     -0.510417  
     244A     -0.508430   245A     -0.508378   246A     -0.507888  
     247A     -0.505219   248A     -0.502327   249A     -0.500544  
     250A     -0.500524   251A     -0.496377   252A     -0.493078  
     253A     -0.492272   254A     -0.486140   255A     -0.476522  
     256A     -0.476517   257A     -0.474288   258A     -0.474257  
     259A     -0.471008   260A     -0.470989   261A     -0.468676  
     262A     -0.459259   263A     -0.459228   264A     -0.458225  
     265A     -0.458219   266A     -0.453031   267A     -0.453013  
     268A     -0.449759   269A     -0.449718   270A     -0.440394  
     271A     -0.438473   272A     -0.438446   273A     -0.433981  
     274A     -0.433972   275A     -0.428808   276A     -0.424828  
     277A     -0.420682   278A     -0.420679   279A     -0.416763  
     280A     -0.411307   281A     -0.410781   282A     -0.410697  
     283A     -0.410601   284A     -0.408454   285A     -0.408447  
     286A     -0.400306   287A     -0.387811   288A     -0.387744  
     289A     -0.386672   290A     -0.386611   291A     -0.386549  
     292A     -0.381499   293A     -0.380604   294A     -0.380591  
     295A     -0.378378   296A     -0.377213   297A     -0.348962  
     298A     -0.348936   299A     -0.329377   300A     -0.329373  
     301A     -0.326978   302A     -0.326930   303A     -0.323638  
     304A     -0.296299   305A     -0.296284   306A     -0.292452  
     307A     -0.276508   308A     -0.276398   309A     -0.276393  
     310A     -0.273099   311A     -0.273002   312A     -0.247500  
     313A     -0.243230   314A     -0.242107   315A     -0.242040  
     316A     -0.228525   317A     -0.201075   318A     -0.193792  
     319A     -0.193726   320A     -0.146324   321A     -0.146234  

    Virtual:                                                              

     322A      0.046179   323A      0.046259   324A      0.090190  
     325A      0.090380   326A      0.090387   327A      0.092809  
     328A      0.092828   329A      0.094465   330A      0.094529  
     331A      0.094537   332A      0.098224   333A      0.100747  
     334A      0.106216   335A      0.106226   336A      0.117520  
     337A      0.117525   338A      0.122740   339A      0.124589  
     340A      0.126588   341A      0.129186   342A      0.129281  
     343A      0.130819   344A      0.131128   345A      0.132553  
     346A      0.132816   347A      0.133055   348A      0.133415  
     349A      0.133497   350A      0.137847   351A      0.137862  
     352A      0.140443   353A      0.143528   354A      0.143545  
     355A      0.143677   356A      0.145068   357A      0.145132  
     358A      0.150646   359A      0.155359   360A      0.155384  
     361A      0.156064   362A      0.159137   363A      0.159372  
     364A      0.159423   365A      0.159972   366A      0.162192  
     367A      0.162333   368A      0.164656   369A      0.165753  
     370A      0.167046   371A      0.167227   372A      0.167383  
     373A      0.167659   374A      0.172464   375A      0.174251  
     376A      0.174269   377A      0.176084   378A      0.176186  
     379A      0.181057   380A      0.181144   381A      0.181163  
     382A      0.185362   383A      0.186502   384A      0.188866  
     385A      0.189037   386A      0.193392   387A      0.193418  
     388A      0.194046   389A      0.194943   390A      0.195093  
     391A      0.198932   392A      0.199000   393A      0.204682  
     394A      0.208965   395A      0.209072   396A      0.209102  
     397A      0.210390   398A      0.211457   399A      0.211833  
     400A      0.212306   401A      0.212444   402A      0.212910  
     403A      0.216980   404A      0.217267   405A      0.218203  
     406A      0.218210   407A      0.219357   408A      0.219668  
     409A      0.219700   410A      0.221851   411A      0.222109  
     412A      0.227748   413A      0.228008   414A      0.229086  
     415A      0.231551   416A      0.231561   417A      0.236659  
     418A      0.236700   419A      0.238184   420A      0.238369  
     421A      0.238488   422A      0.241244   423A      0.245086  
     424A      0.245543   425A      0.247247   426A      0.247359  
     427A      0.250056   428A      0.250683   429A      0.252335  
     430A      0.253037   431A      0.253165   432A      0.253419  
     433A      0.253926   434A      0.254243   435A      0.256048  
     436A      0.256172   437A      0.257692   438A      0.263746  
     439A      0.263788   440A      0.265153   441A      0.265239  
     442A      0.265479   443A      0.266582   444A      0.266693  
     445A      0.267484   446A      0.268259   447A      0.268359  
     448A      0.269223   449A      0.269400   450A      0.270685  
     451A      0.270761   452A      0.272458   453A      0.272500  
     454A      0.277794   455A      0.278725   456A      0.278865  
     457A      0.278924   458A      0.279616   459A      0.279711  
     460A      0.284036   461A      0.285957   462A      0.286288  
     463A      0.286358   464A      0.287334   465A      0.289129  
     466A      0.289156   467A      0.289868   468A      0.291604  
     469A      0.291690   470A      0.297247   471A      0.298405  
     472A      0.298438   473A      0.300003   474A      0.303189  
     475A      0.305845   476A      0.308782   477A      0.308882  
     478A      0.310432   479A      0.310497   480A      0.310580  
     481A      0.311213   482A      0.312109   483A      0.314121  
     484A      0.314517   485A      0.314538   486A      0.315688  
     487A      0.316511   488A      0.317453   489A      0.318952  
     490A      0.319066   491A      0.321326   492A      0.321690  
     493A      0.321722   494A      0.324013   495A      0.324055  
     496A      0.331531   497A      0.331580   498A      0.332069  
     499A      0.333505   500A      0.333578   501A      0.336070  
     502A      0.337439   503A      0.337630   504A      0.339487  
     505A      0.339927   506A      0.340685   507A      0.340776  
     508A      0.342652   509A      0.343705   510A      0.346953  
     511A      0.347658   512A      0.350739   513A      0.352365  
     514A      0.352500   515A      0.352831   516A      0.355280  
     517A      0.358365   518A      0.358612   519A      0.359031  
     520A      0.359156   521A      0.359689   522A      0.359751  
     523A      0.361310   524A      0.361693   525A      0.362190  
     526A      0.364460   527A      0.364724   528A      0.364798  
     529A      0.368032   530A      0.368154   531A      0.368682  
     532A      0.368693   533A      0.368749   534A      0.373361  
     535A      0.373379   536A      0.373748   537A      0.376513  
     538A      0.376613   539A      0.378040   540A      0.379658  
     541A      0.379808   542A      0.381108   543A      0.381205  
     544A      0.382437   545A      0.382473   546A      0.383716  
     547A      0.384115   548A      0.384662   549A      0.386353  
     550A      0.386508   551A      0.389971   552A      0.391932  
     553A      0.392026   554A      0.393612   555A      0.395327  
     556A      0.395365   557A      0.396191   558A      0.397096  
     559A      0.398659   560A      0.398686   561A      0.401107  
     562A      0.401205   563A      0.407908   564A      0.408114  
     565A      0.409218   566A      0.409453   567A      0.410722  
     568A      0.410855   569A      0.412500   570A      0.413825  
     571A      0.414972   572A      0.415103   573A      0.416966  
     574A      0.417056   575A      0.417585   576A      0.418572  
     577A      0.419788   578A      0.420292   579A      0.420406  
     580A      0.422813   581A      0.422844   582A      0.425108  
     583A      0.428768   584A      0.428845   585A      0.431691  
     586A      0.431717   587A      0.433471   588A      0.435858  
     589A      0.436062   590A      0.436526   591A      0.436551  
     592A      0.442032   593A      0.442499   594A      0.442577  
     595A      0.443242   596A      0.443323   597A      0.447018  
     598A      0.447866   599A      0.447999   600A      0.450282  
     601A      0.451007   602A      0.451167   603A      0.451401  
     604A      0.451419   605A      0.453212   606A      0.454270  
     607A      0.454324   608A      0.455143   609A      0.455994  
     610A      0.456125   611A      0.456877   612A      0.457601  
     613A      0.458920   614A      0.459303   615A      0.461566  
     616A      0.462391   617A      0.463189   618A      0.463256  
     619A      0.464419   620A      0.464597   621A      0.464842  
     622A      0.465577   623A      0.466190   624A      0.466273  
     625A      0.467712   626A      0.467857   627A      0.469080  
     628A      0.469704   629A      0.469846   630A      0.472598  
     631A      0.472698   632A      0.474560   633A      0.474717  
     634A      0.476536   635A      0.476681   636A      0.476872  
     637A      0.478119   638A      0.478411   639A      0.481036  
     640A      0.481627   641A      0.482280   642A      0.483707  
     643A      0.484581   644A      0.486220   645A      0.487158  
     646A      0.487193   647A      0.487388   648A      0.489647  
     649A      0.490411   650A      0.490418   651A      0.491495  
     652A      0.491530   653A      0.492915   654A      0.495482  
     655A      0.496336   656A      0.496466   657A      0.497121  
     658A      0.497864   659A      0.498601   660A      0.499064  
     661A      0.503772   662A      0.503890   663A      0.504023  
     664A      0.504344   665A      0.504505   666A      0.506620  
     667A      0.508814   668A      0.508964   669A      0.510046  
     670A      0.511024   671A      0.511502   672A      0.512017  
     673A      0.512349   674A      0.513068   675A      0.514822  
     676A      0.518763   677A      0.520540   678A      0.520902  
     679A      0.522060   680A      0.522513   681A      0.523502  
     682A      0.524109   683A      0.524406   684A      0.524744  
     685A      0.525039   686A      0.530147   687A      0.532398  
     688A      0.532444   689A      0.532775   690A      0.532953  
     691A      0.533476   692A      0.534537   693A      0.534581  
     694A      0.538491   695A      0.538822   696A      0.539519  
     697A      0.540173   698A      0.540272   699A      0.542362  
     700A      0.542450   701A      0.542798   702A      0.547613  
     703A      0.547781   704A      0.547924   705A      0.548750  
     706A      0.549291   707A      0.549390   708A      0.550809  
     709A      0.550981   710A      0.551127   711A      0.551856  
     712A      0.554360   713A      0.554640   714A      0.555198  
     715A      0.555306   716A      0.557182   717A      0.558735  
     718A      0.558792   719A      0.561679   720A      0.563173  
     721A      0.564346   722A      0.565677   723A      0.566001  
     724A      0.569738   725A      0.570248   726A      0.572208  
     727A      0.574685   728A      0.574968   729A      0.575943  
     730A      0.576586   731A      0.577087   732A      0.577324  
     733A      0.579925   734A      0.582920   735A      0.583103  
     736A      0.583628   737A      0.583829   738A      0.584161  
     739A      0.591178   740A      0.591652   741A      0.592833  
     742A      0.593007   743A      0.593695   744A      0.594753  
     745A      0.595485   746A      0.598264   747A      0.601684  
     748A      0.606266   749A      0.606830   750A      0.611645  
     751A      0.611931   752A      0.614357   753A      0.617183  
     754A      0.617476   755A      0.620782   756A      0.622074  
     757A      0.622311   758A      0.623596   759A      0.623863  
     760A      0.625995   761A      0.626350   762A      0.629580  
     763A      0.630858   764A      0.632430   765A      0.637776  
     766A      0.638702   767A      0.640209   768A      0.641901  
     769A      0.644170   770A      0.644542   771A      0.645564  
     772A      0.646096   773A      0.646763   774A      0.647012  
     775A      0.647310   776A      0.648477   777A      0.653169  
     778A      0.654440   779A      0.655749   780A      0.656164  
     781A      0.659287   782A      0.663148   783A      0.663697  
     784A      0.663788   785A      0.665875   786A      0.666743  
     787A      0.668998   788A      0.670834   789A      0.672504  
     790A      0.676195   791A      0.678752   792A      0.678845  
     793A      0.680347   794A      0.682711   795A      0.685943  
     796A      0.686910   797A      0.688933   798A      0.690847  
     799A      0.693344   800A      0.696536   801A      0.698116  
     802A      0.698388   803A      0.702793   804A      0.704250  
     805A      0.704619   806A      0.717036   807A      0.717473  
     808A      0.717863   809A      0.718283   810A      0.718747  
     811A      0.719689   812A      0.720105   813A      0.721180  
     814A      0.727837   815A      0.728555   816A      0.728881  
     817A      0.733094   818A      0.734740   819A      0.737003  
     820A      0.742987   821A      0.746074   822A      0.746837  
     823A      0.748016   824A      0.748143   825A      0.749157  
     826A      0.751756   827A      0.752717   828A      0.752868  
     829A      0.753819   830A      0.760504   831A      0.762200  
     832A      0.765069   833A      0.765824   834A      0.766888  
     835A      0.771496   836A      0.771728   837A      0.773479  
     838A      0.774882   839A      0.782899   840A      0.783045  
     841A      0.788594   842A      0.789990   843A      0.791070  
     844A      0.797611   845A      0.799553   846A      0.801082  
     847A      0.804396   848A      0.808626   849A      0.808935  
     850A      0.810952   851A      0.811084   852A      0.813032  
     853A      0.816512   854A      0.830685   855A      0.833566  
     856A      0.842795   857A      0.845780   858A      0.846398  
     859A      0.846522   860A      0.850373   861A      0.851908  
     862A      0.854315   863A      0.857844   864A      0.858680  
     865A      0.859961   866A      0.862367   867A      0.863494  
     868A      0.866215   869A      0.867785   870A      0.871238  
     871A      0.871774   872A      0.872565   873A      0.873060  
     874A      0.874785   875A      0.875118   876A      0.883782  
     877A      0.885073   878A      0.885656   879A      0.892846  
     880A      0.893139   881A      0.893988   882A      0.894981  
     883A      0.896904   884A      0.898261   885A      0.900589  
     886A      0.902154   887A      0.902766   888A      0.904028  
     889A      0.907241   890A      0.910153   891A      0.914212  
     892A      0.915948   893A      0.917043   894A      0.918059  
     895A      0.918681   896A      0.919258   897A      0.923406  
     898A      0.923884   899A      0.924384   900A      0.925285  
     901A      0.929297   902A      0.929694   903A      0.930389  
     904A      0.931862   905A      0.932404   906A      0.933282  
     907A      0.934892   908A      0.935576   909A      0.936658  
     910A      0.939456   911A      0.940486   912A      0.941576  
     913A      0.944343   914A      0.948415   915A      0.950304  
     916A      0.952105   917A      0.953356   918A      0.953917  
     919A      0.955178   920A      0.955467   921A      0.955840  
     922A      0.961768   923A      0.962351   924A      0.962665  
     925A      0.965286   926A      0.967555   927A      0.969977  
     928A      0.971144   929A      0.971428   930A      0.975838  
     931A      0.977484   932A      0.977565   933A      0.978068  
     934A      0.978296   935A      0.980026   936A      0.984267  
     937A      0.984791   938A      0.989232   939A      0.989738  
     940A      0.990202   941A      0.990346   942A      0.992073  
     943A      0.994535   944A      0.994812   945A      0.996058  
     946A      1.001113   947A      1.003745   948A      1.005702  
     949A      1.006498   950A      1.006858   951A      1.007191  
     952A      1.008700   953A      1.008831   954A      1.010794  
     955A      1.012479   956A      1.012866   957A      1.012943  
     958A      1.013136   959A      1.019803   960A      1.021153  
     961A      1.021576   962A      1.025162   963A      1.025554  
     964A      1.029584   965A      1.033249   966A      1.035701  
     967A      1.036125   968A      1.040007   969A      1.041949  
     970A      1.044851   971A      1.045295   972A      1.050826  
     973A      1.050883   974A      1.055785   975A      1.060439  
     976A      1.060597   977A      1.061198   978A      1.061403  
     979A      1.062337   980A      1.062893   981A      1.063566  
     982A      1.067427   983A      1.069021   984A      1.071472  
     985A      1.071639   986A      1.074556   987A      1.075699  
     988A      1.075804   989A      1.077881   990A      1.082314  
     991A      1.085071   992A      1.085911   993A      1.088493  
     994A      1.089674   995A      1.089920   996A      1.093942  
     997A      1.094053   998A      1.102630   999A      1.102719  
    1000A      1.104409  1001A      1.104858  1002A      1.105208  
    1003A      1.105527  1004A      1.106398  1005A      1.107914  
    1006A      1.108310  1007A      1.108441  1008A      1.111101  
    1009A      1.111556  1010A      1.115630  1011A      1.115696  
    1012A      1.117842  1013A      1.119043  1014A      1.119364  
    1015A      1.120134  1016A      1.123004  1017A      1.126271  
    1018A      1.126793  1019A      1.127535  1020A      1.127949  
    1021A      1.128361  1022A      1.129309  1023A      1.129547  
    1024A      1.131773  1025A      1.132071  1026A      1.132480  
    1027A      1.133192  1028A      1.134232  1029A      1.134390  
    1030A      1.134954  1031A      1.135108  1032A      1.135686  
    1033A      1.136182  1034A      1.137255  1035A      1.137518  
    1036A      1.139360  1037A      1.139396  1038A      1.140441  
    1039A      1.140758  1040A      1.142641  1041A      1.142962  
    1042A      1.143403  1043A      1.143852  1044A      1.144446  
    1045A      1.145011  1046A      1.145601  1047A      1.146749  
    1048A      1.146925  1049A      1.149353  1050A      1.151122  
    1051A      1.151334  1052A      1.155699  1053A      1.155853  
    1054A      1.157276  1055A      1.159407  1056A      1.159430  
    1057A      1.160733  1058A      1.161076  1059A      1.162192  
    1060A      1.169953  1061A      1.170089  1062A      1.171428  
    1063A      1.173396  1064A      1.174331  1065A      1.174586  
    1066A      1.181813  1067A      1.183198  1068A      1.183427  
    1069A      1.188197  1070A      1.189202  1071A      1.190721  
    1072A      1.190995  1073A      1.192099  1074A      1.194872  
    1075A      1.195301  1076A      1.197469  1077A      1.197836  
    1078A      1.200092  1079A      1.200470  1080A      1.201295  
    1081A      1.205289  1082A      1.207898  1083A      1.208880  
    1084A      1.209563  1085A      1.210264  1086A      1.210428  
    1087A      1.212278  1088A      1.214294  1089A      1.215506  
    1090A      1.215614  1091A      1.221578  1092A      1.226583  
    1093A      1.227463  1094A      1.228178  1095A      1.229981  
    1096A      1.230611  1097A      1.235313  1098A      1.239868  
    1099A      1.240222  1100A      1.243064  1101A      1.245936  
    1102A      1.245963  1103A      1.247004  1104A      1.248323  
    1105A      1.252551  1106A      1.253189  1107A      1.256832  
    1108A      1.261235  1109A      1.261438  1110A      1.263029  
    1111A      1.264897  1112A      1.266141  1113A      1.268795  
    1114A      1.270256  1115A      1.271024  1116A      1.271617  
    1117A      1.273359  1118A      1.275911  1119A      1.277224  
    1120A      1.277577  1121A      1.280315  1122A      1.280775  
    1123A      1.285286  1124A      1.291980  1125A      1.293872  
    1126A      1.303811  1127A      1.309203  1128A      1.309599  
    1129A      1.309904  1130A      1.310369  1131A      1.310602  
    1132A      1.316526  1133A      1.319073  1134A      1.319276  
    1135A      1.322700  1136A      1.324658  1137A      1.325246  
    1138A      1.327591  1139A      1.327883  1140A      1.339043  
    1141A      1.339197  1142A      1.340100  1143A      1.344905  
    1144A      1.348752  1145A      1.348929  1146A      1.350459  
    1147A      1.350508  1148A      1.353342  1149A      1.353956  
    1150A      1.356597  1151A      1.357808  1152A      1.358993  
    1153A      1.360806  1154A      1.361299  1155A      1.361510  
    1156A      1.369555  1157A      1.370241  1158A      1.371503  
    1159A      1.374237  1160A      1.374421  1161A      1.376140  
    1162A      1.376296  1163A      1.378060  1164A      1.381501  
    1165A      1.382662  1166A      1.383415  1167A      1.383840  
    1168A      1.386682  1169A      1.386883  1170A      1.390702  
    1171A      1.391963  1172A      1.392368  1173A      1.394633  
    1174A      1.398648  1175A      1.398858  1176A      1.404423  
    1177A      1.409602  1178A      1.409778  1179A      1.414091  
    1180A      1.414231  1181A      1.417375  1182A      1.417498  
    1183A      1.418762  1184A      1.420501  1185A      1.420663  
    1186A      1.424381  1187A      1.429337  1188A      1.430421  
    1189A      1.432848  1190A      1.434961  1191A      1.435487  
    1192A      1.445290  1193A      1.445431  1194A      1.445746  
    1195A      1.449503  1196A      1.449809  1197A      1.452567  
    1198A      1.453203  1199A      1.463999  1200A      1.465434  
    1201A      1.465646  1202A      1.466240  1203A      1.466570  
    1204A      1.467246  1205A      1.467583  1206A      1.468090  
    1207A      1.472955  1208A      1.473817  1209A      1.480132  
    1210A      1.480327  1211A      1.481166  1212A      1.481471  
    1213A      1.485961  1214A      1.486193  1215A      1.487435  
    1216A      1.488187  1217A      1.490732  1218A      1.492982  
    1219A      1.493723  1220A      1.494455  1221A      1.494613  
    1222A      1.495680  1223A      1.500190  1224A      1.500240  
    1225A      1.504593  1226A      1.509849  1227A      1.510476  
    1228A      1.510694  1229A      1.512446  1230A      1.512573  
    1231A      1.512867  1232A      1.526304  1233A      1.526856  
    1234A      1.528785  1235A      1.529592  1236A      1.530148  
    1237A      1.530538  1238A      1.531230  1239A      1.531567  
    1240A      1.542140  1241A      1.542513  1242A      1.543048  
    1243A      1.544574  1244A      1.550636  1245A      1.556854  
    1246A      1.556921  1247A      1.560417  1248A      1.564884  
    1249A      1.564962  1250A      1.565650  1251A      1.576359  
    1252A      1.576994  1253A      1.595873  1254A      1.596027  
    1255A      1.597880  1256A      1.603763  1257A      1.613164  
    1258A      1.613217  1259A      1.644063  1260A      1.644821  
    1261A      1.645524  1262A      1.645946  1263A      1.654904  
    1264A      1.660344  1265A      1.662853  1266A      1.666305  
    1267A      1.666599  1268A      1.667096  1269A      1.667444  
    1270A      1.669906  1271A      1.670097  1272A      1.670698  
    1273A      1.671289  1274A      1.674927  1275A      1.675258  
    1276A      1.676066  1277A      1.676308  1278A      1.679003  
    1279A      1.679620  1280A      1.680041  1281A      1.682056  
    1282A      1.683219  1283A      1.685212  1284A      1.685853  
    1285A      1.686542  1286A      1.689391  1287A      1.691054  
    1288A      1.693736  1289A      1.695370  1290A      1.695610  
    1291A      1.696463  1292A      1.696541  1293A      1.697708  
    1294A      1.698347  1295A      1.698762  1296A      1.700102  
    1297A      1.700481  1298A      1.700669  1299A      1.702384  
    1300A      1.706231  1301A      1.709108  1302A      1.709448  
    1303A      1.713714  1304A      1.713787  1305A      1.714482  
    1306A      1.714988  1307A      1.724292  1308A      1.724697  
    1309A      1.728057  1310A      1.728121  1311A      1.728534  
    1312A      1.729215  1313A      1.729474  1314A      1.732027  
    1315A      1.733501  1316A      1.734625  1317A      1.737737  
    1318A      1.738246  1319A      1.745337  1320A      1.747438  
    1321A      1.751937  1322A      1.752382  1323A      1.755368  
    1324A      1.755676  1325A      1.756420  1326A      1.758177  
    1327A      1.766010  1328A      1.766092  1329A      1.768851  
    1330A      1.772857  1331A      1.772913  1332A      1.773520  
    1333A      1.776739  1334A      1.778697  1335A      1.781742  
    1336A      1.782219  1337A      1.783748  1338A      1.783773  
    1339A      1.788792  1340A      1.795371  1341A      1.805593  
    1342A      1.805768  1343A      1.806661  1344A      1.806888  
    1345A      1.809040  1346A      1.822536  1347A      1.824370  
    1348A      1.825248  1349A      1.838119  1350A      1.840014  
    1351A      1.842082  1352A      1.842773  1353A      1.863776  
    1354A      1.863971  1355A      1.867531  1356A      1.876070  
    1357A      1.880700  1358A      1.883512  1359A      1.883835  
    1360A      1.884211  1361A      1.884562  1362A      1.885372  
    1363A      1.890096  1364A      1.890438  1365A      1.890883  
    1366A      1.896227  1367A      1.896369  1368A      1.897156  
    1369A      1.898461  1370A      1.905472  1371A      1.906564  
    1372A      1.911420  1373A      1.911501  1374A      1.917872  
    1375A      1.918344  1376A      1.922208  1377A      1.922299  
    1378A      1.924092  1379A      1.924396  1380A      1.926971  
    1381A      1.927386  1382A      1.928598  1383A      1.929086  
    1384A      1.930577  1385A      1.936801  1386A      1.937244  
    1387A      1.938253  1388A      1.940254  1389A      1.941768  
    1390A      1.942311  1391A      1.943791  1392A      1.945370  
    1393A      1.948293  1394A      1.950523  1395A      1.959995  
    1396A      1.960214  1397A      1.961903  1398A      1.962287  
    1399A      1.968344  1400A      1.968668  1401A      1.973182  
    1402A      1.974557  1403A      1.979710  1404A      1.980554  
    1405A      1.982045  1406A      1.983290  1407A      1.983962  
    1408A      1.984638  1409A      1.987079  1410A      1.988836  
    1411A      1.992881  1412A      1.993142  1413A      1.993868  
    1414A      1.995834  1415A      1.997102  1416A      1.997615  
    1417A      2.000097  1418A      2.001958  1419A      2.002085  
    1420A      2.002831  1421A      2.003681  1422A      2.009297  
    1423A      2.013472  1424A      2.013669  1425A      2.016463  
    1426A      2.016696  1427A      2.018448  1428A      2.018987  
    1429A      2.021963  1430A      2.023588  1431A      2.025297  
    1432A      2.027560  1433A      2.028580  1434A      2.030694  
    1435A      2.031013  1436A      2.032030  1437A      2.034108  
    1438A      2.036436  1439A      2.041756  1440A      2.042787  
    1441A      2.045554  1442A      2.046468  1443A      2.047519  
    1444A      2.047982  1445A      2.049075  1446A      2.052630  
    1447A      2.053597  1448A      2.055399  1449A      2.061491  
    1450A      2.063002  1451A      2.068528  1452A      2.068814  
    1453A      2.069821  1454A      2.073339  1455A      2.073747  
    1456A      2.075464  1457A      2.076209  1458A      2.078716  
    1459A      2.079985  1460A      2.080449  1461A      2.081236  
    1462A      2.083095  1463A      2.087377  1464A      2.089051  
    1465A      2.090754  1466A      2.092409  1467A      2.093600  
    1468A      2.095089  1469A      2.096092  1470A      2.097632  
    1471A      2.106028  1472A      2.107607  1473A      2.108406  
    1474A      2.108892  1475A      2.110978  1476A      2.113023  
    1477A      2.115051  1478A      2.116280  1479A      2.118488  
    1480A      2.120100  1481A      2.121457  1482A      2.121970  
    1483A      2.125557  1484A      2.126758  1485A      2.128506  
    1486A      2.129199  1487A      2.134589  1488A      2.136417  
    1489A      2.137500  1490A      2.138024  1491A      2.139198  
    1492A      2.140368  1493A      2.140467  1494A      2.141744  
    1495A      2.142449  1496A      2.144660  1497A      2.145047  
    1498A      2.145974  1499A      2.146096  1500A      2.146625  
    1501A      2.147426  1502A      2.148080  1503A      2.148851  
    1504A      2.151374  1505A      2.151893  1506A      2.153019  
    1507A      2.156176  1508A      2.156443  1509A      2.158155  
    1510A      2.158724  1511A      2.159124  1512A      2.161374  
    1513A      2.163882  1514A      2.165013  1515A      2.168247  
    1516A      2.170264  1517A      2.171109  1518A      2.173427  
    1519A      2.173983  1520A      2.174693  1521A      2.175135  
    1522A      2.176549  1523A      2.176942  1524A      2.178933  
    1525A      2.183793  1526A      2.184251  1527A      2.184641  
    1528A      2.186802  1529A      2.187458  1530A      2.187834  
    1531A      2.191168  1532A      2.191531  1533A      2.196740  
    1534A      2.196910  1535A      2.199054  1536A      2.199811  
    1537A      2.200608  1538A      2.201228  1539A      2.201848  
    1540A      2.202613  1541A      2.206959  1542A      2.213391  
    1543A      2.214377  1544A      2.216555  1545A      2.217332  
    1546A      2.217847  1547A      2.218251  1548A      2.218623  
    1549A      2.219320  1550A      2.219834  1551A      2.220713  
    1552A      2.229220  1553A      2.229963  1554A      2.237925  
    1555A      2.238879  1556A      2.239005  1557A      2.240108  
    1558A      2.247925  1559A      2.249540  1560A      2.250702  
    1561A      2.252194  1562A      2.253096  1563A      2.255186  
    1564A      2.257096  1565A      2.257596  1566A      2.258438  
    1567A      2.259551  1568A      2.261141  1569A      2.262293  
    1570A      2.262694  1571A      2.263117  1572A      2.263696  
    1573A      2.267759  1574A      2.272234  1575A      2.272885  
    1576A      2.278277  1577A      2.279123  1578A      2.279305  
    1579A      2.280584  1580A      2.284273  1581A      2.284601  
    1582A      2.286642  1583A      2.286690  1584A      2.288648  
    1585A      2.289658  1586A      2.297312  1587A      2.298970  
    1588A      2.299692  1589A      2.302269  1590A      2.303504  
    1591A      2.303942  1592A      2.312039  1593A      2.312980  
    1594A      2.315611  1595A      2.317133  1596A      2.321353  
    1597A      2.322045  1598A      2.324389  1599A      2.324482  
    1600A      2.334895  1601A      2.340312  1602A      2.341962  
    1603A      2.347325  1604A      2.347697  1605A      2.350550  
    1606A      2.356148  1607A      2.357078  1608A      2.360800  
    1609A      2.361141  1610A      2.366756  1611A      2.380724  
    1612A      2.382864  1613A      2.383736  1614A      2.383898  
    1615A      2.385752  1616A      2.387168  1617A      2.387617  
    1618A      2.390425  1619A      2.392602  1620A      2.393433  
    1621A      2.394619  1622A      2.398163  1623A      2.400034  
    1624A      2.400369  1625A      2.401297  1626A      2.403254  
    1627A      2.403550  1628A      2.403771  1629A      2.410192  
    1630A      2.410427  1631A      2.429894  1632A      2.434098  
    1633A      2.434572  1634A      2.440908  1635A      2.445743  
    1636A      2.450761  1637A      2.452524  1638A      2.454607  
    1639A      2.456646  1640A      2.475965  1641A      2.477428  
    1642A      2.482506  1643A      2.485306  1644A      2.492349  
    1645A      2.499657  1646A      2.501731  1647A      2.511839  
    1648A      2.512049  1649A      2.521746  1650A      2.522092  
    1651A      2.525297  1652A      2.525677  1653A      2.529061  
    1654A      2.529344  1655A      2.547447  1656A      2.547829  
    1657A      2.555749  1658A      2.558488  1659A      2.562834  
    1660A      2.563489  1661A      2.567372  1662A      2.573319  
    1663A      2.597250  1664A      2.597960  1665A      2.598036  
    1666A      2.599552  1667A      2.600284  1668A      2.603546  
    1669A      2.604079  1670A      2.605189  1671A      2.607582  
    1672A      2.609118  1673A      2.616657  1674A      2.616855  
    1675A      2.622235  1676A      2.627130  1677A      2.628672  
    1678A      2.635578  1679A      2.638662  1680A      2.639122  
    1681A      2.642390  1682A      2.643312  1683A      2.643533  
    1684A      2.643922  1685A      2.647958  1686A      2.650576  
    1687A      2.658324  1688A      2.658511  1689A      2.670240  
    1690A      2.670639  1691A      2.670969  1692A      2.671248  
    1693A      2.674381  1694A      2.675077  1695A      2.690599  
    1696A      2.698364  1697A      2.699067  1698A      2.701521  
    1699A      2.703508  1700A      2.705034  1701A      2.707135  
    1702A      2.708136  1703A      2.708615  1704A      2.712184  
    1705A      2.712576  1706A      2.723486  1707A      2.724978  
    1708A      2.726222  1709A      2.726447  1710A      2.726486  
    1711A      2.733487  1712A      2.733521  1713A      2.733680  
    1714A      2.742519  1715A      2.744357  1716A      2.745654  
    1717A      2.748866  1718A      2.749418  1719A      2.749781  
    1720A      2.750481  1721A      2.754149  1722A      2.755263  
    1723A      2.763062  1724A      2.777548  1725A      2.786892  
    1726A      2.787336  1727A      2.787907  1728A      2.788770  
    1729A      2.788861  1730A      2.811179  1731A      2.821047  
    1732A      2.821534  1733A      2.834589  1734A      2.836522  
    1735A      2.839130  1736A      2.839488  1737A      2.858963  
    1738A      2.859307  1739A      2.861473  1740A      2.861508  
    1741A      2.862656  1742A      2.869882  1743A      2.872661  
    1744A      2.873639  1745A      2.874222  1746A      2.875251  
    1747A      2.877766  1748A      2.888776  1749A      2.889004  
    1750A      2.898823  1751A      2.900310  1752A      2.900378  
    1753A      2.902222  1754A      2.904328  1755A      2.922021  
    1756A      2.924177  1757A      2.924591  1758A      2.927765  
    1759A      2.928683  1760A      2.932719  1761A      2.957489  
    1762A      2.958334  1763A      2.973380  1764A      2.973518  
    1765A      2.974694  1766A      2.977632  1767A      2.978349  
    1768A      2.983073  1769A      2.985695  1770A      2.992660  
    1771A      2.992752  1772A      3.000878  1773A      3.020438  
    1774A      3.021430  1775A      3.021863  1776A      3.032801  
    1777A      3.049063  1778A      3.049777  1779A      3.087452  
    1780A      3.088295  1781A      3.091621  1782A      3.094884  
    1783A      3.103943  1784A      3.105591  1785A      3.106174  
    1786A      3.116173  1787A      3.116263  1788A      3.117627  
    1789A      3.130735  1790A      3.164223  1791A      3.169131  
    1792A      3.169434  1793A      3.180272  1794A      3.185568  
    1795A      3.185928  1796A      3.190517  1797A      3.192312  
    1798A      3.198370  1799A      3.199257  1800A      3.205766  
    1801A      3.206009  1802A      3.207550  1803A      3.207868  
    1804A      3.209415  1805A      3.217572  1806A      3.227894  
    1807A      3.228902  1808A      3.231149  1809A      3.231307  
    1810A      3.249154  1811A      3.249855  1812A      3.275531  
    1813A      3.303408  1814A      3.313565  1815A      3.314950  
    1816A      3.319339  1817A      3.320405  1818A      3.320508  
    1819A      3.322474  1820A      3.325795  1821A      3.328876  
    1822A      3.332056  1823A      3.332593  1824A      3.351604  
    1825A      3.354574  1826A      3.356037  1827A      3.361210  
    1828A      3.420908  1829A      3.421701  1830A      3.432190  
    1831A      3.475981  1832A      3.489595  1833A      3.492952  
    1834A      3.501889  1835A      3.509450  1836A      3.513465  
    1837A      3.523081  1838A      3.524133  1839A      3.527510  
    1840A      3.531092  1841A      3.534225  1842A      3.543506  
    1843A      3.546517  1844A      3.555301  1845A      3.568896  
    1846A      3.602543  1847A      3.633836  1848A      3.635608  
    1849A      3.642985  1850A      3.648125  1851A      3.697975  
    1852A      3.700719  1853A      3.723538  1854A      3.725434  
    1855A      3.764454  1856A      3.807154  1857A      3.808408  
    1858A      3.810036  1859A      3.824238  1860A      3.835840  
    1861A      3.842035  1862A      3.899387  1863A      3.901780  
    1864A      3.929395  1865A      3.932649  1866A      3.963869  
    1867A      3.972081  1868A      3.999903  1869A      4.003472  
    1870A      4.006619  1871A      4.007568  1872A      4.018949  
    1873A      4.027327  1874A      4.032106  1875A      4.085037  
    1876A      4.088050  1877A      4.132607  1878A      4.171197  
    1879A      4.171269  1880A      4.171299  1881A      4.199271  
    1882A      4.199468  1883A      4.199511  1884A      4.201650  
    1885A      4.201807  1886A      4.233768  1887A      4.233871  
    1888A      4.251451  1889A      4.294743  1890A      4.367443  
    1891A      4.446168  1892A      4.446496  1893A      4.447477  
    1894A      4.458529  1895A      4.647100  1896A      4.652719  
    1897A      4.652801  1898A      4.749266  1899A      4.784646  
    1900A      4.785072  

    Final Occupation by Irrep:
              A 
    DOCC [   321 ]
    NA   [   321 ]
    NB   [   321 ]

  @DF-RHF Final Energy: -4073.10658381129406

   => Energetics <=

    Nuclear Repulsion Energy =          17388.6553528982258285
    One-Electron Energy =              -40261.5494006845547119
    Two-Electron Energy =               18799.7874639750334609
    Total Energy =                      -4073.1065838112954225

Computation Completed


Properties will be evaluated at   0.000000,   0.000000,   0.000000 [a0]

Properties computed using the SCF density matrix


 Multipole Moments:

 ------------------------------------------------------------------------------------
     Multipole            Electronic (a.u.)      Nuclear  (a.u.)        Total (a.u.)
 ------------------------------------------------------------------------------------

 L = 1.  Multiply by 2.5417464519 to convert [e a0] to [Debye]
 Dipole X            :         -0.0002799           -0.0000548           -0.0003347
 Dipole Y            :          0.0009378           -0.0002464            0.0006914
 Dipole Z            :        -24.6418366           33.3259863            8.6841497
 Magnitude           :                                                    8.6841498

 ------------------------------------------------------------------------------------

*** tstop() called on n2cn1038 at Sat Jan 27 13:28:14 2024
Module time:
	user time   =   24672.48 seconds =     411.21 minutes
	system time =    1332.63 seconds =      22.21 minutes
	total time  =       9983 seconds =     166.38 minutes
Total time:
	user time   =   24672.48 seconds =     411.21 minutes
	system time =    1332.63 seconds =      22.21 minutes
	total time  =       9983 seconds =     166.38 minutes

  //>>>>>>>>>>>>>>>>>>>>>>>>>>>>>>>>>>>//
  //            Monomer A HF           //
  //<<<<<<<<<<<<<<<<<<<<<<<<<<<<<<<<<<<//

   => Libint2 <=

    Primary   basis highest AM E, G, H:  5, 4, 3
    Auxiliary basis highest AM E, G, H:  6, 5, 4
    Onebody   basis highest AM E, G, H:  6, 5, 4
    Solid Harmonics ordering:            gaussian

*** tstart() called on n2cn1038
*** at Sat Jan 27 13:28:14 2024

   => Loading Basis Set <=

    Name: JUN-CC-PVDZ
    Role: ORBITAL
    Keyword: BASIS
    atoms 1                                                   entry B          line   130 file /opt/software/pc2/EB-SW/software/PSI4/1.9-foss-2022a/share/psi4/basis/jun-cc-pvdz.gbs 
    atoms 2-5                                                 entry F          line   266 file /opt/software/pc2/EB-SW/software/PSI4/1.9-foss-2022a/share/psi4/basis/jun-cc-pvdz.gbs 
    atoms 6-23, 30-42, 45-59, 62-78, 81-93, 98-108, 111-119   entry C          line   164 file /opt/software/pc2/EB-SW/software/PSI4/1.9-foss-2022a/share/psi4/basis/jun-cc-pvdz.gbs 
    atoms 24-29, 43-44, 60-61, 79-80, 94-97, 109-110, 120-125 entry H          line    36 file /opt/software/pc2/EB-SW/software/PSI4/1.9-foss-2022a/share/psi4/basis/jun-cc-pvdz.gbs 


         ---------------------------------------------------------
                                   SCF
               by Justin Turney, Rob Parrish, Andy Simmonett
                          and Daniel G. A. Smith
                              RHF Reference
                       16 Threads,  61035 MiB Core
         ---------------------------------------------------------

  ==> Geometry <==

    Molecular point group: c1
    Full point group: C1

    Geometry (in Angstrom), charge = -1, multiplicity = 1:

       Center              X                  Y                   Z               Mass       
    ------------   -----------------  -----------------  -----------------  -----------------
         B           -0.000201921932     0.000288800891    -5.214266220659    11.009305360000
         F           -0.000004162732     0.000014527991    -3.801481220659    18.998403162730
         F            1.147855837268     0.675795727991    -5.685407220659    18.998403162730
         F            0.011913897268    -1.331996472009    -5.685205220659    18.998403162730
         F           -1.159670162732     0.656088027991    -5.685126220659    18.998403162730
      Gh(C)          -3.668445426752     7.803766698073     0.387599820676    12.000000000000
      Gh(C)          -4.847602882078     7.131256359331     0.385233245744    12.000000000000
      Gh(C)          -4.894963461907     5.696344931522     0.384660334646    12.000000000000
      Gh(C)          -3.653744841505     4.980744868950     0.392320776375    12.000000000000
      Gh(C)          -2.409429284226     7.113995564665     0.387794162937    12.000000000000
      Gh(C)          -2.425481506836     5.681136478894     0.380789274066    12.000000000000
      Gh(C)          -1.194748179167     7.786158722300     0.389266343478    12.000000000000
      Gh(C)           0.037954866205     7.099436173748     0.387095639174    12.000000000000
      Gh(C)           0.030328424687     5.669504087695     0.381612254258    12.000000000000
      Gh(C)          -1.200988670637     4.969284875906     0.390581988191    12.000000000000
      Gh(C)           1.277953663083     7.772873971185     0.388471487734    12.000000000000
      Gh(C)           2.485353921992     7.087711413228     0.386196999829    12.000000000000
      Gh(C)           2.486124522185     5.654785338231     0.379259250842    12.000000000000
      Gh(C)           1.254078756912     4.956092641655     0.390887192430    12.000000000000
      Gh(C)           3.751710428674     7.763926678971     0.386323851210    12.000000000000
      Gh(C)           4.923561893453     7.078795304981     0.384267370502    12.000000000000
      Gh(C)           4.955603108594     5.643461991360     0.384106957695    12.000000000000
      Gh(C)           3.706797371473     4.941224736324     0.389198517865    12.000000000000
      Gh(H)          -3.658525300490     8.890841947126     0.389284808927     1.007825032230
      Gh(H)          -1.189217492488     8.874135615351     0.393238219920     1.007825032230
      Gh(H)           1.284290076155     8.860847963479     0.392630311875     1.007825032230
      Gh(H)           3.753537924068     8.851049806963     0.387846375525     1.007825032230
      Gh(H)           5.869954540475     7.613809362646     0.383342003459     1.007825032230
      Gh(H)          -5.788235870234     7.676316740925     0.383673398388     1.007825032230
[...]
    1504A      2.118191  1505A      2.120049  1506A      2.126523  
    1507A      2.126948  1508A      2.127481  1509A      2.127771  
    1510A      2.128563  1511A      2.128924  1512A      2.131776  
    1513A      2.132098  1514A      2.136320  1515A      2.136616  
    1516A      2.138796  1517A      2.141730  1518A      2.143011  
    1519A      2.143393  1520A      2.144008  1521A      2.144157  
    1522A      2.144940  1523A      2.154813  1524A      2.155229  
    1525A      2.157557  1526A      2.158149  1527A      2.159136  
    1528A      2.159967  1529A      2.160242  1530A      2.160356  
    1531A      2.162853  1532A      2.163755  1533A      2.171404  
    1534A      2.171847  1535A      2.181065  1536A      2.181616  
    1537A      2.181762  1538A      2.182726  1539A      2.189521  
    1540A      2.190530  1541A      2.191236  1542A      2.191657  
    1543A      2.192843  1544A      2.195116  1545A      2.197723  
    1546A      2.198255  1547A      2.200728  1548A      2.200792  
    1549A      2.201544  1550A      2.201708  1551A      2.203661  
    1552A      2.204417  1553A      2.205668  1554A      2.210669  
    1555A      2.213838  1556A      2.214253  1557A      2.220180  
    1558A      2.222339  1559A      2.222756  1560A      2.224540  
    1561A      2.224828  1562A      2.224873  1563A      2.228834  
    1564A      2.232019  1565A      2.232396  1566A      2.233898  
    1567A      2.238847  1568A      2.238930  1569A      2.239559  
    1570A      2.241795  1571A      2.247620  1572A      2.248182  
    1573A      2.251355  1574A      2.252394  1575A      2.260512  
    1576A      2.261687  1577A      2.264995  1578A      2.265220  
    1579A      2.267587  1580A      2.269579  1581A      2.275605  
    1582A      2.282880  1583A      2.284309  1584A      2.290926  
    1585A      2.291296  1586A      2.296524  1587A      2.296800  
    1588A      2.303822  1589A      2.304184  1590A      2.309206  
    1591A      2.318842  1592A      2.324614  1593A      2.325109  
    1594A      2.325242  1595A      2.327399  1596A      2.329555  
    1597A      2.330587  1598A      2.331382  1599A      2.333202  
    1600A      2.334789  1601A      2.335254  1602A      2.339890  
    1603A      2.341437  1604A      2.342185  1605A      2.342347  
    1606A      2.344862  1607A      2.345851  1608A      2.346331  
    1609A      2.349121  1610A      2.349463  1611A      2.368140  
    1612A      2.372423  1613A      2.373011  1614A      2.383704  
    1615A      2.388022  1616A      2.391581  1617A      2.392423  
    1618A      2.394634  1619A      2.397033  1620A      2.418360  
    1621A      2.419547  1622A      2.423996  1623A      2.427689  
    1624A      2.432405  1625A      2.441794  1626A      2.443887  
    1627A      2.452765  1628A      2.453138  1629A      2.464396  
    1630A      2.464595  1631A      2.467919  1632A      2.468190  
    1633A      2.471938  1634A      2.472190  1635A      2.491049  
    1636A      2.491453  1637A      2.495743  1638A      2.501889  
    1639A      2.506415  1640A      2.507303  1641A      2.511480  
    1642A      2.516193  1643A      2.539438  1644A      2.539684  
    1645A      2.540080  1646A      2.542155  1647A      2.542929  
    1648A      2.544976  1649A      2.547663  1650A      2.548619  
    1651A      2.549227  1652A      2.551392  1653A      2.556592  
    1654A      2.556745  1655A      2.564219  1656A      2.571328  
    1657A      2.571525  1658A      2.580181  1659A      2.583754  
    1660A      2.584235  1661A      2.585199  1662A      2.586303  
    1663A      2.588553  1664A      2.588913  1665A      2.593221  
    1666A      2.593512  1667A      2.601389  1668A      2.601511  
    1669A      2.612919  1670A      2.613435  1671A      2.613755  
    1672A      2.613916  1673A      2.616989  1674A      2.617677  
    1675A      2.632560  1676A      2.640625  1677A      2.641547  
    1678A      2.643829  1679A      2.645441  1680A      2.647668  
    1681A      2.648765  1682A      2.649356  1683A      2.652819  
    1684A      2.655766  1685A      2.656124  1686A      2.666084  
    1687A      2.666170  1688A      2.667584  1689A      2.670387  
    1690A      2.670589  1691A      2.673651  1692A      2.677576  
    1693A      2.677838  1694A      2.684588  1695A      2.685845  
    1696A      2.687335  1697A      2.691280  1698A      2.691325  
    1699A      2.691635  1700A      2.692696  1701A      2.696126  
    1702A      2.697326  1703A      2.704259  1704A      2.720942  
    1705A      2.730720  1706A      2.730933  1707A      2.731043  
    1708A      2.731400  1709A      2.731995  1710A      2.752502  
    1711A      2.760355  1712A      2.760816  1713A      2.773528  
    1714A      2.775954  1715A      2.780029  1716A      2.780656  
    1717A      2.799198  1718A      2.799931  1719A      2.801639  
    1720A      2.802205  1721A      2.802260  1722A      2.807874  
    1723A      2.810066  1724A      2.814868  1725A      2.815489  
    1726A      2.815880  1727A      2.816387  1728A      2.821519  
    1729A      2.821866  1730A      2.828715  1731A      2.828869  
    1732A      2.835909  1733A      2.840170  1734A      2.841906  
    1735A      2.841986  1736A      2.845972  1737A      2.857301  
    1738A      2.865116  1739A      2.865517  1740A      2.869746  
    1741A      2.870971  1742A      2.874039  1743A      2.874354  
    1744A      2.895982  1745A      2.896864  1746A      2.913206  
    1747A      2.917716  1748A      2.917819  1749A      2.927431  
    1750A      2.930028  1751A      2.935101  1752A      2.935137  
    1753A      2.963142  1754A      2.965029  1755A      2.965480  
    1756A      2.976127  1757A      2.991899  1758A      2.992662  
    1759A      3.029462  1760A      3.030194  1761A      3.035354  
    1762A      3.038547  1763A      3.046957  1764A      3.047612  
    1765A      3.048027  1766A      3.057572  1767A      3.057628  
    1768A      3.063525  1769A      3.072869  1770A      3.108553  
    1771A      3.112953  1772A      3.113287  1773A      3.122888  
    1774A      3.127242  1775A      3.127842  1776A      3.132551  
    1777A      3.134215  1778A      3.141966  1779A      3.143052  
    1780A      3.148546  1781A      3.149071  1782A      3.149683  
    1783A      3.150223  1784A      3.153678  1785A      3.162101  
    1786A      3.167918  1787A      3.173156  1788A      3.175167  
    1789A      3.175326  1790A      3.193087  1791A      3.193854  
    1792A      3.220092  1793A      3.253340  1794A      3.259504  
    1795A      3.261615  1796A      3.261877  1797A      3.262462  
    1798A      3.264644  1799A      3.268559  1800A      3.271645  
    1801A      3.274943  1802A      3.275493  1803A      3.293750  
    1804A      3.296028  1805A      3.297547  1806A      3.303339  
    1807A      3.361411  1808A      3.362261  1809A      3.371074  
    1810A      3.416193  1811A      3.430028  1812A      3.432290  
    1813A      3.436986  1814A      3.447828  1815A      3.451796  
    1816A      3.461813  1817A      3.464644  1818A      3.466323  
    1819A      3.471194  1820A      3.474139  1821A      3.483233  
    1822A      3.485316  1823A      3.494575  1824A      3.509188  
    1825A      3.541439  1826A      3.574386  1827A      3.576065  
    1828A      3.583072  1829A      3.590210  1830A      3.637794  
    1831A      3.640497  1832A      3.664815  1833A      3.666855  
    1834A      3.705057  1835A      3.747690  1836A      3.749767  
    1837A      3.751174  1838A      3.763242  1839A      3.778596  
    1840A      3.780060  1841A      3.841893  1842A      3.843389  
    1843A      3.871487  1844A      3.874650  1845A      3.905494  
    1846A      3.913241  1847A      3.938627  1848A      3.941624  
    1849A      3.948370  1850A      3.949306  1851A      3.959169  
    1852A      3.965568  1853A      3.971070  1854A      4.024708  
    1855A      4.027495  1856A      4.070826  1857A      4.211155  
    1858A      4.212273  1859A      4.228818  1860A      4.233900  
    1861A      4.303253  1862A      4.373959  1863A      4.394435  
    1864A      5.749658  1865A      5.751976  1866A      5.752004  
    1867A      5.756453  1868A      5.756525  1869A      5.759875  
    1870A      5.763390  1871A      5.763399  1872A      5.783804  
    1873A      5.783883  1874A      5.802468  1875A      6.021141  
    1876A      6.022358  1877A      6.022702  1878A      6.196124  
    1879A      6.328524  1880A      6.328851  1881A      6.378105  
    1882A      6.378878  1883A      6.379209  1884A      7.194075  
    1885A      7.196539  1886A      7.247259  1887A      7.249700  
    1888A      7.256627  1889A      7.257098  1890A      7.315756  
    1891A      7.317225  1892A      7.470745  1893A      7.470913  
    1894A      7.567586  1895A      7.678437  1896A     12.621904  
    1897A     42.913935  1898A     42.914093  1899A     42.919785  
    1900A     42.947812  

    Final Occupation by Irrep:
              A 
    DOCC [   300 ]
    NA   [   300 ]
    NB   [   300 ]

  @DF-RHF Final Energy: -3650.33849385385975

   => Energetics <=

    Nuclear Repulsion Energy =          15611.4211649754324753
    One-Electron Energy =              -36072.1015092544403160
    Two-Electron Energy =               16810.3418504251494596
    Total Energy =                      -3650.3384938538583810

Computation Completed


Properties will be evaluated at   0.000000,   0.000000,   0.000000 [a0]

Properties computed using the SCF density matrix


 Multipole Moments:

 ------------------------------------------------------------------------------------
     Multipole            Electronic (a.u.)      Nuclear  (a.u.)        Total (a.u.)
 ------------------------------------------------------------------------------------

 L = 1.  Multiply by 2.5417464519 to convert [e a0] to [Debye]
 Dipole X            :         -0.0007819            0.0002304           -0.0005514
 Dipole Y            :          0.0011201           -0.0013052           -0.0001851
 Dipole Z            :       -437.3206736          437.3235617            0.0028880
 Magnitude           :                                                    0.0029460

 ------------------------------------------------------------------------------------

*** tstop() called on n2cn1038 at Sat Jan 27 16:29:05 2024
Module time:
	user time   =   17120.20 seconds =     285.34 minutes
	system time =     970.17 seconds =      16.17 minutes
	total time  =       7249 seconds =     120.82 minutes
Total time:
	user time   =   45894.35 seconds =     764.91 minutes
	system time =    2566.51 seconds =      42.78 minutes
	total time  =      20834 seconds =     347.23 minutes
  Constructing Basis Sets for SAPT...

   => Loading Basis Set <=

    Name: (JUN-CC-PVDZ AUX)
    Role: RIFIT
    Keyword: DF_BASIS_SAPT
    atoms 1                                                   entry B          line    56 file /opt/software/pc2/EB-SW/software/PSI4/1.9-foss-2022a/share/psi4/basis/jun-cc-pvdz-ri.gbs 
    atoms 2-5                                                 entry F          line   232 file /opt/software/pc2/EB-SW/software/PSI4/1.9-foss-2022a/share/psi4/basis/jun-cc-pvdz-ri.gbs 
    atoms 6-23, 30-42, 45-59, 62-78, 81-93, 98-108, 111-119   entry C          line   100 file /opt/software/pc2/EB-SW/software/PSI4/1.9-foss-2022a/share/psi4/basis/jun-cc-pvdz-ri.gbs 
    atoms 24-29, 43-44, 60-61, 79-80, 94-97, 109-110, 120-125 entry H          line    30 file /opt/software/pc2/EB-SW/software/PSI4/1.9-foss-2022a/share/psi4/basis/jun-cc-pvdz-ri.gbs 

   => Loading Basis Set <=

    Name: (JUN-CC-PVDZ AUX)
    Role: JKFIT
    Keyword: DF_BASIS_ELST
    atoms 1                                                   entry B          line    90 file /opt/software/pc2/EB-SW/software/PSI4/1.9-foss-2022a/share/psi4/basis/jun-cc-pvdz-jkfit.gbs 
    atoms 2-5                                                 entry F          line   314 file /opt/software/pc2/EB-SW/software/PSI4/1.9-foss-2022a/share/psi4/basis/jun-cc-pvdz-jkfit.gbs 
    atoms 6-23, 30-42, 45-59, 62-78, 81-93, 98-108, 111-119   entry C          line   146 file /opt/software/pc2/EB-SW/software/PSI4/1.9-foss-2022a/share/psi4/basis/jun-cc-pvdz-jkfit.gbs 
    atoms 24-29, 43-44, 60-61, 79-80, 94-97, 109-110, 120-125 entry H          line    70 file /opt/software/pc2/EB-SW/software/PSI4/1.9-foss-2022a/share/psi4/basis/jun-cc-pvdz-jkfit.gbs 


  //>>>>>>>>>>>>>>>>>>>>>>>>>>>>>>>>>>>//
  //               SSAPT0              //
  //<<<<<<<<<<<<<<<<<<<<<<<<<<<<<<<<<<<//


*** tstart() called on n2cn1038
*** at Sat Jan 27 16:29:06 2024

        SAPT0  
    Ed Hohenstein
     6 June 2009

      Orbital Information
  --------------------------
    NSO        =      1938
    NMO        =      1900
    NRI        =      6901
    NRI (Elst) =      8531
    NOCC A     =        21
    NOCC B     =       300
    FOCC A     =         5
    FOCC B     =        96
    NVIR A     =      1879
    NVIR B     =      1600

    Elst10,r            =     0.010176397018 [Eh]
    Exch10              =     0.000044536493 [Eh]
    Exch10 (S^2)        =     0.000044537722 [Eh]

    Iter     Energy [mEh]          dE [mEh]         Residual      Time [s]
       1      -0.00809617       0.008096174       0.507799688           753
       2      -0.00925376       0.001157589       0.249620758          1427
       3      -0.00961596       0.000362201       0.047206772          2066
       4      -0.00959039      -0.000025573       0.011217689          2748
       5      -0.00958164      -0.000008751       0.001607100          3541
       6      -0.00958331       0.000001668       0.000388564          4090
       7      -0.00958326      -0.000000048       0.000104077          4713
       8      -0.00958320      -0.000000059       0.000028933          5253
       9      -0.00958320      -0.000000005       0.000005582          5797
      10      -0.00958320       0.000000004       0.000001036          6377
      11      -0.00958320      -0.000000000       0.000000184          6901

    CHF Iterations converged


    Iter     Energy [mEh]          dE [mEh]         Residual      Time [s]
       1     -10.02662072      10.026620721      55.063016918           534
       2      -6.40224843      -3.624372291       6.631377443          1061
       3      -6.36593707      -0.036311357       2.197479763          1639
       4      -6.48125314       0.115316061       0.712603119          2334
       5      -6.49784956       0.016596426       0.242297044          2866
       6      -6.49591573      -0.001933827       0.160418210          3435
       7      -6.49271137      -0.003204366       0.063480992          3867
       8      -6.49289725       0.000185881       0.027737014          4377
       9      -6.49344724       0.000549989       0.012801369          4974
      10      -6.49341512      -0.000032123       0.013587935          5599
      11      -6.49328154      -0.000133575       0.006968619          6315
      12      -6.49328710       0.000005557       0.003364080          6998
      13      -6.49331410       0.000027001       0.001262559          7708
      14      -6.49332132       0.000007219       0.000449943          8373
      15      -6.49331860      -0.000002713       0.000277811          9185
      16      -6.49331507      -0.000003533       0.000162444          9842
      17      -6.49331658       0.000001511       0.000086415         10727
      18      -6.49331726       0.000000682       0.000028023         11536
      19      -6.49331701      -0.000000253       0.000013976         22115
      20      -6.49331692      -0.000000091       0.000006224         26622
      21      -6.49331695       0.000000030       0.000003070         27575
      22      -6.49331697       0.000000022       0.000001440         28703
      23      -6.49331697      -0.000000003       0.000000572         29696

    CHF Iterations converged

    Ind20,r (A<-B)      =    -0.000009583200 [Eh]
    Ind20,r (B<-A)      =    -0.006493316967 [Eh]
    Ind20,r             =    -0.006502900167 [Eh]
    Exch-Ind20,r (A<-B) =     0.000003544615 [Eh]
    Exch-Ind20,r (B<-A) =     0.000006400415 [Eh]
    Exch-Ind20,r        =     0.000009945030 [Eh]
    Disp20              =    -0.001604356566 [Eh]
    Disp20 (SS)         =    -0.000802178283 [Eh]
    Disp20 (OS)         =    -0.000802178283 [Eh]
    Exch-Disp20         =     0.000015155678 [Eh]
    Exch-Disp20 (SS)    =     0.000010675313 [Eh]
    Exch-Disp20 (OS)    =     0.000004480364 [Eh]

    SAPT Results 
  --------------------------------------------------------------------------------------------------------
    Electrostatics                 10.17639702 [mEh]       6.38578554 [kcal/mol]      26.71812669 [kJ/mol]
      Elst10,r                     10.17639702 [mEh]       6.38578554 [kcal/mol]      26.71812669 [kJ/mol]

    Exchange                        0.04453649 [mEh]       0.02794707 [kcal/mol]       0.11693055 [kJ/mol]
      Exch10                        0.04453649 [mEh]       0.02794707 [kcal/mol]       0.11693055 [kJ/mol]
      Exch10(S^2)                   0.04453772 [mEh]       0.02794784 [kcal/mol]       0.11693377 [kJ/mol]

    Induction                      -6.45083298 [mEh]      -4.04795881 [kcal/mol]     -16.93665966 [kJ/mol]
      Ind20,r                      -6.50290017 [mEh]      -4.08063146 [kcal/mol]     -17.07336204 [kJ/mol]
      Exch-Ind20,r                  0.00994503 [mEh]       0.00624060 [kcal/mol]       0.02611067 [kJ/mol]
      delta HF,r (2)                0.04212215 [mEh]       0.02643205 [kcal/mol]       0.11059170 [kJ/mol]

    Dispersion                     -1.58920089 [mEh]      -0.99723861 [kcal/mol]      -4.17244636 [kJ/mol]
      Disp20                       -1.60435657 [mEh]      -1.00674894 [kcal/mol]      -4.21223758 [kJ/mol]
      Exch-Disp20                   0.01515568 [mEh]       0.00951033 [kcal/mol]       0.03979123 [kJ/mol]
      Disp20 (SS)                  -0.80217828 [mEh]      -0.50337447 [kcal/mol]      -2.10611879 [kJ/mol]
      Disp20 (OS)                  -0.80217828 [mEh]      -0.50337447 [kcal/mol]      -2.10611879 [kJ/mol]
      Exch-Disp20 (SS)              0.01067531 [mEh]       0.00669886 [kcal/mol]       0.02802803 [kJ/mol]
      Exch-Disp20 (OS)              0.00448036 [mEh]       0.00281147 [kcal/mol]       0.01176319 [kJ/mol]

  Total HF                          3.77010053 [mEh]       2.36577380 [kcal/mol]       9.89839757 [kJ/mol]
  Total SAPT0                       2.18089964 [mEh]       1.36853518 [kcal/mol]       5.72595121 [kJ/mol]

  Special recipe for scaled SAPT0 (see Manual):
    Electrostatics sSAPT0          10.17639702 [mEh]       6.38578554 [kcal/mol]      26.71812669 [kJ/mol]
    Exchange sSAPT0                 0.04453649 [mEh]       0.02794707 [kcal/mol]       0.11693055 [kJ/mol]
    Induction sSAPT0               -6.45083381 [mEh]      -4.04795933 [kcal/mol]     -16.93666183 [kJ/mol]
    Dispersion sSAPT0              -1.58920214 [mEh]      -0.99723940 [kcal/mol]      -4.17244965 [kJ/mol]
  Total sSAPT0                      2.18089756 [mEh]       1.36853388 [kcal/mol]       5.72594576 [kJ/mol]
  --------------------------------------------------------------------------------------------------------

*** tstop() called on n2cn1038 at Mon Jan 29 13:45:27 2024
Module time:
	user time   =   63271.47 seconds =    1054.52 minutes
	system time =    3234.08 seconds =      53.90 minutes
	total time  =     162981 seconds =    2716.35 minutes
Total time:
	user time   =  109167.12 seconds =    1819.45 minutes
	system time =    5800.60 seconds =      96.68 minutes
	total time  =     183816 seconds =    3063.60 minutes

    Psi4 stopped on: Monday, 29 January 2024 01:45PM
    Psi4 wall time for execution: 2 days, 3:03:40.34

*** Psi4 exiting successfully. Buy a developer a beer!
