
    -----------------------------------------------------------------------
          Psi4: An Open-Source Ab Initio Electronic Structure Package
                               Psi4 1.9 release

                         Git: Rev {} zzzzzzz 


    D. G. A. Smith, L. A. Burns, A. C. Simmonett, R. M. Parrish,
    M. C. Schieber, R. Galvelis, P. Kraus, H. Kruse, R. Di Remigio,
    A. Alenaizan, A. M. James, S. Lehtola, J. P. Misiewicz, M. Scheurer,
    R. A. Shaw, J. B. Schriber, Y. Xie, Z. L. Glick, D. A. Sirianni,
    J. S. O'Brien, J. M. Waldrop, A. Kumar, E. G. Hohenstein,
    B. P. Pritchard, B. R. Brooks, H. F. Schaefer III, A. Yu. Sokolov,
    K. Patkowski, A. E. DePrince III, U. Bozkaya, R. A. King,
    F. A. Evangelista, J. M. Turney, T. D. Crawford, C. D. Sherrill,
    J. Chem. Phys. 152(18) 184108 (2020). https://doi.org/10.1063/5.0006002

                            Additional Code Authors
    E. T. Seidl, C. L. Janssen, E. F. Valeev, M. L. Leininger,
    J. F. Gonthier, R. M. Richard, H. R. McAlexander, M. Saitow, X. Wang,
    P. Verma, M. H. Lechner, A. Jiang, S. Behnle, A. G. Heide,
    M. F. Herbst, and D. L. Poole

             Previous Authors, Complete List of Code Contributors,
                       and Citations for Specific Modules
    https://github.com/psi4/psi4/blob/master/codemeta.json
    https://github.com/psi4/psi4/graphs/contributors
    http://psicode.org/psi4manual/master/introduction.html#citing-psifour

    -----------------------------------------------------------------------


    Psi4 started on: Saturday, 27 January 2024 12:13AM

    Process ID: 327778
    Host:       n2cn1163
    PSIDATADIR: /opt/software/pc2/EB-SW/software/PSI4/1.9-foss-2022a/share/psi4
    Memory:     500.0 MiB
    Threads:    16
    
  ==> Input File <==

--------------------------------------------------------------------------
memory 64 GB # how much memory is available ! Depends on the nodes/cores !

molecule dimer {
# monomer A
+1 1    # Charge and multiplicity
C  0.680067 1.417258 -6.815929
C -0.680504 1.419286 -6.815545
N -1.085635 1.420284 -5.497221
C  0.000108 1.423560 -4.715820
C -2.477365 1.469690 -5.029242
N  1.085222 1.420284 -5.497221
H  1.385146 1.409430 -7.633368
H -1.385302 1.419096 -7.633214
H -0.000009 1.425307 -3.634731
C  2.478117 1.403392 -5.032123
H  2.490592 1.430737 -3.941870
H  2.967028 0.489946 -5.379299
H  3.001428 2.278875 -5.423595
H -2.857359 2.491761 -5.109201
H -3.082679 0.799606 -5.642306
H -2.518128 1.142706 -3.989294
--
# monomer B
0 1     # Charge and multiplicity
C   -3.66844126402057      7.80375217008252      0.00190004133558
C   -4.84759871934653      7.13124183134024     -0.00046653359696
C   -4.89495929917518      5.69633040353158     -0.00103944469517
C   -3.65374067877320      4.98073034095895      0.00662099703436
C   -2.40942512149445      7.11398103667468      0.00209438359570
C   -2.42547734410473      5.68112195090346     -0.00491050527438
C   -1.19474401643570      7.78614419430947      0.00356656413763
C   0.03795902893699      7.09942164575698      0.00139585983271
C   0.03033258741920      5.66948955970466     -0.00408752508301
C   -1.20098450790502      4.96927034791531      0.00488220885047
C   1.27795782581485      7.77285944319479      0.00277170839332
C   2.48535808472416      7.08769688523756      0.00049722048857
C   2.48612868491717      5.65477081024076     -0.00644052849921
C   1.25408291964399      4.95607811366431      0.00518741308898
C   3.75171459140595      7.76391215098033      0.00062407186893
C   4.92356605618520      7.07878077698995     -0.00143240883900
C   4.95560727132542      5.64344746336949     -0.00159282164606
C   3.70680153420475      4.94121020833308      0.00349873852374
H   -3.65852113775815      8.89082741913536      0.00358502958574
H   -1.18921332975660      8.87412108735996      0.00753844057883
H   1.28429423888630      8.86083343548850      0.00693053253426
H   3.75354208679975      8.85103527897216      0.00214659618464
H   5.86995870320703      7.61379483465560     -0.00235777588134
H   -5.78823170750226      7.67630221293400     -0.00202638095293
C   -6.09197395869619      4.99326001364347     -0.00291168518608
C   -6.12866148031747      3.58258016879823     -0.00171050815740
C   -3.66457974004527      3.56418217974434     -0.00463560277484
C   -4.89429820469869      2.86108077590057      0.00453338221034
C   -2.43733499489796      2.84761165708481      0.00719617576166
C   -1.20922785759670      3.54788693497833     -0.00648285103018
C   1.24714157216223      3.53468075142962     -0.00729145743546
C   0.01517603956900      2.83311183930540      0.00439272578912
C   2.46764517244071      2.82128997725533      0.00449278391269
C   3.70254947457969      3.52466015442405     -0.00899517692985
C   6.14498038638375      4.92757236613191     -0.00282626685777
C   6.16658835886151      3.51658447594213     -0.00065971342101
C   4.92460995845939      2.80840792535402      0.00587903281610
H   7.08990550964105      5.46688776622306     -0.00658814770723
H   -7.03104175110130      5.54268795285765     -0.00714490013730
C   -7.33969804112295      2.85841153457957     -0.00333767559888
C   -7.36488195805880      1.47032337158330     -0.00157213747140
C   -4.90350460894690      1.44442681216000     -0.00628840166334
C   -6.13225715261081      0.73993935705394      0.00600164231964
C   -3.67687480051673      0.72669714267312      0.00433931473643
C   -2.44565658606518      1.42964113326212     -0.00597039546461
C   -1.22360068130162      0.71532450163492      0.00545886906656
C   0.00763786931376      1.41738314923765      0.00392452278437
C   1.23121980774686      0.70211669058719     -0.01490206287210
C   2.46082110053113      1.40329203612573      0.00460244601878
C   3.68443025419614      0.68719842821222      0.00377365974158
C   4.91870890153864      1.39173456118907     -0.00862816189375
C   7.36980207796101      2.77948220318441     -0.00242013321349
C   7.38016266612146      1.39121750785509     -0.00087345036788
C   6.13979953912259      0.67411862320065      0.00545489144369
H   -8.27919079934664      3.40711804112415     -0.00763522772059
H   8.31511347147953      3.31811809662368     -0.00663070901292
C   -8.59175593758115      0.72483255304480     -0.00123170985383
C   -8.59902460370342     -0.63263980622873      0.00089141472904
C   -6.13981313911873     -0.67413663715361     -0.00609792660607
C   -7.38018411213749     -1.39126618958160      0.00131813493501
C   -4.91868448025621     -1.39175501803000      0.00624257154343
C   -3.68443829568458     -0.68723731573599     -0.00478966852105
C   -2.46081704024768     -1.40334517882457      0.00575341766833
C   -1.23116201232071     -0.70217386488055     -0.00636696112346
C   -0.00756962538737     -1.41741884941102      0.00108956317991
C   1.22364771588843     -0.71527537726392      0.01109518512883
C   2.44567064933149     -1.42964328900682     -0.00065482763106
C   3.67686670284649     -0.72670743155550     -0.00479541202602
C   6.13224884641929     -0.73997883984993     -0.00632338623858
C   4.90351914550401     -1.44445752054090      0.00751768830159
C   8.59901484869081      0.63260386666793     -0.00101133422380
C   8.59174548810050     -0.72485086719319      0.00072504603735
C   7.36486276438985     -1.47033266560598      0.00049486934466
H   -9.52830597181814      1.27684744919284     -0.00270163681798
H   9.54141097460619      1.17457248844457     -0.00206336648518
C   -7.36983790976868     -2.77954514593389      0.00312634335708
C   -4.92459910905015     -2.80843725734101     -0.00460528907921
C   -6.16662249566744     -3.51665219282533      0.00169655107992
C   -3.70251035970491     -3.52468154912026      0.00571878010666
C   -2.46764698511392     -2.82132596280400     -0.00632585824990
C   -0.01513347410770     -2.83314164539971     -0.00604426974092
C   -1.24712184122656     -3.53473217556300      0.00551968366725
C   1.20924506964357     -3.54791467864352      0.00805871345849
C   2.43733602215464     -2.84764173817541     -0.00608104485234
C   4.89430234377080     -2.86112296828604     -0.00526030478103
C   3.66461525504104     -3.56421984553201      0.00761911515957
C   6.12863901474565     -3.58258405771778      0.00096495711699
C   7.33967266469532     -2.85841330737039      0.00248018319869
H   -9.54144911125902     -1.17456346666430      0.00226083090216
H   9.52826186807155     -1.27691907390448      0.00197485379837
H   -8.31516504384864     -3.31814985321231      0.00729857188773
H   8.27915514249207     -3.40714078989363      0.00681973918158
C   -6.14499418870218     -4.92764727278338      0.00302254913999
C   -3.70678334799751     -4.94126171411716     -0.00679841894792
C   -4.95559005800169     -5.64349397349412      0.00116871569699
C   -2.48612132622665     -5.65478557440947      0.00614125209662
C   -1.25405833548005     -4.95612205000132     -0.00503435388927
C   1.20101257386816     -4.96928038819302     -0.00385322963129
C   -0.03033667441341     -5.66952030313900      0.00398997003238
C   3.65375010132847     -4.98074377541453     -0.00309522988330
C   2.42549269587528     -5.68117463552727      0.00628170066869
C   6.09196561781097     -4.99325796338655      0.00325918379042
C   4.89497644461045     -5.69634842095790      0.00202298796027
H   -7.08989238804069     -5.46699984223871      0.00742531082125
H   7.03105520920009     -5.54265853633254      0.00683896355417
C   -4.92354532219813     -7.07882109967734      0.00061394679214
C   -2.48534208823777     -7.08772807792913     -0.00189594564379
C   -3.75168589177895     -7.76394715763627     -0.00170126671874
C   -0.03794895698805     -7.09946487446944     -0.00168022049625
C   -1.27795610040136     -7.77290438466689     -0.00366491325785
C   2.40944432072629     -7.11402201200282     -0.00081701968533
C   1.19474993715296     -7.78618536556242     -0.00296931056689
C   4.84762105249800     -7.13126211057943      0.00168979497423
C   3.66847160587561     -7.80378799294376     -0.00065863938960
H   -5.86994035041618     -7.61383059804164      0.00215798365757
H   5.78824962538815     -7.67633218931421      0.00281691445618
H   -3.75352693944918     -8.85107156923607     -0.00353718114765
H   -1.28430440589466     -8.86087539249706     -0.00809229711623
H   1.18922157469537     -8.87416062058945     -0.00706194725726
H   3.65854661482387     -8.89086063405326     -0.00231318081200

    units angstrom      # Angstroms are the default
    no_reorient         # Geometry fixed, default
    symmetry c1         # C1 symmetry, default
}

set {
    scf_type DF         # Density fitting, faster than exact integrals
    freeze_core True    # Freeze core electrons
    basis jun-cc-pVDZ   # Jun-cc-pVDZ basis set, recommended for sSAPT0 in https://doi.org/10.1063/1.4867135
}

energy('ssapt0')        # Compute sSAPT0 energy, includes also SAPT0
--------------------------------------------------------------------------

  Memory set to  59.605 GiB by Python driver.

Scratch directory: /tmp/
   => Loading Basis Set <=

    Name: JUN-CC-PVDZ
    Role: ORBITAL
    Keyword: BASIS
    atoms 1-2, 4-5, 10, 17-34, 41-53, 56-70, 73-89, 92-104, 109-119, 122-130 entry C          line   164 file /opt/software/pc2/EB-SW/software/PSI4/1.9-foss-2022a/share/psi4/basis/jun-cc-pvdz.gbs 
    atoms 3, 6                                                               entry N          line   198 file /opt/software/pc2/EB-SW/software/PSI4/1.9-foss-2022a/share/psi4/basis/jun-cc-pvdz.gbs 
    atoms 7-9, 11-16, 35-40, 54-55, 71-72, 90-91, 105-108, 120-121, 131-136  entry H          line    36 file /opt/software/pc2/EB-SW/software/PSI4/1.9-foss-2022a/share/psi4/basis/jun-cc-pvdz.gbs 

   => Loading Basis Set <=

    Name: JUN-CC-PVDZ
    Role: ORBITAL
    Keyword: BASIS
    atoms 1-2, 4-5, 10, 17-34, 41-53, 56-70, 73-89, 92-104, 109-119, 122-130 entry C          line   164 file /opt/software/pc2/EB-SW/software/PSI4/1.9-foss-2022a/share/psi4/basis/jun-cc-pvdz.gbs 
    atoms 3, 6                                                               entry N          line   198 file /opt/software/pc2/EB-SW/software/PSI4/1.9-foss-2022a/share/psi4/basis/jun-cc-pvdz.gbs 
    atoms 7-9, 11-16, 35-40, 54-55, 71-72, 90-91, 105-108, 120-121, 131-136  entry H          line    36 file /opt/software/pc2/EB-SW/software/PSI4/1.9-foss-2022a/share/psi4/basis/jun-cc-pvdz.gbs 


  //>>>>>>>>>>>>>>>>>>>>>>>>>>>>>>>>>>>//
  //              Dimer HF             //
  //<<<<<<<<<<<<<<<<<<<<<<<<<<<<<<<<<<<//

   => Libint2 <=

    Primary   basis highest AM E, G, H:  5, 4, 3
    Auxiliary basis highest AM E, G, H:  6, 5, 4
    Onebody   basis highest AM E, G, H:  6, 5, 4
    Solid Harmonics ordering:            gaussian

*** tstart() called on n2cn1163
*** at Sat Jan 27 00:13:58 2024

   => Loading Basis Set <=

    Name: JUN-CC-PVDZ
    Role: ORBITAL
    Keyword: BASIS
    atoms 1-2, 4-5, 10, 17-34, 41-53, 56-70, 73-89, 92-104, 109-119, 122-130 entry C          line   164 file /opt/software/pc2/EB-SW/software/PSI4/1.9-foss-2022a/share/psi4/basis/jun-cc-pvdz.gbs 
    atoms 3, 6                                                               entry N          line   198 file /opt/software/pc2/EB-SW/software/PSI4/1.9-foss-2022a/share/psi4/basis/jun-cc-pvdz.gbs 
    atoms 7-9, 11-16, 35-40, 54-55, 71-72, 90-91, 105-108, 120-121, 131-136  entry H          line    36 file /opt/software/pc2/EB-SW/software/PSI4/1.9-foss-2022a/share/psi4/basis/jun-cc-pvdz.gbs 


         ---------------------------------------------------------
                                   SCF
               by Justin Turney, Rob Parrish, Andy Simmonett
                          and Daniel G. A. Smith
                              RHF Reference
                       16 Threads,  61035 MiB Core
         ---------------------------------------------------------

  ==> Geometry <==

    Molecular point group: c1
    Full point group: C1

    Geometry (in Angstrom), charge = 1, multiplicity = 1:

       Center              X                  Y                   Z               Mass       
    ------------   -----------------  -----------------  -----------------  -----------------
         C            0.680062820275     1.308604348936    -6.388978034514    12.000000000000
         C           -0.680508179725     1.310632348936    -6.388594034514    12.000000000000
         N           -1.085639179725     1.311630348936    -5.070270034514    14.003074004430
         C            0.000103820275     1.314906348936    -4.288869034514    12.000000000000
         C           -2.477369179725     1.361036348936    -4.602291034514    12.000000000000
         N            1.085217820275     1.311630348936    -5.070270034514    14.003074004430
         H            1.385141820275     1.300776348936    -7.206417034514     1.007825032230
         H           -1.385306179725     1.310442348936    -7.206263034514     1.007825032230
         H           -0.000013179725     1.316653348936    -3.207780034514     1.007825032230
         C            2.478112820275     1.294738348936    -4.605172034514    12.000000000000
         H            2.490587820275     1.322083348936    -3.514919034514     1.007825032230
         H            2.967023820275     0.381292348936    -4.952348034514     1.007825032230
         H            3.001423820275     2.170221348936    -4.996644034514     1.007825032230
         H           -2.857363179725     2.383107348936    -4.682250034514     1.007825032230
         H           -3.082683179725     0.690952348936    -5.215355034514     1.007825032230
         H           -2.518132179725     1.034052348936    -3.562343034514     1.007825032230
         C           -3.668445443746     7.695098519018     0.428851006822    12.000000000000
         C           -4.847602899072     7.022588180276     0.426484431889    12.000000000000
         C           -4.894963478901     5.587676752467     0.425911520791    12.000000000000
         C           -3.653744858499     4.872076689895     0.433571962521    12.000000000000
         C           -2.409429301220     7.005327385610     0.429045349082    12.000000000000
         C           -2.425481523830     5.572468299839     0.422040460212    12.000000000000
         C           -1.194748196161     7.677490543245     0.430517529624    12.000000000000
         C            0.037954849212     6.990767994693     0.428346825319    12.000000000000
         C            0.030328407694     5.560835908640     0.422863440403    12.000000000000
         C           -1.200988687630     4.860616696851     0.431833174337    12.000000000000
         C            1.277953646089     7.664205792130     0.429722673879    12.000000000000
         C            2.485353904999     6.979043234173     0.427448185975    12.000000000000
         C            2.486124505192     5.546117159176     0.420510436987    12.000000000000
         C            1.254078739919     4.847424462600     0.432138378575    12.000000000000
         C            3.751710411681     7.655258499916     0.427575037355    12.000000000000
         C            4.923561876460     6.970127125926     0.425518556647    12.000000000000
         C            4.955603091600     5.534793812305     0.425358143840    12.000000000000
         C            3.706797354479     4.832556557269     0.430449704010    12.000000000000
         H           -3.658525317484     8.782173768071     0.430535995072     1.007825032230
         H           -1.189217509482     8.765467436296     0.434489406065     1.007825032230
         H            1.284290059161     8.752179784424     0.433881498020     1.007825032230
         H            3.753537907074     8.742381627908     0.429097561671     1.007825032230
         H            5.869954523482     7.505141183591     0.424593189605     1.007825032230
         H           -5.788235887228     7.567648561870     0.424924584533     1.007825032230
         C           -6.091978138422     4.884606362579     0.424039280300    12.000000000000
         C           -6.128665660043     3.473926517734     0.425240457329    12.000000000000
         C           -3.664583919771     3.455528528680     0.422315362711    12.000000000000
         C           -4.894302384424     2.752427124836     0.431484347697    12.000000000000
         C           -2.437339174623     2.738958006020     0.434147141248    12.000000000000
         C           -1.209232037322     3.439233283914     0.420468114456    12.000000000000
         C            1.247137392437     3.426027100365     0.419659508051    12.000000000000
         C            0.015171859844     2.724458188241     0.431343691275    12.000000000000
         C            2.467640992715     2.712636326191     0.431443749399    12.000000000000
         C            3.702545294854     3.416006503360     0.417955788556    12.000000000000
         C            6.144976206658     4.818918715067     0.424124698628    12.000000000000
         C            6.166584179136     3.407930824878     0.426291252065    12.000000000000
         C            4.924605778734     2.699754274290     0.432829998302    12.000000000000
         H            7.089901329916     5.358234115159     0.420362817779     1.007825032230
         H           -7.031045930827     5.434034301793     0.419806065349     1.007825032230
         C           -7.339702220848     2.749757883515     0.423613289887    12.000000000000
         C           -7.364886137784     1.361669720519     0.425378828015    12.000000000000
         C           -4.903508788672     1.335773161096     0.420662563823    12.000000000000
         C           -6.132261332336     0.631285705989     0.432952607806    12.000000000000
         C           -3.676878980242     0.618043491609     0.431290280223    12.000000000000
         C           -2.445660765791     1.320987482198     0.420980570022    12.000000000000
         C           -1.223604861027     0.606670850570     0.432409834553    12.000000000000
         C            0.007633689588     1.308729498173     0.430875488271    12.000000000000
         C            1.231215628021     0.593463039523     0.412048902614    12.000000000000
         C            2.460816920806     1.294638385061     0.431553411505    12.000000000000
         C            3.684426074471     0.578544777148     0.430724625228    12.000000000000
         C            4.918704721813     1.283080910125     0.418322803592    12.000000000000
         C            7.369797898236     2.670828552120     0.424530832273    12.000000000000
         C            7.380158486396     1.282563856791     0.426077515118    12.000000000000
         C            6.139795359397     0.565464972136     0.432405856930    12.000000000000
         H           -8.279194979072     3.298464390060     0.419315737766     1.007825032230
         H            8.315109291754     3.209464445559     0.420320256473     1.007825032230
         C           -8.591760117307     0.616178901980     0.425719255632    12.000000000000
         C           -8.599028783429    -0.741293457293     0.427842380215    12.000000000000
         C           -6.139817318844    -0.782790288218     0.420853038880    12.000000000000
         C           -7.380188291863    -1.499919840646     0.428269100421    12.000000000000
         C           -4.918688659982    -1.500408669094     0.433193537030    12.000000000000
         C           -3.684442475410    -0.795890966800     0.422161296965    12.000000000000
         C           -2.460821219973    -1.511998829889     0.432704383154    12.000000000000
         C           -1.231166192046    -0.810827515945     0.420584004363    12.000000000000
         C           -0.007573805113    -1.526072500475     0.428040528666    12.000000000000
         C            1.223643536163    -0.823929028328     0.438046150615    12.000000000000
         C            2.445666469606    -1.538296940071     0.426296137855    12.000000000000
         C            3.676862523121    -0.835361082620     0.422155553460    12.000000000000
         C            6.132244666694    -0.848632490914     0.420627579248    12.000000000000
         C            4.903514965779    -1.553111171605     0.434468653788    12.000000000000
         C            8.599010668965     0.523950215603     0.425939631262    12.000000000000
         C            8.591741308375    -0.833504518258     0.427676011524    12.000000000000
         C            7.364858584664    -1.578986316670     0.427445834831    12.000000000000
         H           -9.528310151544     1.168193798128     0.424249328668     1.007825032230
         H            9.541406794881     1.065918837380     0.424887599001     1.007825032230
         C           -7.369842089494    -2.888198796998     0.430077308843    12.000000000000
         C           -4.924603288776    -2.917090908405     0.422345676407    12.000000000000
         C           -6.166626675393    -3.625305843890     0.428647516566    12.000000000000
         C           -3.702514539430    -3.633335200185     0.432669745593    12.000000000000
         C           -2.467651164839    -2.929979613868     0.420625107236    12.000000000000
         C           -0.015137653833    -2.941795296464     0.420906695745    12.000000000000
         C           -1.247126020952    -3.643385826627     0.432470649153    12.000000000000
         C            1.209240889918    -3.656568329708     0.435009678945    12.000000000000
         C            2.437331842429    -2.956295389240     0.420869920634    12.000000000000
         C            4.894298164045    -2.969776619350     0.421690660705    12.000000000000
         C            3.664611075316    -3.672873496596     0.434570080646    12.000000000000
         C            6.128634835020    -3.691237708782     0.427915922603    12.000000000000
         C            7.339668484970    -2.967066958435     0.429431148685    12.000000000000
         H           -9.541453290984    -1.283217117729     0.429211796388     1.007825032230
         H            9.528257688346    -1.385572724969     0.428925819285     1.007825032230
         H           -8.315169223574    -3.426803504277     0.434249537374     1.007825032230
         H            8.279150962767    -3.515794440958     0.433770704668     1.007825032230
         C           -6.144998368428    -5.036300923848     0.429973514626    12.000000000000
         C           -3.706787527723    -5.049915365182     0.420152546538    12.000000000000
         C           -4.955594237727    -5.752147624559     0.428119681183    12.000000000000
         C           -2.486125505952    -5.763439225474     0.433092217583    12.000000000000
         C           -1.254062515205    -5.064775701066     0.421916611597    12.000000000000
         C            1.201008394143    -5.077934039257     0.423097735855    12.000000000000
         C           -0.030340854139    -5.778173954203     0.430940935519    12.000000000000
         C            3.653745921603    -5.089397426479     0.423855735603    12.000000000000
         C            2.425488516150    -5.789828286592     0.433232666155    12.000000000000
         C            6.091961438086    -5.101911614451     0.430210149277    12.000000000000
         C            4.894972264885    -5.805002072022     0.428973953446    12.000000000000
         H           -7.089896567766    -5.575653493303     0.434376276307     1.007825032230
         H            7.031051029475    -5.651312187397     0.433789929040     1.007825032230
         C           -4.923549501924    -7.187474750742     0.427564912278    12.000000000000
         C           -2.485346267963    -7.196381728994     0.425055019842    12.000000000000
         C           -3.751690071504    -7.872600808701     0.425249698767    12.000000000000
         C           -0.037953136713    -7.208118525534     0.425270744990    12.000000000000
         C           -1.277960280127    -7.881558035731     0.423286052228    12.000000000000
         C            2.409440141001    -7.222675663067     0.426133945801    12.000000000000
         C            1.194745757428    -7.894839016627     0.423981654919    12.000000000000
         C            4.847616872773    -7.239915761644     0.428640760460    12.000000000000
         C            3.668467426150    -7.912441644008     0.426292326097    12.000000000000
         H           -5.869944530142    -7.722484249106     0.429108949144     1.007825032230
         H            5.788245445663    -7.784985840379     0.429767879942     1.007825032230
         H           -3.753531119175    -8.959725220301     0.423413784339     1.007825032230
         H           -1.284308585620    -8.969529043562     0.418858668370     1.007825032230
         H            1.189217394970    -8.982814271654     0.419889018229     1.007825032230
         H            3.658542435098    -8.999514285118     0.424637784674     1.007825032230

  Running in c1 symmetry.

  Rotational constants: A =      0.00063  B =      0.00062  C =      0.00035 [cm^-1]
  Rotational constants: A =     18.73946  B =     18.71828  C =     10.47417 [MHz]
  Nuclear repulsion = 17963.685411906837544

  Charge       = 1
  Multiplicity = 1
  Electrons    = 652
  Nalpha       = 326
  Nbeta        = 326

  ==> Algorithm <==

  SCF Algorithm Type is DF.
  DIIS enabled.
  MOM disabled.
  Fractional occupation disabled.
  Guess Type is SAD.
  Energy threshold   = 1.00e-08
  Density threshold  = 1.00e-08
  Integral threshold = 1.00e-12

  ==> Primary Basis <==

  Basis Set: JUN-CC-PVDZ
    Blend: JUN-CC-PVDZ
    Number of shells: 923
    Number of basis functions: 2019
    Number of Cartesian functions: 2122
    Spherical Harmonics?: true
    Max angular momentum: 2

   => Loading Basis Set <=

    Name: (JUN-CC-PVDZ AUX)
    Role: JKFIT
    Keyword: DF_BASIS_SCF
    atoms 1-2, 4-5, 10, 17-34, 41-53, 56-70, 73-89, 92-104, 109-119, 122-130 entry C          line   146 file /opt/software/pc2/EB-SW/software/PSI4/1.9-foss-2022a/share/psi4/basis/jun-cc-pvdz-jkfit.gbs 
    atoms 3, 6                                                               entry N          line   202 file /opt/software/pc2/EB-SW/software/PSI4/1.9-foss-2022a/share/psi4/basis/jun-cc-pvdz-jkfit.gbs 
    atoms 7-9, 11-16, 35-40, 54-55, 71-72, 90-91, 105-108, 120-121, 131-136  entry H          line    70 file /opt/software/pc2/EB-SW/software/PSI4/1.9-foss-2022a/share/psi4/basis/jun-cc-pvdz-jkfit.gbs 

  ==> Integral Setup <==

  ==> DiskDFJK: Density-Fitted J/K Matrices <==

    J tasked:                  Yes
    K tasked:                  Yes
    wK tasked:                  No
    OpenMP threads:             16
    Integrals threads:          16
    Memory [MiB]:            45776
    Algorithm:                Disk
    Integral Cache:           SAVE
    Schwarz Cutoff:          1E-12
    Fitting Condition:       1E-10

   => Auxiliary Basis Set <=

  Basis Set: (JUN-CC-PVDZ AUX)
    Blend: JUN-CC-PVDZ-JKFIT
    Number of shells: 3078
    Number of basis functions: 8896
    Number of Cartesian functions: 10198
    Spherical Harmonics?: true
    Max angular momentum: 3

  Minimum eigenvalue in the overlap matrix is 8.6868110734E-11.
  Reciprocal condition number of the overlap matrix is 3.7557109038E-12.
    Using canonical orthogonalization.
  Overall, 38 of 2019 possible MOs eliminated.


  ==> Pre-Iterations <==

  SCF Guess: Superposition of Atomic Densities via on-the-fly atomic UHF (no occupation information).

   -------------------------
    Irrep   Nso     Nmo    
   -------------------------
     A       2019    1981 
   -------------------------
    Total    2019    1981
   -------------------------

  ==> Iterations <==

                           Total Energy        Delta E     RMS |[F,P]|

   @DF-RHF iter SAD: -3967.15962552753490   -3.96716e+03   0.00000e+00 
   @DF-RHF iter   1: -3952.11421131529096    1.50454e+01   7.15547e-04 DIIS/ADIIS
   @DF-RHF iter   2: -3953.50204862245346   -1.38784e+00   2.35933e-04 DIIS/ADIIS
   @DF-RHF iter   3: -3953.62465956976985   -1.22611e-01   1.06536e-04 DIIS/ADIIS
   @DF-RHF iter   4: -3953.64908032996482   -2.44208e-02   4.56004e-05 DIIS
   @DF-RHF iter   5: -3953.65441758909583   -5.33726e-03   1.11889e-05 DIIS
   @DF-RHF iter   6: -3953.65490866856680   -4.91079e-04   4.63977e-06 DIIS
   @DF-RHF iter   7: -3953.65509930851249   -1.90640e-04   2.22003e-06 DIIS
   @DF-RHF iter   8: -3953.65516293909513   -6.36306e-05   1.10351e-06 DIIS
   @DF-RHF iter   9: -3953.65518062010187   -1.76810e-05   3.57279e-07 DIIS
   @DF-RHF iter  10: -3953.65518181864900   -1.19855e-06   1.45357e-07 DIIS
   @DF-RHF iter  11: -3953.65518196903486   -1.50386e-07   5.92481e-08 DIIS
   @DF-RHF iter  12: -3953.65518200119095   -3.21561e-08   2.96743e-08 DIIS
   @DF-RHF iter  13: -3953.65518200843871   -7.24776e-09   9.72068e-09 DIIS
  Energy and wave function converged.


  ==> Post-Iterations <==

    Orbital Energies [Eh]
    ---------------------

    Doubly Occupied:                                                      

       1A    -15.810443     2A    -15.809946     3A    -11.504652  
       4A    -11.438119     5A    -11.436563     6A    -11.425036  
       7A    -11.424974     8A    -11.331857     9A    -11.330535  
      10A    -11.330459    11A    -11.330031    12A    -11.329319  
      13A    -11.329205    14A    -11.328604    15A    -11.328505  
      16A    -11.328388    17A    -11.328143    18A    -11.327654  
      19A    -11.327537    20A    -11.326971    21A    -11.326732  
      22A    -11.326646    23A    -11.326256    24A    -11.326189  
      25A    -11.325256    26A    -11.325228    27A    -11.325107  
      28A    -11.325064    29A    -11.324895    30A    -11.324591  
      31A    -11.324581    32A    -11.323757    33A    -11.323603  
      34A    -11.323480    35A    -11.323466    36A    -11.322719  
      37A    -11.322570    38A    -11.322546    39A    -11.322255  
      40A    -11.322248    41A    -11.321824    42A    -11.321793  
      43A    -11.321783    44A    -11.321752    45A    -11.321529  
      46A    -11.321391    47A    -11.321359    48A    -11.320783  
      49A    -11.320754    50A    -11.320585    51A    -11.320568  
      52A    -11.320486    53A    -11.320448    54A    -11.320317  
      55A    -11.320293    56A    -11.320248    57A    -11.320216  
      58A    -11.319547    59A    -11.319516    60A    -11.319482  
      61A    -11.319367    62A    -11.319035    63A    -11.319000  
      64A    -11.318944    65A    -11.318914    66A    -11.317876  
      67A    -11.317855    68A    -11.317833    69A    -11.317795  
      70A    -11.317706    71A    -11.317683    72A    -11.317487  
      73A    -11.316940    74A    -11.316917    75A    -11.316366  
      76A    -11.316342    77A    -11.316250    78A    -11.315692  
      79A    -11.315686    80A    -11.313194    81A    -11.313118  
      82A    -11.313069    83A    -11.313035    84A    -11.311806  
      85A    -11.311753    86A    -11.311389    87A    -11.311349  
      88A    -11.310934    89A    -11.310914    90A    -11.309911  
      91A    -11.309871    92A    -11.309542    93A    -11.309502  
      94A    -11.309283    95A    -11.309271    96A    -11.308899  
      97A    -11.308816    98A    -11.307965    99A    -11.307925  
     100A    -11.306891   101A    -11.306883   102A    -11.305391  
     103A    -11.305386   104A     -1.554407   105A     -1.409819  
     106A     -1.318164   107A     -1.300960   108A     -1.300546  
     109A     -1.280852   110A     -1.280840   111A     -1.277543  
     112A     -1.260264   113A     -1.255435   114A     -1.249887  
     115A     -1.249639   116A     -1.232666   117A     -1.232657  
     118A     -1.216756   119A     -1.216712   120A     -1.215400  
     121A     -1.214162   122A     -1.203257   123A     -1.203231  
     124A     -1.188566   125A     -1.175679   126A     -1.173761  
     127A     -1.173526   128A     -1.171576   129A     -1.169787  
     130A     -1.165082   131A     -1.148266   132A     -1.148207  
     133A     -1.135224   134A     -1.135209   135A     -1.128129  
     136A     -1.128036   137A     -1.125936   138A     -1.106152  
     139A     -1.106110   140A     -1.099904   141A     -1.096958  
     142A     -1.096950   143A     -1.094655   144A     -1.086430  
     145A     -1.083612   146A     -1.083487   147A     -1.066901  
     148A     -1.065920   149A     -1.062888   150A     -1.060800  
     151A     -1.060762   152A     -1.048867   153A     -1.030849  
     154A     -1.030787   155A     -1.014490   156A     -1.014445  
     157A     -0.999305   158A     -0.972745   159A     -0.967488  
     160A     -0.967355   161A     -0.966625   162A     -0.963225  
     163A     -0.963188   164A     -0.953941   165A     -0.953934  
     166A     -0.951471   167A     -0.950979   168A     -0.949270  
     169A     -0.930441   170A     -0.925860   171A     -0.910593  
     172A     -0.908660   173A     -0.908342   174A     -0.906038  
     175A     -0.902946   176A     -0.893656   177A     -0.893596  
     178A     -0.892986   179A     -0.885796   180A     -0.885776  
     181A     -0.845329   182A     -0.845192   183A     -0.843182  
     184A     -0.842096   185A     -0.841699   186A     -0.841128  
     187A     -0.840792   188A     -0.826656   189A     -0.826632  
     190A     -0.822007   191A     -0.810632   192A     -0.793319  
     193A     -0.791589   194A     -0.788043   195A     -0.786584  
     196A     -0.786363   197A     -0.784664   198A     -0.784001  
     199A     -0.783857   200A     -0.779022   201A     -0.773984  
     202A     -0.773954   203A     -0.766746   204A     -0.762240  
     205A     -0.759349   206A     -0.758080   207A     -0.758076  
     208A     -0.746569   209A     -0.744507   210A     -0.744476  
     211A     -0.741114   212A     -0.741106   213A     -0.738139  
     214A     -0.711901   215A     -0.710471   216A     -0.710446  
     217A     -0.709430   218A     -0.709293   219A     -0.707709  
     220A     -0.704932   221A     -0.701127   222A     -0.701115  
     223A     -0.701003   224A     -0.698804   225A     -0.697677  
     226A     -0.695574   227A     -0.695544   228A     -0.693271  
     229A     -0.688259   230A     -0.682977   231A     -0.673169  
     232A     -0.673135   233A     -0.667649   234A     -0.667603  
     235A     -0.661531   236A     -0.660929   237A     -0.659139  
     238A     -0.659061   239A     -0.658712   240A     -0.657896  
     241A     -0.653948   242A     -0.653751   243A     -0.653681  
     244A     -0.653553   245A     -0.650253   246A     -0.650202  
     247A     -0.648289   248A     -0.636130   249A     -0.636116  
     250A     -0.634771   251A     -0.634760   252A     -0.632339  
     253A     -0.632202   254A     -0.628606   255A     -0.628476  
     256A     -0.625264   257A     -0.625076   258A     -0.618138  
     259A     -0.618102   260A     -0.617734   261A     -0.615721  
     262A     -0.613384   263A     -0.609613   264A     -0.604077  
     265A     -0.603998   266A     -0.597295   267A     -0.596948  
     268A     -0.592281   269A     -0.592106   270A     -0.588317  
     271A     -0.586342   272A     -0.586306   273A     -0.576447  
     274A     -0.576314   275A     -0.573982   276A     -0.573963  
     277A     -0.572821   278A     -0.567601   279A     -0.567493  
     280A     -0.556879   281A     -0.555629   282A     -0.555582  
     283A     -0.555107   284A     -0.555068   285A     -0.551455  
     286A     -0.539389   287A     -0.535577   288A     -0.535545  
     289A     -0.532522   290A     -0.529534   291A     -0.525875  
     292A     -0.525727   293A     -0.518807   294A     -0.507819  
     295A     -0.507648   296A     -0.502502   297A     -0.502346  
     298A     -0.502075   299A     -0.501445   300A     -0.492375  
     301A     -0.491899   302A     -0.467291   303A     -0.467220  
     304A     -0.447347   305A     -0.447246   306A     -0.445189  
     307A     -0.443412   308A     -0.443347   309A     -0.413750  
     310A     -0.413692   311A     -0.410264   312A     -0.401286  
     313A     -0.399439   314A     -0.399304   315A     -0.390360  
     316A     -0.390275   317A     -0.368113   318A     -0.363174  
     319A     -0.363112   320A     -0.359676   321A     -0.344937  
     322A     -0.314335   323A     -0.314286   324A     -0.313066  
     325A     -0.263397   326A     -0.263267  

    Virtual:                                                              

     327A     -0.070736   328A     -0.070563   329A     -0.044187  
     330A     -0.042934   331A     -0.035423   332A     -0.025857  
     333A     -0.025750   334A     -0.024241   335A     -0.016725  
     336A     -0.013814   337A     -0.011361   338A     -0.008134  
     339A     -0.003280   340A     -0.000533   341A      0.000951  
     342A      0.002226   343A      0.002958   344A      0.006228  
     345A      0.006707   346A      0.007084   347A      0.009225  
     348A      0.009370   349A      0.009881   350A      0.010480  
     351A      0.013823   352A      0.014786   353A      0.014882  
     354A      0.016750   355A      0.016901   356A      0.018732  
     357A      0.019183   358A      0.021270   359A      0.021892  
     360A      0.024050   361A      0.025570   362A      0.026073  
     363A      0.028081   364A      0.028143   365A      0.031404  
     366A      0.032794   367A      0.037429   368A      0.038162  
     369A      0.038233   370A      0.038462   371A      0.042216  
     372A      0.042871   373A      0.043709   374A      0.045580  
     375A      0.048235   376A      0.048680   377A      0.049889  
     378A      0.051885   379A      0.053250   380A      0.054972  
     381A      0.055103   382A      0.055735   383A      0.056364  
     384A      0.056982   385A      0.057656   386A      0.057944  
     387A      0.058674   388A      0.059056   389A      0.059881  
     390A      0.064353   391A      0.065535   392A      0.067626  
     393A      0.068736   394A      0.069995   395A      0.070852  
     396A      0.072408   397A      0.075637   398A      0.076018  
     399A      0.079677   400A      0.079835   401A      0.082845  
     402A      0.083155   403A      0.083833   404A      0.084600  
     405A      0.086079   406A      0.088221   407A      0.088532  
     408A      0.089831   409A      0.090351   410A      0.091566  
     411A      0.093187   412A      0.093743   413A      0.094073  
     414A      0.097192   415A      0.097306   416A      0.100420  
     417A      0.102610   418A      0.106961   419A      0.107831  
     420A      0.108766   421A      0.108892   422A      0.109462  
     423A      0.110064   424A      0.111050   425A      0.111423  
     426A      0.111647   427A      0.114112   428A      0.114653  
     429A      0.115864   430A      0.116876   431A      0.118016  
     432A      0.118349   433A      0.121005   434A      0.121736  
     435A      0.123429   436A      0.127436   437A      0.128463  
     438A      0.129827   439A      0.130441   440A      0.130612  
     441A      0.132941   442A      0.134254   443A      0.135237  
     444A      0.135550   445A      0.138524   446A      0.138597  
     447A      0.139367   448A      0.143316   449A      0.145377  
     450A      0.147767   451A      0.148520   452A      0.149125  
     453A      0.149749   454A      0.150120   455A      0.150606  
     456A      0.151743   457A      0.152350   458A      0.153164  
     459A      0.153291   460A      0.153999   461A      0.154578  
     462A      0.155546   463A      0.156263   464A      0.157156  
     465A      0.157665   466A      0.159193   467A      0.160238  
     468A      0.160784   469A      0.161575   470A      0.162683  
     471A      0.163604   472A      0.164682   473A      0.166070  
     474A      0.168747   475A      0.168923   476A      0.169292  
     477A      0.169668   478A      0.170227   479A      0.172052  
     480A      0.172656   481A      0.173694   482A      0.174412  
     483A      0.175906   484A      0.176832   485A      0.177520  
     486A      0.177941   487A      0.178649   488A      0.179642  
     489A      0.181414   490A      0.183435   491A      0.184095  
     492A      0.184640   493A      0.185027   494A      0.187143  
     495A      0.187964   496A      0.189362   497A      0.189715  
     498A      0.191551   499A      0.193251   500A      0.193587  
     501A      0.195042   502A      0.195236   503A      0.197761  
     504A      0.197983   505A      0.198640   506A      0.200202  
     507A      0.201136   508A      0.202487   509A      0.203566  
     510A      0.206105   511A      0.206399   512A      0.206994  
     513A      0.208826   514A      0.210320   515A      0.210971  
     516A      0.211428   517A      0.211708   518A      0.213406  
     519A      0.214962   520A      0.215269   521A      0.215553  
     522A      0.218157   523A      0.218377   524A      0.219507  
     525A      0.222238   526A      0.223029   527A      0.223538  
     528A      0.223653   529A      0.224863   530A      0.227070  
     531A      0.227526   532A      0.228055   533A      0.229341  
     534A      0.231052   535A      0.231888   536A      0.232812  
     537A      0.233070   538A      0.234221   539A      0.235261  
     540A      0.235895   541A      0.238117   542A      0.238769  
     543A      0.239414   544A      0.240728   545A      0.241531  
     546A      0.243302   547A      0.244296   548A      0.246237  
     549A      0.246564   550A      0.248834   551A      0.249244  
     552A      0.249923   553A      0.251116   554A      0.251564  
     555A      0.251854   556A      0.252557   557A      0.253290  
     558A      0.254875   559A      0.256017   560A      0.256913  
     561A      0.257724   562A      0.259630   563A      0.260737  
     564A      0.261993   565A      0.262708   566A      0.263294  
     567A      0.264997   568A      0.265692   569A      0.265956  
     570A      0.266320   571A      0.266486   572A      0.267086  
     573A      0.268848   574A      0.269328   575A      0.270832  
     576A      0.271484   577A      0.272914   578A      0.273514  
     579A      0.275265   580A      0.275917   581A      0.276999  
     582A      0.277180   583A      0.277360   584A      0.278402  
     585A      0.279544   586A      0.280682   587A      0.281103  
     588A      0.282286   589A      0.283949   590A      0.286147  
     591A      0.286740   592A      0.287874   593A      0.288628  
     594A      0.289882   595A      0.290404   596A      0.290886  
     597A      0.291891   598A      0.292528   599A      0.293388  
     600A      0.293671   601A      0.294886   602A      0.296862  
     603A      0.297634   604A      0.298153   605A      0.298925  
     606A      0.300803   607A      0.302147   608A      0.303524  
     609A      0.303698   610A      0.305332   611A      0.306216  
     612A      0.306385   613A      0.307917   614A      0.309457  
     615A      0.310820   616A      0.312125   617A      0.312313  
     618A      0.313264   619A      0.314712   620A      0.314954  
     621A      0.315425   622A      0.318009   623A      0.320570  
     624A      0.322616   625A      0.322917   626A      0.323624  
     627A      0.324309   628A      0.324511   629A      0.326266  
     630A      0.326894   631A      0.328052   632A      0.328353  
     633A      0.329132   634A      0.330157   635A      0.331277  
     636A      0.334176   637A      0.334412   638A      0.334975  
     639A      0.336140   640A      0.336850   641A      0.337811  
     642A      0.338028   643A      0.338921   644A      0.339842  
     645A      0.340842   646A      0.341231   647A      0.341528  
     648A      0.342956   649A      0.343335   650A      0.344487  
     651A      0.345707   652A      0.345920   653A      0.347187  
     654A      0.347590   655A      0.348048   656A      0.348469  
     657A      0.348938   658A      0.349663   659A      0.350901  
     660A      0.351710   661A      0.352339   662A      0.352937  
     663A      0.352956   664A      0.354586   665A      0.355294  
     666A      0.356261   667A      0.357524   668A      0.358670  
     669A      0.359414   670A      0.359883   671A      0.360008  
     672A      0.361642   673A      0.362375   674A      0.363021  
     675A      0.363559   676A      0.365581   677A      0.367117  
     678A      0.368596   679A      0.368880   680A      0.370373  
     681A      0.373052   682A      0.373360   683A      0.373590  
     684A      0.374177   685A      0.375123   686A      0.375595  
     687A      0.375935   688A      0.377450   689A      0.379403  
     690A      0.380179   691A      0.381183   692A      0.381755  
     693A      0.382457   694A      0.383338   695A      0.384558  
     696A      0.386150   697A      0.389516   698A      0.391989  
     699A      0.393257   700A      0.394139   701A      0.394665  
     702A      0.395643   703A      0.396238   704A      0.397760  
     705A      0.398288   706A      0.398752   707A      0.399075  
     708A      0.399663   709A      0.400506   710A      0.401112  
     711A      0.401507   712A      0.403530   713A      0.405035  
     714A      0.406315   715A      0.407717   716A      0.408333  
     717A      0.408599   718A      0.409204   719A      0.409667  
     720A      0.410025   721A      0.412125   722A      0.412882  
     723A      0.414553   724A      0.415167   725A      0.416152  
     726A      0.417420   727A      0.417447   728A      0.418393  
     729A      0.418823   730A      0.419583   731A      0.419916  
     732A      0.421138   733A      0.422065   734A      0.423990  
     735A      0.425718   736A      0.427872   737A      0.428913  
     738A      0.430800   739A      0.431234   740A      0.431844  
     741A      0.432863   742A      0.434451   743A      0.436072  
     744A      0.436591   745A      0.438341   746A      0.439005  
     747A      0.440476   748A      0.441394   749A      0.442743  
     750A      0.445265   751A      0.445654   752A      0.446978  
     753A      0.447935   754A      0.448554   755A      0.449397  
     756A      0.451376   757A      0.451852   758A      0.453883  
     759A      0.454220   760A      0.455207   761A      0.457767  
     762A      0.458487   763A      0.459749   764A      0.460019  
     765A      0.461996   766A      0.462657   767A      0.463678  
     768A      0.464473   769A      0.466844   770A      0.467921  
     771A      0.468896   772A      0.471951   773A      0.474475  
     774A      0.474652   775A      0.474861   776A      0.477334  
     777A      0.478781   778A      0.481369   779A      0.482674  
     780A      0.483729   781A      0.484401   782A      0.484725  
     783A      0.490127   784A      0.491250   785A      0.498581  
     786A      0.498828   787A      0.500777   788A      0.502949  
     789A      0.504294   790A      0.504718   791A      0.505968  
     792A      0.507756   793A      0.508765   794A      0.509902  
     795A      0.510967   796A      0.512240   797A      0.512780  
     798A      0.514716   799A      0.515358   800A      0.517242  
     801A      0.518049   802A      0.518939   803A      0.520616  
     804A      0.521383   805A      0.522661   806A      0.524070  
     807A      0.525935   808A      0.527173   809A      0.529150  
     810A      0.530963   811A      0.532101   812A      0.532927  
     813A      0.533656   814A      0.534374   815A      0.534746  
     816A      0.538703   817A      0.539850   818A      0.541067  
     819A      0.545442   820A      0.545635   821A      0.546818  
     822A      0.547176   823A      0.548125   824A      0.548423  
     825A      0.556156   826A      0.558128   827A      0.560538  
     828A      0.561977   829A      0.562887   830A      0.564278  
     831A      0.569432   832A      0.571019   833A      0.572833  
     834A      0.573267   835A      0.576948   836A      0.581477  
     837A      0.582967   838A      0.587886   839A      0.590494  
     840A      0.593776   841A      0.597263   842A      0.597966  
     843A      0.599110   844A      0.601614   845A      0.602066  
     846A      0.602403   847A      0.607299   848A      0.607706  
     849A      0.608183   850A      0.612587   851A      0.621575  
     852A      0.625562   853A      0.626705   854A      0.626882  
     855A      0.628629   856A      0.631399   857A      0.632683  
     858A      0.633149   859A      0.634043   860A      0.636617  
     861A      0.640759   862A      0.641431   863A      0.641782  
     864A      0.644075   865A      0.647529   866A      0.647824  
     867A      0.651046   868A      0.654507   869A      0.662124  
     870A      0.665674   871A      0.669693   872A      0.674250  
     873A      0.675969   874A      0.679405   875A      0.682335  
     876A      0.682943   877A      0.684377   878A      0.685174  
     879A      0.686522   880A      0.687542   881A      0.691639  
     882A      0.691908   883A      0.694672   884A      0.696978  
     885A      0.709752   886A      0.711726   887A      0.716639  
     888A      0.723760   889A      0.724587   890A      0.729794  
     891A      0.730422   892A      0.731241   893A      0.732358  
     894A      0.734231   895A      0.736292   896A      0.736520  
     897A      0.738782   898A      0.744366   899A      0.745591  
     900A      0.747308   901A      0.749672   902A      0.750110  
     903A      0.753060   904A      0.753325   905A      0.755953  
     906A      0.756775   907A      0.758232   908A      0.759413  
     909A      0.762178   910A      0.763235   911A      0.764419  
     912A      0.765618   913A      0.769217   914A      0.770378  
     915A      0.771322   916A      0.772787   917A      0.774069  
     918A      0.776662   919A      0.778029   920A      0.779280  
     921A      0.782614   922A      0.785226   923A      0.785746  
     924A      0.788915   925A      0.790600   926A      0.792008  
     927A      0.792676   928A      0.796292   929A      0.797070  
     930A      0.798691   931A      0.800577   932A      0.803716  
     933A      0.804926   934A      0.805806   935A      0.807475  
     936A      0.809625   937A      0.812124   938A      0.812834  
     939A      0.814620   940A      0.816789   941A      0.818111  
     942A      0.818894   943A      0.819684   944A      0.820552  
     945A      0.822160   946A      0.823832   947A      0.825714  
     948A      0.827915   949A      0.829411   950A      0.831091  
     951A      0.832084   952A      0.832494   953A      0.833758  
     954A      0.834803   955A      0.836674   956A      0.836948  
     957A      0.839249   958A      0.841555   959A      0.843257  
     960A      0.844260   961A      0.845152   962A      0.848975  
     963A      0.850510   964A      0.850711   965A      0.852660  
     966A      0.857542   967A      0.858772   968A      0.860099  
     969A      0.861052   970A      0.863004   971A      0.863771  
     972A      0.864239   973A      0.865658   974A      0.866231  
     975A      0.868212   976A      0.869207   977A      0.870409  
     978A      0.872342   979A      0.874584   980A      0.875739  
     981A      0.876536   982A      0.876982   983A      0.877785  
     984A      0.878810   985A      0.880173   986A      0.882386  
     987A      0.887750   988A      0.889030   989A      0.891050  
     990A      0.892166   991A      0.894229   992A      0.895035  
     993A      0.895528   994A      0.896625   995A      0.896712  
     996A      0.897360   997A      0.897945   998A      0.899742  
     999A      0.900853  1000A      0.901359  1001A      0.901435  
    1002A      0.908317  1003A      0.908965  1004A      0.909989  
    1005A      0.912940  1006A      0.914223  1007A      0.915655  
    1008A      0.917523  1009A      0.920609  1010A      0.926129  
    1011A      0.927553  1012A      0.928582  1013A      0.930066  
    1014A      0.933541  1015A      0.935720  1016A      0.936903  
    1017A      0.937670  1018A      0.939668  1019A      0.941433  
    1020A      0.944921  1021A      0.946123  1022A      0.947035  
    1023A      0.948099  1024A      0.949712  1025A      0.950911  
    1026A      0.951196  1027A      0.953515  1028A      0.956093  
    1029A      0.958666  1030A      0.959699  1031A      0.961046  
    1032A      0.963031  1033A      0.964221  1034A      0.965899  
    1035A      0.966523  1036A      0.967094  1037A      0.972442  
    1038A      0.973764  1039A      0.974152  1040A      0.975931  
    1041A      0.979014  1042A      0.980415  1043A      0.980701  
    1044A      0.984901  1045A      0.986575  1046A      0.987688  
    1047A      0.988303  1048A      0.989808  1049A      0.990364  
    1050A      0.991171  1051A      0.991624  1052A      0.993495  
    1053A      0.994055  1054A      0.995028  1055A      0.995737  
    1056A      0.997857  1057A      0.998178  1058A      1.000692  
    1059A      1.001157  1060A      1.004586  1061A      1.005116  
    1062A      1.005444  1063A      1.007285  1064A      1.007744  
    1065A      1.008690  1066A      1.009433  1067A      1.010752  
    1068A      1.011619  1069A      1.012634  1070A      1.013665  
    1071A      1.014070  1072A      1.014305  1073A      1.014486  
    1074A      1.015689  1075A      1.016398  1076A      1.017108  
    1077A      1.018218  1078A      1.018964  1079A      1.019567  
    1080A      1.019953  1081A      1.020069  1082A      1.020725  
    1083A      1.021353  1084A      1.023393  1085A      1.024645  
    1086A      1.025654  1087A      1.026414  1088A      1.027206  
    1089A      1.028194  1090A      1.029671  1091A      1.030002  
    1092A      1.030927  1093A      1.031726  1094A      1.033276  
    1095A      1.033530  1096A      1.034472  1097A      1.035120  
    1098A      1.036389  1099A      1.038503  1100A      1.039400  
    1101A      1.041039  1102A      1.042486  1103A      1.043643  
    1104A      1.044991  1105A      1.045322  1106A      1.047343  
    1107A      1.049335  1108A      1.050983  1109A      1.053225  
    1110A      1.053357  1111A      1.054073  1112A      1.057215  
    1113A      1.059507  1114A      1.059817  1115A      1.061094  
    1116A      1.062173  1117A      1.064905  1118A      1.065979  
    1119A      1.069180  1120A      1.069504  1121A      1.072415  
    1122A      1.073820  1123A      1.074780  1124A      1.075475  
    1125A      1.076400  1126A      1.078803  1127A      1.079891  
    1128A      1.082432  1129A      1.084988  1130A      1.085226  
    1131A      1.086642  1132A      1.087403  1133A      1.089944  
    1134A      1.090477  1135A      1.090884  1136A      1.092585  
    1137A      1.093199  1138A      1.094685  1139A      1.096548  
    1140A      1.098941  1141A      1.099197  1142A      1.099987  
    1143A      1.104024  1144A      1.106166  1145A      1.108450  
    1146A      1.110338  1147A      1.111987  1148A      1.116219  
    1149A      1.118593  1150A      1.120671  1151A      1.122587  
    1152A      1.125896  1153A      1.127073  1154A      1.128585  
    1155A      1.130183  1156A      1.133671  1157A      1.134635  
    1158A      1.135833  1159A      1.139568  1160A      1.143415  
    1161A      1.143890  1162A      1.145421  1163A      1.146798  
    1164A      1.148797  1165A      1.151635  1166A      1.152292  
    1167A      1.154047  1168A      1.157122  1169A      1.158825  
    1170A      1.160032  1171A      1.161389  1172A      1.163791  
    1173A      1.165441  1174A      1.166395  1175A      1.169470  
    1176A      1.169917  1177A      1.172263  1178A      1.174398  
    1179A      1.176092  1180A      1.178635  1181A      1.181263  
    1182A      1.187364  1183A      1.187803  1184A      1.191229  
    1185A      1.194189  1186A      1.194895  1187A      1.197758  
    1188A      1.199092  1189A      1.203952  1190A      1.205199  
    1191A      1.206117  1192A      1.207744  1193A      1.210530  
    1194A      1.211385  1195A      1.215280  1196A      1.217570  
    1197A      1.219273  1198A      1.221510  1199A      1.228567  
    1200A      1.229323  1201A      1.232311  1202A      1.233588  
    1203A      1.236208  1204A      1.237281  1205A      1.237573  
    1206A      1.240083  1207A      1.241526  1208A      1.245303  
    1209A      1.247057  1210A      1.248778  1211A      1.249282  
    1212A      1.250539  1213A      1.252320  1214A      1.255978  
    1215A      1.256986  1216A      1.258527  1217A      1.261753  
    1218A      1.262310  1219A      1.264218  1220A      1.264569  
    1221A      1.264919  1222A      1.270192  1223A      1.270407  
    1224A      1.271778  1225A      1.274412  1226A      1.275413  
    1227A      1.278478  1228A      1.279489  1229A      1.281498  
    1230A      1.281692  1231A      1.285578  1232A      1.286179  
    1233A      1.292222  1234A      1.294381  1235A      1.294965  
    1236A      1.296867  1237A      1.296929  1238A      1.301310  
    1239A      1.304227  1240A      1.304935  1241A      1.306763  
    1242A      1.307093  1243A      1.312679  1244A      1.313868  
    1245A      1.316702  1246A      1.317580  1247A      1.318491  
    1248A      1.321478  1249A      1.328749  1250A      1.332454  
    1251A      1.332755  1252A      1.337807  1253A      1.338524  
    1254A      1.339151  1255A      1.339418  1256A      1.346205  
    1257A      1.347728  1258A      1.349452  1259A      1.350037  
    1260A      1.352635  1261A      1.354196  1262A      1.355084  
    1263A      1.356706  1264A      1.357280  1265A      1.360649  
    1266A      1.363375  1267A      1.363983  1268A      1.366570  
    1269A      1.367532  1270A      1.369107  1271A      1.370042  
    1272A      1.370646  1273A      1.371812  1274A      1.373387  
    1275A      1.376030  1276A      1.378708  1277A      1.379567  
    1278A      1.381502  1279A      1.382649  1280A      1.382836  
    1281A      1.384812  1282A      1.387272  1283A      1.388143  
    1284A      1.389835  1285A      1.390782  1286A      1.394245  
    1287A      1.398086  1288A      1.399351  1289A      1.400938  
    1290A      1.405140  1291A      1.406574  1292A      1.410340  
    1293A      1.411745  1294A      1.412975  1295A      1.414078  
    1296A      1.416025  1297A      1.420119  1298A      1.425218  
    1299A      1.425555  1300A      1.427014  1301A      1.430041  
    1302A      1.431719  1303A      1.436379  1304A      1.438173  
    1305A      1.440838  1306A      1.442212  1307A      1.444905  
    1308A      1.447004  1309A      1.448293  1310A      1.458583  
    1311A      1.460960  1312A      1.472146  1313A      1.476740  
    1314A      1.478587  1315A      1.482573  1316A      1.482800  
    1317A      1.487393  1318A      1.493323  1319A      1.493525  
    1320A      1.510990  1321A      1.513975  1322A      1.523422  
    1323A      1.532934  1324A      1.534384  1325A      1.536765  
    1326A      1.542524  1327A      1.543710  1328A      1.545232  
    1329A      1.546762  1330A      1.546996  1331A      1.547949  
    1332A      1.550054  1333A      1.552283  1334A      1.553285  
    1335A      1.553871  1336A      1.554487  1337A      1.555600  
    1338A      1.556432  1339A      1.557358  1340A      1.559101  
    1341A      1.561759  1342A      1.563962  1343A      1.564256  
    1344A      1.564432  1345A      1.567826  1346A      1.568670  
    1347A      1.569561  1348A      1.570440  1349A      1.570876  
    1350A      1.573300  1351A      1.576301  1352A      1.576828  
    1353A      1.578622  1354A      1.578796  1355A      1.579494  
    1356A      1.580142  1357A      1.581072  1358A      1.582247  
    1359A      1.583113  1360A      1.585535  1361A      1.586770  
    1362A      1.590754  1363A      1.592337  1364A      1.593945  
    1365A      1.595117  1366A      1.597047  1367A      1.598043  
    1368A      1.599369  1369A      1.602885  1370A      1.605284  
    1371A      1.606101  1372A      1.608146  1373A      1.608231  
    1374A      1.608869  1375A      1.610020  1376A      1.610329  
    1377A      1.611437  1378A      1.617893  1379A      1.618764  
    1380A      1.618968  1381A      1.619844  1382A      1.629460  
    1383A      1.630178  1384A      1.634328  1385A      1.636351  
    1386A      1.636848  1387A      1.637704  1388A      1.639278  
    1389A      1.640802  1390A      1.643962  1391A      1.650513  
    1392A      1.650717  1393A      1.651071  1394A      1.654849  
    1395A      1.655560  1396A      1.657134  1397A      1.657619  
    1398A      1.661361  1399A      1.661993  1400A      1.662365  
    1401A      1.662771  1402A      1.666078  1403A      1.667365  
    1404A      1.679308  1405A      1.679667  1406A      1.687070  
    1407A      1.688598  1408A      1.688781  1409A      1.691884  
    1410A      1.692869  1411A      1.701352  1412A      1.704936  
    1413A      1.706272  1414A      1.708015  1415A      1.710140  
    1416A      1.721083  1417A      1.727693  1418A      1.727973  
    1419A      1.730914  1420A      1.731155  1421A      1.741345  
    1422A      1.741615  1423A      1.747187  1424A      1.751488  
    1425A      1.759894  1426A      1.761806  1427A      1.765524  
    1428A      1.767404  1429A      1.768594  1430A      1.769457  
    1431A      1.771306  1432A      1.772898  1433A      1.773108  
    1434A      1.774809  1435A      1.775242  1436A      1.777142  
    1437A      1.777669  1438A      1.778575  1439A      1.782571  
    1440A      1.783737  1441A      1.785659  1442A      1.795034  
    1443A      1.797730  1444A      1.799096  1445A      1.800967  
    1446A      1.801355  1447A      1.803194  1448A      1.803508  
    1449A      1.803640  1450A      1.804128  1451A      1.809504  
    1452A      1.811169  1453A      1.813378  1454A      1.816137  
    1455A      1.817053  1456A      1.817411  1457A      1.817685  
    1458A      1.823022  1459A      1.823894  1460A      1.824353  
    1461A      1.824978  1462A      1.825893  1463A      1.826429  
    1464A      1.827207  1465A      1.828612  1466A      1.829473  
    1467A      1.829890  1468A      1.836940  1469A      1.843609  
    1470A      1.845376  1471A      1.845606  1472A      1.848472  
    1473A      1.850272  1474A      1.852219  1475A      1.853048  
    1476A      1.855543  1477A      1.857077  1478A      1.858726  
    1479A      1.861518  1480A      1.861991  1481A      1.862696  
    1482A      1.864249  1483A      1.865663  1484A      1.866253  
    1485A      1.868241  1486A      1.874015  1487A      1.877955  
    1488A      1.878628  1489A      1.880827  1490A      1.881266  
    1491A      1.881362  1492A      1.883174  1493A      1.883749  
    1494A      1.884276  1495A      1.886498  1496A      1.888498  
    1497A      1.890376  1498A      1.893542  1499A      1.894217  
    1500A      1.897150  1501A      1.898672  1502A      1.899685  
    1503A      1.902472  1504A      1.902953  1505A      1.903642  
    1506A      1.904461  1507A      1.908308  1508A      1.910295  
    1509A      1.912203  1510A      1.913350  1511A      1.914741  
    1512A      1.915654  1513A      1.921022  1514A      1.921859  
    1515A      1.925806  1516A      1.930905  1517A      1.931532  
    1518A      1.934079  1519A      1.934691  1520A      1.935047  
    1521A      1.937095  1522A      1.937869  1523A      1.943580  
    1524A      1.946557  1525A      1.950044  1526A      1.951664  
    1527A      1.952949  1528A      1.954593  1529A      1.957869  
    1530A      1.958129  1531A      1.958450  1532A      1.960601  
    1533A      1.960959  1534A      1.961091  1535A      1.962573  
    1536A      1.963677  1537A      1.964377  1538A      1.966869  
    1539A      1.970052  1540A      1.971888  1541A      1.975704  
    1542A      1.976658  1543A      1.977796  1544A      1.981090  
    1545A      1.983694  1546A      1.985062  1547A      1.988667  
    1548A      1.991199  1549A      1.994755  1550A      1.995569  
    1551A      1.997937  1552A      1.998263  1553A      1.999975  
    1554A      2.000700  1555A      2.001591  1556A      2.002970  
    1557A      2.003460  1558A      2.008449  1559A      2.009524  
    1560A      2.010601  1561A      2.012109  1562A      2.014454  
    1563A      2.018610  1564A      2.021076  1565A      2.022305  
    1566A      2.022626  1567A      2.023355  1568A      2.024127  
    1569A      2.024956  1570A      2.025697  1571A      2.028064  
    1572A      2.028657  1573A      2.029512  1574A      2.030785  
    1575A      2.032037  1576A      2.032665  1577A      2.033643  
    1578A      2.034405  1579A      2.035153  1580A      2.036807  
    1581A      2.037432  1582A      2.038945  1583A      2.041841  
    1584A      2.042403  1585A      2.043466  1586A      2.044093  
    1587A      2.047908  1588A      2.049373  1589A      2.050787  
    1590A      2.053932  1591A      2.054546  1592A      2.055604  
    1593A      2.055845  1594A      2.056963  1595A      2.058759  
    1596A      2.060021  1597A      2.061133  1598A      2.064901  
    1599A      2.068690  1600A      2.069185  1601A      2.069609  
    1602A      2.070391  1603A      2.070499  1604A      2.070772  
    1605A      2.071737  1606A      2.073666  1607A      2.077102  
    1608A      2.077937  1609A      2.079882  1610A      2.081707  
    1611A      2.083144  1612A      2.085938  1613A      2.086350  
    1614A      2.086975  1615A      2.087577  1616A      2.091289  
    1617A      2.096556  1618A      2.097269  1619A      2.097797  
    1620A      2.099173  1621A      2.100974  1622A      2.101326  
    1623A      2.101752  1624A      2.102291  1625A      2.105984  
    1626A      2.106334  1627A      2.111365  1628A      2.112291  
    1629A      2.113746  1630A      2.120413  1631A      2.121722  
    1632A      2.124466  1633A      2.124559  1634A      2.129864  
    1635A      2.130219  1636A      2.130421  1637A      2.131618  
    1638A      2.133364  1639A      2.134385  1640A      2.137000  
    1641A      2.137895  1642A      2.139739  1643A      2.140456  
    1644A      2.142270  1645A      2.143463  1646A      2.146255  
    1647A      2.147523  1648A      2.149861  1649A      2.151775  
    1650A      2.154174  1651A      2.154691  1652A      2.160324  
    1653A      2.163690  1654A      2.163893  1655A      2.165342  
    1656A      2.165762  1657A      2.167725  1658A      2.169913  
    1659A      2.173505  1660A      2.174489  1661A      2.175463  
    1662A      2.176134  1663A      2.177916  1664A      2.178218  
    1665A      2.178784  1666A      2.179270  1667A      2.183950  
    1668A      2.188713  1669A      2.191187  1670A      2.191789  
    1671A      2.192142  1672A      2.199858  1673A      2.200359  
    1674A      2.206338  1675A      2.206705  1676A      2.208721  
    1677A      2.210149  1678A      2.212769  1679A      2.215629  
    1680A      2.220312  1681A      2.224595  1682A      2.225715  
    1683A      2.227023  1684A      2.232766  1685A      2.235930  
    1686A      2.236587  1687A      2.239366  1688A      2.245530  
    1689A      2.246396  1690A      2.250341  1691A      2.258365  
    1692A      2.259616  1693A      2.264889  1694A      2.266006  
    1695A      2.266472  1696A      2.269364  1697A      2.271222  
    1698A      2.271984  1699A      2.272809  1700A      2.273119  
    1701A      2.274352  1702A      2.276234  1703A      2.279993  
    1704A      2.282596  1705A      2.283032  1706A      2.283356  
    1707A      2.284864  1708A      2.285318  1709A      2.286441  
    1710A      2.288880  1711A      2.289222  1712A      2.295203  
    1713A      2.307688  1714A      2.311128  1715A      2.312341  
    1716A      2.326459  1717A      2.328428  1718A      2.330758  
    1719A      2.333049  1720A      2.334404  1721A      2.336222  
    1722A      2.336927  1723A      2.359636  1724A      2.360848  
    1725A      2.364347  1726A      2.368976  1727A      2.369563  
    1728A      2.372470  1729A      2.380750  1730A      2.383599  
    1731A      2.385409  1732A      2.392751  1733A      2.393370  
    1734A      2.406088  1735A      2.406671  1736A      2.409482  
    1737A      2.409817  1738A      2.413648  1739A      2.413914  
    1740A      2.433720  1741A      2.434301  1742A      2.434888  
    1743A      2.444387  1744A      2.449780  1745A      2.450334  
    1746A      2.453855  1747A      2.459465  1748A      2.479660  
    1749A      2.479796  1750A      2.480918  1751A      2.483241  
    1752A      2.483956  1753A      2.484603  1754A      2.487581  
    1755A      2.488517  1756A      2.490840  1757A      2.491827  
    1758A      2.493546  1759A      2.495413  1760A      2.495532  
    1761A      2.505056  1762A      2.508477  1763A      2.512675  
    1764A      2.515073  1765A      2.523398  1766A      2.526887  
    1767A      2.527147  1768A      2.528118  1769A      2.528670  
    1770A      2.529581  1771A      2.532792  1772A      2.533345  
    1773A      2.534643  1774A      2.538586  1775A      2.543596  
    1776A      2.543937  1777A      2.554529  1778A      2.555529  
    1779A      2.555785  1780A      2.555948  1781A      2.559785  
    1782A      2.560459  1783A      2.574029  1784A      2.581548  
    1785A      2.582795  1786A      2.584873  1787A      2.586301  
    1788A      2.589015  1789A      2.589323  1790A      2.591254  
    1791A      2.595534  1792A      2.598976  1793A      2.599474  
    1794A      2.604640  1795A      2.606207  1796A      2.610171  
    1797A      2.612515  1798A      2.613368  1799A      2.613892  
    1800A      2.614890  1801A      2.619860  1802A      2.621669  
    1803A      2.626338  1804A      2.627046  1805A      2.628266  
    1806A      2.631953  1807A      2.632412  1808A      2.632726  
    1809A      2.634288  1810A      2.636856  1811A      2.638364  
    1812A      2.645219  1813A      2.647151  1814A      2.663407  
    1815A      2.671275  1816A      2.671561  1817A      2.672858  
    1818A      2.675196  1819A      2.675854  1820A      2.686203  
    1821A      2.693949  1822A      2.698413  1823A      2.699740  
    1824A      2.701505  1825A      2.710778  1826A      2.714400  
    1827A      2.720639  1828A      2.720954  1829A      2.724455  
    1830A      2.738172  1831A      2.739194  1832A      2.740786  
    1833A      2.741679  1834A      2.741814  1835A      2.746188  
    1836A      2.747932  1837A      2.749602  1838A      2.753072  
    1839A      2.753995  1840A      2.755610  1841A      2.756683  
    1842A      2.758226  1843A      2.759781  1844A      2.768706  
    1845A      2.770019  1846A      2.773096  1847A      2.780454  
    1848A      2.782023  1849A      2.783199  1850A      2.784126  
    1851A      2.787315  1852A      2.793465  1853A      2.803103  
    1854A      2.805736  1855A      2.805957  1856A      2.812472  
    1857A      2.813957  1858A      2.816223  1859A      2.833250  
    1860A      2.834190  1861A      2.849724  1862A      2.854966  
    1863A      2.861063  1864A      2.861159  1865A      2.871375  
    1866A      2.873426  1867A      2.877993  1868A      2.878259  
    1869A      2.905349  1870A      2.908869  1871A      2.909051  
    1872A      2.918865  1873A      2.935426  1874A      2.935886  
    1875A      2.943009  1876A      2.969880  1877A      2.970585  
    1878A      2.978640  1879A      2.982283  1880A      2.988082  
    1881A      2.989081  1882A      2.991930  1883A      2.997819  
    1884A      2.997992  1885A      3.008645  1886A      3.010491  
    1887A      3.014041  1888A      3.051562  1889A      3.056193  
    1890A      3.056595  1891A      3.064122  1892A      3.069178  
    1893A      3.070232  1894A      3.074500  1895A      3.076777  
    1896A      3.079337  1897A      3.085516  1898A      3.086358  
    1899A      3.090613  1900A      3.091520  1901A      3.091836  
    1902A      3.093849  1903A      3.096885  1904A      3.098351  
    1905A      3.105818  1906A      3.106546  1907A      3.116431  
    1908A      3.118807  1909A      3.119138  1910A      3.136439  
    1911A      3.137913  1912A      3.163711  1913A      3.194805  
    1914A      3.202078  1915A      3.203110  1916A      3.203223  
    1917A      3.203927  1918A      3.206576  1919A      3.211092  
    1920A      3.213557  1921A      3.217307  1922A      3.217952  
    1923A      3.237865  1924A      3.239808  1925A      3.240578  
    1926A      3.247176  1927A      3.301471  1928A      3.302037  
    1929A      3.310418  1930A      3.355085  1931A      3.367609  
    1932A      3.371588  1933A      3.374676  1934A      3.387994  
    1935A      3.390268  1936A      3.402128  1937A      3.404200  
    1938A      3.405460  1939A      3.411466  1940A      3.415996  
    1941A      3.424097  1942A      3.428508  1943A      3.439142  
    1944A      3.448470  1945A      3.472525  1946A      3.481305  
    1947A      3.515644  1948A      3.516013  1949A      3.524307  
    1950A      3.531405  1951A      3.557848  1952A      3.581381  
    1953A      3.587245  1954A      3.606338  1955A      3.611981  
    1956A      3.645109  1957A      3.687081  1958A      3.691680  
    1959A      3.692436  1960A      3.702810  1961A      3.719255  
    1962A      3.720795  1963A      3.783987  1964A      3.784250  
    1965A      3.814133  1966A      3.815857  1967A      3.849497  
    1968A      3.856054  1969A      3.877051  1970A      3.884428  
    1971A      3.889260  1972A      3.890438  1973A      3.899723  
    1974A      3.904566  1975A      3.910608  1976A      3.963274  
    1977A      3.965559  1978A      4.012649  1979A      4.170637  
    1980A      4.241083  1981A      4.335343  

    Final Occupation by Irrep:
              A 
    DOCC [   326 ]
    NA   [   326 ]
    NB   [   326 ]

  @DF-RHF Final Energy: -3953.65518200843871

   => Energetics <=

    Nuclear Repulsion Energy =          17963.6854119068375439
    One-Electron Energy =              -41135.4061299863606109
    Two-Electron Energy =               19218.0655360710843524
    Total Energy =                      -3953.6551820084387145

Computation Completed


Properties will be evaluated at   0.000000,   0.000000,   0.000000 [a0]

Properties computed using the SCF density matrix


 Multipole Moments:

 ------------------------------------------------------------------------------------
     Multipole            Electronic (a.u.)      Nuclear  (a.u.)        Total (a.u.)
 ------------------------------------------------------------------------------------

 L = 1.  Multiply by 2.5417464519 to convert [e a0] to [Debye]
 Dipole X            :         -0.0030197            0.0004804           -0.0025393
 Dipole Y            :         -7.0772929            8.7122315            1.6349386
 Dipole Z            :         24.1951174          -32.1237390           -7.9286216
 Magnitude           :                                                    8.0954352

 ------------------------------------------------------------------------------------

*** tstop() called on n2cn1163 at Sat Jan 27 01:49:09 2024
Module time:
	user time   =   28037.31 seconds =     467.29 minutes
	system time =    1950.84 seconds =      32.51 minutes
	total time  =       5711 seconds =      95.18 minutes
Total time:
	user time   =   28037.31 seconds =     467.29 minutes
	system time =    1950.84 seconds =      32.51 minutes
	total time  =       5711 seconds =      95.18 minutes

  //>>>>>>>>>>>>>>>>>>>>>>>>>>>>>>>>>>>//
  //            Monomer A HF           //
  //<<<<<<<<<<<<<<<<<<<<<<<<<<<<<<<<<<<//

   => Libint2 <=

    Primary   basis highest AM E, G, H:  5, 4, 3
    Auxiliary basis highest AM E, G, H:  6, 5, 4
    Onebody   basis highest AM E, G, H:  6, 5, 4
    Solid Harmonics ordering:            gaussian

*** tstart() called on n2cn1163
*** at Sat Jan 27 01:49:09 2024

   => Loading Basis Set <=

    Name: JUN-CC-PVDZ
    Role: ORBITAL
    Keyword: BASIS
    atoms 1-2, 4-5, 10, 17-34, 41-53, 56-70, 73-89, 92-104, 109-119, 122-130 entry C          line   164 file /opt/software/pc2/EB-SW/software/PSI4/1.9-foss-2022a/share/psi4/basis/jun-cc-pvdz.gbs 
    atoms 3, 6                                                               entry N          line   198 file /opt/software/pc2/EB-SW/software/PSI4/1.9-foss-2022a/share/psi4/basis/jun-cc-pvdz.gbs 
    atoms 7-9, 11-16, 35-40, 54-55, 71-72, 90-91, 105-108, 120-121, 131-136  entry H          line    36 file /opt/software/pc2/EB-SW/software/PSI4/1.9-foss-2022a/share/psi4/basis/jun-cc-pvdz.gbs 


         ---------------------------------------------------------
                                   SCF
               by Justin Turney, Rob Parrish, Andy Simmonett
                          and Daniel G. A. Smith
                              RHF Reference
                       16 Threads,  61035 MiB Core
         ---------------------------------------------------------

  ==> Geometry <==

    Molecular point group: c1
    Full point group: C1

    Geometry (in Angstrom), charge = 1, multiplicity = 1:

       Center              X                  Y                   Z               Mass       
    ------------   -----------------  -----------------  -----------------  -----------------
         C            0.680062820275     1.308604348936    -6.388978034514    12.000000000000
         C           -0.680508179725     1.310632348936    -6.388594034514    12.000000000000
         N           -1.085639179725     1.311630348936    -5.070270034514    14.003074004430
         C            0.000103820275     1.314906348936    -4.288869034514    12.000000000000
[...]
    1585A      2.184377  1586A      2.189520  1587A      2.191575  
    1588A      2.191844  1589A      2.192937  1590A      2.194156  
    1591A      2.195552  1592A      2.196797  1593A      2.198371  
    1594A      2.199953  1595A      2.201066  1596A      2.201511  
    1597A      2.201829  1598A      2.203445  1599A      2.205456  
    1600A      2.208040  1601A      2.210682  1602A      2.211959  
    1603A      2.212901  1604A      2.214415  1605A      2.215711  
    1606A      2.220290  1607A      2.222684  1608A      2.222917  
    1609A      2.224976  1610A      2.225078  1611A      2.226015  
    1612A      2.229029  1613A      2.230907  1614A      2.232205  
    1615A      2.233093  1616A      2.234107  1617A      2.239131  
    1618A      2.239531  1619A      2.240384  1620A      2.241710  
    1621A      2.247098  1622A      2.248513  1623A      2.249499  
    1624A      2.250689  1625A      2.254231  1626A      2.258392  
    1627A      2.263675  1628A      2.264987  1629A      2.265942  
    1630A      2.268433  1631A      2.271044  1632A      2.272298  
    1633A      2.281773  1634A      2.283317  1635A      2.284796  
    1636A      2.288579  1637A      2.291192  1638A      2.293135  
    1639A      2.296893  1640A      2.297076  1641A      2.303962  
    1642A      2.304217  1643A      2.307584  1644A      2.309189  
    1645A      2.321446  1646A      2.324861  1647A      2.325390  
    1648A      2.326101  1649A      2.328088  1650A      2.330165  
    1651A      2.330741  1652A      2.331412  1653A      2.332475  
    1654A      2.333574  1655A      2.335381  1656A      2.335670  
    1657A      2.338708  1658A      2.341318  1659A      2.342345  
    1660A      2.342546  1661A      2.343272  1662A      2.345153  
    1663A      2.345999  1664A      2.346472  1665A      2.349246  
    1666A      2.349567  1667A      2.356104  1668A      2.368989  
    1669A      2.373763  1670A      2.374635  1671A      2.379863  
    1672A      2.385034  1673A      2.388410  1674A      2.391402  
    1675A      2.393130  1676A      2.397578  1677A      2.398075  
    1678A      2.411951  1679A      2.418641  1680A      2.420036  
    1681A      2.425318  1682A      2.425892  1683A      2.429603  
    1684A      2.433688  1685A      2.443025  1686A      2.444271  
    1687A      2.453218  1688A      2.453913  1689A      2.464578  
    1690A      2.464894  1691A      2.468057  1692A      2.468455  
    1693A      2.472085  1694A      2.472300  1695A      2.479186  
    1696A      2.481541  1697A      2.488113  1698A      2.491762  
    1699A      2.492773  1700A      2.495857  1701A      2.500089  
    1702A      2.501501  1703A      2.504646  1704A      2.508072  
    1705A      2.508468  1706A      2.512253  1707A      2.517154  
    1708A      2.539622  1709A      2.539807  1710A      2.540618  
    1711A      2.542824  1712A      2.544037  1713A      2.546042  
    1714A      2.546878  1715A      2.548800  1716A      2.549565  
    1717A      2.551723  1718A      2.554326  1719A      2.556877  
    1720A      2.556948  1721A      2.564494  1722A      2.571455  
    1723A      2.571858  1724A      2.580232  1725A      2.584164  
    1726A      2.584778  1727A      2.585249  1728A      2.586329  
    1729A      2.588758  1730A      2.589165  1731A      2.593303  
    1732A      2.593940  1733A      2.601568  1734A      2.601768  
    1735A      2.603600  1736A      2.613223  1737A      2.613804  
    1738A      2.614199  1739A      2.614469  1740A      2.618682  
    1741A      2.619321  1742A      2.633157  1743A      2.641236  
    1744A      2.642234  1745A      2.644222  1746A      2.645582  
    1747A      2.647281  1748A      2.648841  1749A      2.649420  
    1750A      2.652858  1751A      2.653863  1752A      2.656639  
    1753A      2.657107  1754A      2.666079  1755A      2.666140  
    1756A      2.667750  1757A      2.670531  1758A      2.670924  
    1759A      2.673971  1760A      2.674582  1761A      2.675003  
    1762A      2.677860  1763A      2.681316  1764A      2.684565  
    1765A      2.686554  1766A      2.687912  1767A      2.690090  
    1768A      2.691876  1769A      2.692441  1770A      2.692773  
    1771A      2.693554  1772A      2.696258  1773A      2.697548  
    1774A      2.699144  1775A      2.705007  1776A      2.721238  
    1777A      2.730898  1778A      2.731567  1779A      2.731807  
    1780A      2.731980  1781A      2.732257  1782A      2.753110  
    1783A      2.758424  1784A      2.761590  1785A      2.762005  
    1786A      2.766814  1787A      2.773361  1788A      2.776292  
    1789A      2.778154  1790A      2.781251  1791A      2.781951  
    1792A      2.799556  1793A      2.800076  1794A      2.802351  
    1795A      2.802405  1796A      2.802987  1797A      2.811971  
    1798A      2.814904  1799A      2.815869  1800A      2.816500  
    1801A      2.817597  1802A      2.817737  1803A      2.828974  
    1804A      2.829285  1805A      2.839614  1806A      2.840482  
    1807A      2.843004  1808A      2.843188  1809A      2.846724  
    1810A      2.857998  1811A      2.865042  1812A      2.865770  
    1813A      2.866203  1814A      2.870333  1815A      2.872552  
    1816A      2.873596  1817A      2.878778  1818A      2.896092  
    1819A      2.896981  1820A      2.905793  1821A      2.916575  
    1822A      2.918183  1823A      2.918229  1824A      2.922356  
    1825A      2.928294  1826A      2.930279  1827A      2.935599  
    1828A      2.936830  1829A      2.942108  1830A      2.952213  
    1831A      2.964270  1832A      2.966504  1833A      2.967870  
    1834A      2.974260  1835A      2.976764  1836A      2.993414  
    1837A      2.994305  1838A      2.999325  1839A      3.030076  
    1840A      3.030666  1841A      3.035249  1842A      3.038443  
    1843A      3.040608  1844A      3.046491  1845A      3.047667  
    1846A      3.048857  1847A      3.050716  1848A      3.057984  
    1849A      3.058198  1850A      3.064225  1851A      3.073139  
    1852A      3.084697  1853A      3.109121  1854A      3.113412  
    1855A      3.113891  1856A      3.123672  1857A      3.129081  
    1858A      3.129555  1859A      3.134652  1860A      3.136282  
    1861A      3.142986  1862A      3.143745  1863A      3.149619  
    1864A      3.150249  1865A      3.151438  1866A      3.152792  
    1867A      3.154099  1868A      3.160846  1869A      3.162567  
    1870A      3.168060  1871A      3.173813  1872A      3.176030  
    1873A      3.176232  1874A      3.193669  1875A      3.194939  
    1876A      3.220373  1877A      3.253215  1878A      3.260087  
    1879A      3.262202  1880A      3.262523  1881A      3.263176  
    1882A      3.265599  1883A      3.269347  1884A      3.271517  
    1885A      3.275209  1886A      3.276154  1887A      3.292436  
    1888A      3.297435  1889A      3.299587  1890A      3.300815  
    1891A      3.306799  1892A      3.328797  1893A      3.360895  
    1894A      3.362851  1895A      3.363309  1896A      3.371433  
    1897A      3.416335  1898A      3.430356  1899A      3.434219  
    1900A      3.437926  1901A      3.443545  1902A      3.450698  
    1903A      3.454289  1904A      3.465042  1905A      3.465832  
    1906A      3.467407  1907A      3.473058  1908A      3.477720  
    1909A      3.486275  1910A      3.490895  1911A      3.501008  
    1912A      3.509839  1913A      3.534593  1914A      3.542832  
    1915A      3.576814  1916A      3.577207  1917A      3.585389  
    1918A      3.590488  1919A      3.595864  1920A      3.642808  
    1921A      3.648918  1922A      3.650893  1923A      3.667280  
    1924A      3.671342  1925A      3.705686  1926A      3.749524  
    1927A      3.751023  1928A      3.751956  1929A      3.761435  
    1930A      3.765185  1931A      3.778925  1932A      3.782558  
    1933A      3.822759  1934A      3.842951  1935A      3.843863  
    1936A      3.872479  1937A      3.873292  1938A      3.875366  
    1939A      3.909112  1940A      3.916453  1941A      3.939799  
    1942A      3.946874  1943A      3.948796  1944A      3.949903  
    1945A      3.960613  1946A      3.966867  1947A      3.971812  
    1948A      3.988149  1949A      4.024890  1950A      4.027637  
    1951A      4.075860  1952A      4.216937  1953A      4.222566  
    1954A      4.236257  1955A      4.306302  1956A      4.381745  
    1957A      4.383084  1958A      4.399788  1959A      4.500351  
    1960A      4.762982  1961A      4.820891  1962A      4.840524  
    1963A      4.860433  1964A      4.950393  1965A      5.067470  
    1966A      5.069971  1967A      5.078920  1968A      5.121856  
    1969A      5.179791  1970A      5.401975  1971A      5.430452  
    1972A      5.746977  1973A      5.772224  1974A      6.073475  
    1975A     18.202451  1976A     18.467754  1977A     18.486030  
    1978A     18.569156  1979A     18.841248  1980A     25.347411  
    1981A     25.382735  

    Final Occupation by Irrep:
              A 
    DOCC [   300 ]
    NA   [   300 ]
    NB   [   300 ]

  @DF-RHF Final Energy: -3650.33967464594662

   => Energetics <=

    Nuclear Repulsion Energy =          15611.4211649754306563
    One-Electron Energy =              -36072.1422731463244418
    Two-Electron Energy =               16810.3814335249480791
    Total Energy =                      -3650.3396746459475253

Computation Completed


Properties will be evaluated at   0.000000,   0.000000,   0.000000 [a0]

Properties computed using the SCF density matrix


 Multipole Moments:

 ------------------------------------------------------------------------------------
     Multipole            Electronic (a.u.)      Nuclear  (a.u.)        Total (a.u.)
 ------------------------------------------------------------------------------------

 L = 1.  Multiply by 2.5417464519 to convert [e a0] to [Debye]
 Dipole X            :         -0.0006704            0.0002112           -0.0004592
 Dipole Y            :        123.2167148         -123.2131634            0.0035514
 Dipole Z            :       -484.0860322          484.0956282            0.0095960
 Magnitude           :                                                    0.0102424

 ------------------------------------------------------------------------------------

*** tstop() called on n2cn1163 at Sat Jan 27 03:13:32 2024
Module time:
	user time   =   20468.64 seconds =     341.14 minutes
	system time =    1703.60 seconds =      28.39 minutes
	total time  =       3417 seconds =      56.95 minutes
Total time:
	user time   =   54250.40 seconds =     904.17 minutes
	system time =    4213.69 seconds =      70.23 minutes
	total time  =      10774 seconds =     179.57 minutes
  Constructing Basis Sets for SAPT...

   => Loading Basis Set <=

    Name: (JUN-CC-PVDZ AUX)
    Role: RIFIT
    Keyword: DF_BASIS_SAPT
    atoms 1-2, 4-5, 10, 17-34, 41-53, 56-70, 73-89, 92-104, 109-119, 122-130 entry C          line   100 file /opt/software/pc2/EB-SW/software/PSI4/1.9-foss-2022a/share/psi4/basis/jun-cc-pvdz-ri.gbs 
    atoms 3, 6                                                               entry N          line   144 file /opt/software/pc2/EB-SW/software/PSI4/1.9-foss-2022a/share/psi4/basis/jun-cc-pvdz-ri.gbs 
    atoms 7-9, 11-16, 35-40, 54-55, 71-72, 90-91, 105-108, 120-121, 131-136  entry H          line    30 file /opt/software/pc2/EB-SW/software/PSI4/1.9-foss-2022a/share/psi4/basis/jun-cc-pvdz-ri.gbs 

   => Loading Basis Set <=

    Name: (JUN-CC-PVDZ AUX)
    Role: JKFIT
    Keyword: DF_BASIS_ELST
    atoms 1-2, 4-5, 10, 17-34, 41-53, 56-70, 73-89, 92-104, 109-119, 122-130 entry C          line   146 file /opt/software/pc2/EB-SW/software/PSI4/1.9-foss-2022a/share/psi4/basis/jun-cc-pvdz-jkfit.gbs 
    atoms 3, 6                                                               entry N          line   202 file /opt/software/pc2/EB-SW/software/PSI4/1.9-foss-2022a/share/psi4/basis/jun-cc-pvdz-jkfit.gbs 
    atoms 7-9, 11-16, 35-40, 54-55, 71-72, 90-91, 105-108, 120-121, 131-136  entry H          line    70 file /opt/software/pc2/EB-SW/software/PSI4/1.9-foss-2022a/share/psi4/basis/jun-cc-pvdz-jkfit.gbs 


  //>>>>>>>>>>>>>>>>>>>>>>>>>>>>>>>>>>>//
  //               SSAPT0              //
  //<<<<<<<<<<<<<<<<<<<<<<<<<<<<<<<<<<<//


*** tstart() called on n2cn1163
*** at Sat Jan 27 03:13:34 2024

        SAPT0  
    Ed Hohenstein
     6 June 2009

      Orbital Information
  --------------------------
    NSO        =      2019
    NMO        =      1981
    NRI        =      7157
    NRI (Elst) =      8896
    NOCC A     =        26
    NOCC B     =       300
    FOCC A     =         7
    FOCC B     =        96
    NVIR A     =      1955
    NVIR B     =      1681

    Elst10,r            =    -0.010573639672 [Eh]
    Exch10              =     0.000195882390 [Eh]
    Exch10 (S^2)        =     0.000195866962 [Eh]

    Iter     Energy [mEh]          dE [mEh]         Residual      Time [s]
       1      -0.02489514       0.024895140       1.360071543           519
       2      -0.02398610      -0.000909036       0.343810933           907
       3      -0.02599059       0.002004486       0.091122195          1166
       4      -0.02604785       0.000057265       0.038449252          1413
       5      -0.02596464      -0.000083213       0.013163809          1684
       6      -0.02596997       0.000005327       0.004742986          1941
       7      -0.02597873       0.000008758       0.001370874          2193
       8      -0.02597942       0.000000695       0.000442805          2502
       9      -0.02597891      -0.000000515       0.000148579          2779
      10      -0.02597878      -0.000000127       0.000038949          2998
      11      -0.02597880       0.000000021       0.000011124          3185
      12      -0.02597881       0.000000010       0.000003211          3388
      13      -0.02597881      -0.000000000       0.000001075          3568
      14      -0.02597881      -0.000000001       0.000000266          3737

    CHF Iterations converged


    Iter     Energy [mEh]          dE [mEh]         Residual      Time [s]
       1     -11.02595726      11.025957258      57.094948045           183
       2      -7.10597264      -3.919984622       7.012415812           370
       3      -7.07141285      -0.034559784       2.390377041           572
       4      -7.20991979       0.138506938       0.804336873           769
       5      -7.22949730       0.019577509       0.308318906           990
       6      -7.22599725      -0.003500051       0.207986805          1183
       7      -7.22179479      -0.004202455       0.079165382          1409
       8      -7.22207458       0.000279789       0.032789142          1621
       9      -7.22270347       0.000628886       0.011202824          1832
      10      -7.22269314      -0.000010327       0.006635641          2092
      11      -7.22262387      -0.000069267       0.003090607          2301
      12      -7.22260869      -0.000015187       0.001711253          2532
      13      -7.22262263       0.000013943       0.000958514          2753
      14      -7.22263061       0.000007978       0.000617964          2985
      15      -7.22262842      -0.000002184       0.000451721          3197
      16      -7.22262288      -0.000005548       0.000217584          3410
      17      -7.22262478       0.000001902       0.000118026          3648
      18      -7.22262601       0.000001230       0.000062812          3925
      19      -7.22262581      -0.000000196       0.000047586          4144
      20      -7.22262531      -0.000000500       0.000021846          4376
      21      -7.22262537       0.000000063       0.000010317          4627
      22      -7.22262547       0.000000094       0.000004091          4841
      23      -7.22262547       0.000000004       0.000001650          5051
      24      -7.22262546      -0.000000013       0.000000944          5263

    CHF Iterations converged

    Ind20,r (A<-B)      =    -0.000025978810 [Eh]
    Ind20,r (B<-A)      =    -0.007222625459 [Eh]
    Ind20,r             =    -0.007248604269 [Eh]
    Exch-Ind20,r (A<-B) =     0.000004440130 [Eh]
    Exch-Ind20,r (B<-A) =     0.000036578510 [Eh]
    Exch-Ind20,r        =     0.000041018640 [Eh]
    Disp20              =    -0.005696308565 [Eh]
    Disp20 (SS)         =    -0.002848154282 [Eh]
    Disp20 (OS)         =    -0.002848154282 [Eh]
    Exch-Disp20         =     0.000025463942 [Eh]
    Exch-Disp20 (SS)    =     0.000017111978 [Eh]
    Exch-Disp20 (OS)    =     0.000008351964 [Eh]

    SAPT Results 
  --------------------------------------------------------------------------------------------------------
    Electrostatics                -10.57363967 [mEh]      -6.63505907 [kcal/mol]     -27.76108714 [kJ/mol]
      Elst10,r                    -10.57363967 [mEh]      -6.63505907 [kcal/mol]     -27.76108714 [kJ/mol]

    Exchange                        0.19588239 [mEh]       0.12291806 [kcal/mol]       0.51428914 [kJ/mol]
      Exch10                        0.19588239 [mEh]       0.12291806 [kcal/mol]       0.51428914 [kJ/mol]
      Exch10(S^2)                   0.19586696 [mEh]       0.12290837 [kcal/mol]       0.51424864 [kJ/mol]

    Induction                      -7.53539328 [mEh]      -4.72853067 [kcal/mol]     -19.78417233 [kJ/mol]
      Ind20,r                      -7.24860427 [mEh]      -4.54856785 [kcal/mol]     -19.03120789 [kJ/mol]
      Exch-Ind20,r                  0.04101864 [mEh]       0.02573959 [kcal/mol]       0.10769442 [kJ/mol]
      delta HF,r (2)               -0.32780765 [mEh]      -0.20570241 [kcal/mol]      -0.86065887 [kJ/mol]

    Dispersion                     -5.67084462 [mEh]      -3.55850873 [kcal/mol]     -14.88880051 [kJ/mol]
      Disp20                       -5.69630856 [mEh]      -3.57448759 [kcal/mol]     -14.95565608 [kJ/mol]
      Exch-Disp20                   0.02546394 [mEh]       0.01597886 [kcal/mol]       0.06685557 [kJ/mol]
      Disp20 (SS)                  -2.84815428 [mEh]      -1.78724380 [kcal/mol]      -7.47782804 [kJ/mol]
      Disp20 (OS)                  -2.84815428 [mEh]      -1.78724380 [kcal/mol]      -7.47782804 [kJ/mol]
      Exch-Disp20 (SS)              0.01711198 [mEh]       0.01073793 [kcal/mol]       0.04492749 [kJ/mol]
      Exch-Disp20 (OS)              0.00835196 [mEh]       0.00524094 [kcal/mol]       0.02192808 [kJ/mol]

  Total HF                        -17.91315056 [mEh]     -11.24067168 [kcal/mol]     -47.03097033 [kJ/mol]
  Total SAPT0                     -23.58399519 [mEh]     -14.79918041 [kcal/mol]     -61.91977083 [kJ/mol]

  Special recipe for scaled SAPT0 (see Manual):
    Electrostatics sSAPT0         -10.57363967 [mEh]      -6.63505907 [kcal/mol]     -27.76108714 [kJ/mol]
    Exchange sSAPT0                 0.19588239 [mEh]       0.12291806 [kcal/mol]       0.51428914 [kJ/mol]
    Induction sSAPT0               -7.53538359 [mEh]      -4.72852459 [kcal/mol]     -19.78414689 [kJ/mol]
    Dispersion sSAPT0              -5.67083861 [mEh]      -3.55850495 [kcal/mol]     -14.88878471 [kJ/mol]
  Total sSAPT0                    -23.58397948 [mEh]     -14.79917055 [kcal/mol]     -61.91972958 [kJ/mol]
  --------------------------------------------------------------------------------------------------------

*** tstop() called on n2cn1163 at Sat Jan 27 10:18:59 2024
Module time:
	user time   =   79402.77 seconds =    1323.38 minutes
	system time =    4172.21 seconds =      69.54 minutes
	total time  =      25525 seconds =     425.42 minutes
Total time:
	user time   =  133654.66 seconds =    2227.58 minutes
	system time =    8385.91 seconds =     139.77 minutes
	total time  =      36301 seconds =     605.02 minutes

    Psi4 stopped on: Saturday, 27 January 2024 10:18AM
    Psi4 wall time for execution: 10:05:02.32

*** Psi4 exiting successfully. Buy a developer a beer!
