
    -----------------------------------------------------------------------
          Psi4: An Open-Source Ab Initio Electronic Structure Package
                               Psi4 1.9 release

                         Git: Rev {} zzzzzzz 


    D. G. A. Smith, L. A. Burns, A. C. Simmonett, R. M. Parrish,
    M. C. Schieber, R. Galvelis, P. Kraus, H. Kruse, R. Di Remigio,
    A. Alenaizan, A. M. James, S. Lehtola, J. P. Misiewicz, M. Scheurer,
    R. A. Shaw, J. B. Schriber, Y. Xie, Z. L. Glick, D. A. Sirianni,
    J. S. O'Brien, J. M. Waldrop, A. Kumar, E. G. Hohenstein,
    B. P. Pritchard, B. R. Brooks, H. F. Schaefer III, A. Yu. Sokolov,
    K. Patkowski, A. E. DePrince III, U. Bozkaya, R. A. King,
    F. A. Evangelista, J. M. Turney, T. D. Crawford, C. D. Sherrill,
    J. Chem. Phys. 152(18) 184108 (2020). https://doi.org/10.1063/5.0006002

                            Additional Code Authors
    E. T. Seidl, C. L. Janssen, E. F. Valeev, M. L. Leininger,
    J. F. Gonthier, R. M. Richard, H. R. McAlexander, M. Saitow, X. Wang,
    P. Verma, M. H. Lechner, A. Jiang, S. Behnle, A. G. Heide,
    M. F. Herbst, and D. L. Poole

             Previous Authors, Complete List of Code Contributors,
                       and Citations for Specific Modules
    https://github.com/psi4/psi4/blob/master/codemeta.json
    https://github.com/psi4/psi4/graphs/contributors
    http://psicode.org/psi4manual/master/introduction.html#citing-psifour

    -----------------------------------------------------------------------


    Psi4 started on: Saturday, 10 February 2024 11:49AM

    Process ID: 944662
    Host:       n2cn0545
    PSIDATADIR: /opt/software/pc2/EB-SW/software/PSI4/1.9-foss-2022a/share/psi4
    Memory:     500.0 MiB
    Threads:    16
    
  ==> Input File <==

--------------------------------------------------------------------------
memory 48 GB # how much memory is available ! Depends on the nodes/cores !

molecule dimer {
# monomer A
+1 1    # Charge and multiplicity
C  0.680067 -1.215929 2.108042
C -0.680504 -1.215545 2.106014
N -1.085635  0.102779 2.105016
C  0.000108  0.884180 2.101740
C -2.477365  0.570758 2.055610
N  1.085222  0.102779 2.105016
H  1.385146 -2.033368 2.115870
H -1.385302 -2.033214 2.106204
H -0.000009  1.965269 2.099993
C  2.478117  0.567877 2.121908
H  2.490592  1.658130 2.094563
H  2.967028  0.220701 3.035354
H  3.001428  0.176405 1.246425
H -2.857359  0.490799 1.033539
H -3.082679 -0.042306 2.725694
H -2.518128  1.610706 2.382594
--
# monomer B
0 1     # Charge and multiplicity
C   1.22531237526482      0.70753866091955      0.00613762728373
C   1.22532433589282     -0.70753852257020     -0.00619318228664
C   -0.00000567409046      1.41496628609039     -0.00672680580738
C   2.45644923379077      1.41832825917820      0.00902448468363
C   0.00001130712078     -1.41497612663474      0.00347275151708
C   -1.22530046906674      0.70754574598412      0.00838914760619
C   2.45643823516184     -1.41832293188077     -0.00843833914343
C   -0.00000085313587      2.83680140328112     -0.00913035594137
C   3.68182717731192      0.70931832800114     -0.00808954934571
C   2.45512052870677      2.83422403348893     -0.00819210630633
C   3.68182158506039     -0.70933346742900      0.00798293467272
C   -1.22531311884624     -0.70752714354401     -0.00512042085974
C   1.22670006104402      3.54346985599427      0.00816696660346
C   0.00000526469929     -2.83678176723568      0.00832091913869
C   -2.45643555300670      1.41831729028492      0.00842454345199
C   2.45512389762097     -2.83422965658853      0.00783102630520
C   -1.22671388474763      3.54346943575023      0.00827029982280
C   4.91451777504333      1.42717324448953     -0.00160886631602
C   3.69315067131765      3.54279566454522     -0.00155906667985
C   -2.45643712022637     -1.41831290883911     -0.00846337726810
C   1.22670532178455     -3.54347386990643     -0.00780316414624
C   -2.45512491866593      2.83421703463423     -0.00818572995999
C   4.91452486062398     -1.42718653794377      0.00136387641845
C   1.22142509354026      4.97013443726031      0.00150231067809
C   4.89300870916237      2.82518837202648     -0.00039219795739
C   -1.22669652864725     -3.54347062507680     -0.00753595973677
C   -3.68181849668397      0.70932533873199     -0.00807686886569
C   3.69314758099218     -3.54280096939050      0.00148176697923
C   -1.22143177215231      4.97012866986289      0.00168580605083
C   6.13477145276790      0.68054831910577     -0.00083909176631
C   3.65678936045204      4.97295361556775     -0.00065042889723
C   -2.45512642789169     -2.83421472106065      0.00758666850712
C   -3.68181869921921     -0.70932533146830      0.00810055625144
C   4.89301309775526     -2.82519973363176      0.00021895393805
C   -0.00000059327114      5.65044773803267      0.00045449734393
C   6.13477559217374     -0.68055448207492      0.00042622874941
C   2.47813196269732      5.65357712333155      0.00063835075260
C   1.22142288457925     -4.97012668293268     -0.00129718634452
C   -3.69316190412301      3.54279732619245     -0.00139355922051
C   -1.22142804110313     -4.97011793159564     -0.00140994817719
C   -4.91452132810043      1.42717581899491     -0.00153192130862
C   3.65678749952045     -4.97295485423912      0.00080007163680
C   -2.47813805026426      5.65357479452875      0.00092287576113
C   -3.69314125872231     -3.54278984697859      0.00136564082345
C   -4.91451200321153     -1.42718062802730      0.00139857359209
C   -0.00000552908399     -5.65043791501335      0.00005899322272
C   -4.89302000425900      2.82518897091939     -0.00040227981744
C   2.47812647313991     -5.65357317188818     -0.00029052915548
C   -3.65679823041642      4.97295655404175     -0.00047374852278
C   -4.89299899901461     -2.82519139505969      0.00006491824035
C   -2.47812801824129     -5.65356579800621     -0.00056571680280
C   -6.13477002348955      0.68054913825639     -0.00086464346868
C   -3.65678835334731     -4.97294365097028      0.00058578382008
C   -6.13476456307132     -0.68055354348201      0.00040575295444
H   5.83528897565761      3.36927626695423      0.00396712770529
H   7.07385965258860      1.22821762089947     -0.00037744837300
H   4.60066374401555      5.51238117445323     -0.00014522814529
H   5.83528386714679     -3.36930568472863     -0.00423551337640
H   -0.00001167146422      6.73853104613662     -0.00389474766392
H   7.07386165167227     -1.22822657074368     -0.00008250934481
H   2.47331421164041      6.74068466339473      0.00017162982210
H   4.60066897122302     -5.51237575717576      0.00039007446835
H   -2.47331820069565      6.74068209160650      0.00047297644710
H   -0.00000978838621     -6.73852780445195      0.00458867820736
H   -5.83530143450167      3.36927132229595      0.00410314985360
H   2.47330840367253     -6.74068500242887      0.00027980126949
H   -4.60067436136587      5.51237839860371      0.00002010017831
H   -5.83527902699321     -3.36928859177951     -0.00451481925734
H   -2.47329986759855     -6.74067870613986     -0.00016951527498
H   -7.07385728692578      1.22822084484047     -0.00046143985387
H   -4.60067330624313     -5.51236229778631      0.00021776644566
H   -7.07385645456741     -1.22822025997701     -0.00017736581114

    units angstrom      # Angstroms are the default
    no_reorient         # Geometry fixed, default
    symmetry c1         # C1 symmetry, default
}

set {
    scf_type DF         # Density fitting, faster than exact integrals
    freeze_core True    # Freeze core electrons
    basis jun-cc-pVDZ   # Jun-cc-pVDZ basis set, recommended for sSAPT0 in https://doi.org/10.1063/1.4867135
}

energy('ssapt0')        # Compute sSAPT0 energy, includes also SAPT0
--------------------------------------------------------------------------

  Memory set to  44.703 GiB by Python driver.

Scratch directory: /tmp/
   => Loading Basis Set <=

    Name: JUN-CC-PVDZ
    Role: ORBITAL
    Keyword: BASIS
    atoms 1-2, 4-5, 10, 17-70 entry C          line   164 file /opt/software/pc2/EB-SW/software/PSI4/1.9-foss-2022a/share/psi4/basis/jun-cc-pvdz.gbs 
    atoms 3, 6                entry N          line   198 file /opt/software/pc2/EB-SW/software/PSI4/1.9-foss-2022a/share/psi4/basis/jun-cc-pvdz.gbs 
    atoms 7-9, 11-16, 71-88   entry H          line    36 file /opt/software/pc2/EB-SW/software/PSI4/1.9-foss-2022a/share/psi4/basis/jun-cc-pvdz.gbs 

   => Loading Basis Set <=

    Name: JUN-CC-PVDZ
    Role: ORBITAL
    Keyword: BASIS
    atoms 1-2, 4-5, 10, 17-70 entry C          line   164 file /opt/software/pc2/EB-SW/software/PSI4/1.9-foss-2022a/share/psi4/basis/jun-cc-pvdz.gbs 
    atoms 3, 6                entry N          line   198 file /opt/software/pc2/EB-SW/software/PSI4/1.9-foss-2022a/share/psi4/basis/jun-cc-pvdz.gbs 
    atoms 7-9, 11-16, 71-88   entry H          line    36 file /opt/software/pc2/EB-SW/software/PSI4/1.9-foss-2022a/share/psi4/basis/jun-cc-pvdz.gbs 


  //>>>>>>>>>>>>>>>>>>>>>>>>>>>>>>>>>>>//
  //              Dimer HF             //
  //<<<<<<<<<<<<<<<<<<<<<<<<<<<<<<<<<<<//

   => Libint2 <=

    Primary   basis highest AM E, G, H:  5, 4, 3
    Auxiliary basis highest AM E, G, H:  6, 5, 4
    Onebody   basis highest AM E, G, H:  6, 5, 4
    Solid Harmonics ordering:            gaussian

*** tstart() called on n2cn0545
*** at Sat Feb 10 11:49:51 2024

   => Loading Basis Set <=

    Name: JUN-CC-PVDZ
    Role: ORBITAL
    Keyword: BASIS
    atoms 1-2, 4-5, 10, 17-70 entry C          line   164 file /opt/software/pc2/EB-SW/software/PSI4/1.9-foss-2022a/share/psi4/basis/jun-cc-pvdz.gbs 
    atoms 3, 6                entry N          line   198 file /opt/software/pc2/EB-SW/software/PSI4/1.9-foss-2022a/share/psi4/basis/jun-cc-pvdz.gbs 
    atoms 7-9, 11-16, 71-88   entry H          line    36 file /opt/software/pc2/EB-SW/software/PSI4/1.9-foss-2022a/share/psi4/basis/jun-cc-pvdz.gbs 


         ---------------------------------------------------------
                                   SCF
               by Justin Turney, Rob Parrish, Andy Simmonett
                          and Daniel G. A. Smith
                              RHF Reference
                       16 Threads,  45776 MiB Core
         ---------------------------------------------------------

  ==> Geometry <==

    Molecular point group: c1
    Full point group: C1

    Geometry (in Angstrom), charge = 1, multiplicity = 1:

       Center              X                  Y                   Z               Mass       
    ------------   -----------------  -----------------  -----------------  -----------------
         C            0.680066520158    -1.215933861162     1.840937064974    12.000000000000
         C           -0.680504479842    -1.215549861162     1.838909064974    12.000000000000
         N           -1.085635479842     0.102774138838     1.837911064974    14.003074004430
         C            0.000107520158     0.884175138838     1.834635064974    12.000000000000
         C           -2.477365479842     0.570753138838     1.788505064974    12.000000000000
         N            1.085221520158     0.102774138838     1.837911064974    14.003074004430
         H            1.385145520158    -2.033372861162     1.848765064974     1.007825032230
         H           -1.385302479842    -2.033218861162     1.839099064974     1.007825032230
         H           -0.000009479842     1.965264138838     1.832888064974     1.007825032230
         C            2.478116520158     0.567872138838     1.854803064974    12.000000000000
         H            2.490591520158     1.658125138838     1.827458064974     1.007825032230
         H            2.967027520158     0.220696138838     2.768249064974     1.007825032230
         H            3.001427520158     0.176400138838     0.979320064974     1.007825032230
         H           -2.857359479842     0.490794138838     0.766434064974     1.007825032230
         H           -3.082679479842    -0.042310861162     2.458589064974     1.007825032230
         H           -2.518128479842     1.610701138838     2.115489064974     1.007825032230
         C            1.225311895423     0.707533799757    -0.260967307742    12.000000000000
         C            1.225323856051    -0.707543383733    -0.273298117312    12.000000000000
         C           -0.000006153932     1.414961424928    -0.273831740833    12.000000000000
         C            2.456448753949     1.418323398016    -0.258080450342    12.000000000000
         C            0.000010827279    -1.414980987797    -0.263632183509    12.000000000000
         C           -1.225300948908     0.707540884822    -0.258715787420    12.000000000000
         C            2.456437755320    -1.418327793043    -0.275543274169    12.000000000000
         C           -0.000001332978     2.836796542119    -0.276235290967    12.000000000000
         C            3.681826697470     0.709313466839    -0.275194484371    12.000000000000
         C            2.455120048865     2.834219172327    -0.275297041332    12.000000000000
         C            3.681821105219    -0.709338328591    -0.259122000353    12.000000000000
         C           -1.225313598688    -0.707532004706    -0.272225355885    12.000000000000
         C            1.226699581202     3.543464994832    -0.258937968422    12.000000000000
         C            0.000004784858    -2.836786628398    -0.258784015887    12.000000000000
         C           -2.456436032848     1.418312429123    -0.258680391574    12.000000000000
         C            2.455123417779    -2.834234517751    -0.259273908720    12.000000000000
         C           -1.226714364589     3.543464574588    -0.258834635203    12.000000000000
         C            4.914517295202     1.427168383327    -0.268713801342    12.000000000000
         C            3.693150191476     3.542790803383    -0.268664001706    12.000000000000
         C           -2.456437600068    -1.418317770001    -0.275568312294    12.000000000000
         C            1.226704841943    -3.543478731069    -0.274908099172    12.000000000000
         C           -2.455125398508     2.834212173472    -0.275290664986    12.000000000000
         C            4.914524380782    -1.427191399106    -0.265741058607    12.000000000000
         C            1.221424613699     4.970129576098    -0.265602624348    12.000000000000
         C            4.893008229321     2.825183510864    -0.267497132983    12.000000000000
         C           -1.226697008489    -3.543475486239    -0.274640894762    12.000000000000
         C           -3.681818976526     0.709320477570    -0.275181803891    12.000000000000
         C            3.693147101150    -3.542805830553    -0.265623168046    12.000000000000
         C           -1.221432251994     4.970123808701    -0.265419128975    12.000000000000
         C            6.134770972926     0.680543457943    -0.267944026792    12.000000000000
         C            3.656788880610     4.972948754405    -0.267755363923    12.000000000000
         C           -2.455126907733    -2.834219582223    -0.259518266519    12.000000000000
         C           -3.681819179061    -0.709330192631    -0.259004378774    12.000000000000
         C            4.893012617914    -2.825204594794    -0.266885981088    12.000000000000
         C           -0.000001073113     5.650442876870    -0.266650437682    12.000000000000
         C            6.134775112332    -0.680559343237    -0.266678706276    12.000000000000
         C            2.478131482856     5.653572262169    -0.266466584273    12.000000000000
         C            1.221422404738    -4.970131544095    -0.268402121370    12.000000000000
         C           -3.693162383965     3.542792465030    -0.268498494246    12.000000000000
         C           -1.221428520945    -4.970122792758    -0.268514883203    12.000000000000
         C           -4.914521807942     1.427170957833    -0.268636856334    12.000000000000
         C            3.656787019679    -4.972959715401    -0.266304863389    12.000000000000
         C           -2.478138530106     5.653569933366    -0.266182059265    12.000000000000
         C           -3.693141738564    -3.542794708141    -0.265739294202    12.000000000000
         C           -4.914512483053    -1.427185489190    -0.265706361434    12.000000000000
         C           -0.000006008926    -5.650442776176    -0.267045941803    12.000000000000
         C           -4.893020484101     2.825184109757    -0.267507214843    12.000000000000
         C            2.478125993298    -5.653578033051    -0.267395464181    12.000000000000
         C           -3.656798710258     4.972951692879    -0.267578683548    12.000000000000
         C           -4.892999478856    -2.825196256222    -0.267040016785    12.000000000000
         C           -2.478128498083    -5.653570659169    -0.267670651828    12.000000000000
         C           -6.134770503331     0.680544277094    -0.267969578494    12.000000000000
         C           -3.656788833189    -4.972948512133    -0.266519151206    12.000000000000
         C           -6.134765042913    -0.680558404644    -0.266699182071    12.000000000000
         H            5.835288495816     3.369271405792    -0.263137807320     1.007825032230
         H            7.073859172747     1.228212759737    -0.267482383399     1.007825032230
         H            4.600663264174     5.512376313291    -0.267250163171     1.007825032230
         H            5.835283387305    -3.369310545891    -0.271340448402     1.007825032230
         H           -0.000012151306     6.738526184974    -0.270999682690     1.007825032230
         H            7.073861171831    -1.228231431906    -0.267187444371     1.007825032230
         H            2.473313731799     6.740679802232    -0.266933305204     1.007825032230
         H            4.600668491381    -5.512380618338    -0.266714860557     1.007825032230
         H           -2.473318680537     6.740677230444    -0.266631958579     1.007825032230
         H           -0.000010268228    -6.738532665614    -0.262516256818     1.007825032230
         H           -5.835301914343     3.369266461134    -0.263001785172     1.007825032230
         H            2.473307923831    -6.740689863591    -0.266825133756     1.007825032230
         H           -4.600674841208     5.512373537441    -0.267084834847     1.007825032230
         H           -5.835279506835    -3.369293452942    -0.271619754283     1.007825032230
         H           -2.473300347440    -6.740683567302    -0.267274450301     1.007825032230
         H           -7.073857766768     1.228215983678    -0.267566374880     1.007825032230
         H           -4.600673786085    -5.512367158949    -0.266887168580     1.007825032230
         H           -7.073856934409    -1.228225121139    -0.267282300837     1.007825032230

  Running in c1 symmetry.

  Rotational constants: A =      0.00209  B =      0.00205  C =      0.00109 [cm^-1]
  Rotational constants: A =     62.78105  B =     61.47025  C =     32.56832 [MHz]
  Nuclear repulsion = 8780.400558413954059

  Charge       = 1
  Multiplicity = 1
  Electrons    = 394
  Nalpha       = 197
  Nbeta        = 197

  ==> Algorithm <==

  SCF Algorithm Type is DF.
  DIIS enabled.
  MOM disabled.
  Fractional occupation disabled.
  Guess Type is SAD.
  Energy threshold   = 1.00e-08
  Density threshold  = 1.00e-08
  Integral threshold = 1.00e-12

  ==> Primary Basis <==

  Basis Set: JUN-CC-PVDZ
    Blend: JUN-CC-PVDZ
    Number of shells: 569
    Number of basis functions: 1233
    Number of Cartesian functions: 1294
    Spherical Harmonics?: true
    Max angular momentum: 2

   => Loading Basis Set <=

    Name: (JUN-CC-PVDZ AUX)
    Role: JKFIT
    Keyword: DF_BASIS_SCF
    atoms 1-2, 4-5, 10, 17-70 entry C          line   146 file /opt/software/pc2/EB-SW/software/PSI4/1.9-foss-2022a/share/psi4/basis/jun-cc-pvdz-jkfit.gbs 
    atoms 3, 6                entry N          line   202 file /opt/software/pc2/EB-SW/software/PSI4/1.9-foss-2022a/share/psi4/basis/jun-cc-pvdz-jkfit.gbs 
    atoms 7-9, 11-16, 71-88   entry H          line    70 file /opt/software/pc2/EB-SW/software/PSI4/1.9-foss-2022a/share/psi4/basis/jun-cc-pvdz-jkfit.gbs 

  ==> Integral Setup <==

  ==> DiskDFJK: Density-Fitted J/K Matrices <==

    J tasked:                  Yes
    K tasked:                  Yes
    wK tasked:                  No
    OpenMP threads:             16
    Integrals threads:          16
    Memory [MiB]:            34332
    Algorithm:                Core
    Integral Cache:           SAVE
    Schwarz Cutoff:          1E-12
    Fitting Condition:       1E-10

   => Auxiliary Basis Set <=

  Basis Set: (JUN-CC-PVDZ AUX)
    Blend: JUN-CC-PVDZ-JKFIT
    Number of shells: 1890
    Number of basis functions: 5440
    Number of Cartesian functions: 6226
    Spherical Harmonics?: true
    Max angular momentum: 3

  Minimum eigenvalue in the overlap matrix is 1.8026389489E-10.
  Reciprocal condition number of the overlap matrix is 6.2004873653E-12.
    Using canonical orthogonalization.
  Overall, 15 of 1233 possible MOs eliminated.


  ==> Pre-Iterations <==

  SCF Guess: Superposition of Atomic Densities via on-the-fly atomic UHF (no occupation information).

   -------------------------
    Irrep   Nso     Nmo    
   -------------------------
     A       1233    1218 
   -------------------------
    Total    1233    1218
   -------------------------

  ==> Iterations <==

                           Total Energy        Delta E     RMS |[F,P]|

   @DF-RHF iter SAD: -2370.86411443997940   -2.37086e+03   0.00000e+00 
   @DF-RHF iter   1: -2357.51339554951301    1.33507e+01   9.71980e-04 ADIIS/DIIS
   @DF-RHF iter   2: -2358.44305163262106   -9.29656e-01   3.56687e-04 ADIIS/DIIS
   @DF-RHF iter   3: -2358.55043239470979   -1.07381e-01   1.38643e-04 ADIIS/DIIS
   @DF-RHF iter   4: -2358.56784789662970   -1.74155e-02   5.66723e-05 DIIS
   @DF-RHF iter   5: -2358.57102144785222   -3.17355e-03   1.76906e-05 DIIS
   @DF-RHF iter   6: -2358.57144789869562   -4.26451e-04   8.17531e-06 DIIS
   @DF-RHF iter   7: -2358.57162472029904   -1.76822e-04   4.53927e-06 DIIS
   @DF-RHF iter   8: -2358.57169427834015   -6.95580e-05   2.00213e-06 DIIS
   @DF-RHF iter   9: -2358.57171730778373   -2.30294e-05   1.00095e-06 DIIS
   @DF-RHF iter  10: -2358.57172146457151   -4.15679e-06   5.87192e-07 DIIS
   @DF-RHF iter  11: -2358.57172324539670   -1.78083e-06   4.03514e-07 DIIS
   @DF-RHF iter  12: -2358.57172449238533   -1.24699e-06   2.96205e-07 DIIS
   @DF-RHF iter  13: -2358.57172548176641   -9.89381e-07   1.93999e-07 DIIS
   @DF-RHF iter  14: -2358.57172579010694   -3.08341e-07   1.11934e-07 DIIS
   @DF-RHF iter  15: -2358.57172589503307   -1.04926e-07   4.65954e-08 DIIS
   @DF-RHF iter  16: -2358.57172590712707   -1.20940e-08   3.01678e-08 DIIS
   @DF-RHF iter  17: -2358.57172590996652   -2.83944e-09   1.52639e-08 DIIS
   @DF-RHF iter  18: -2358.57172591086010   -8.93579e-10   9.32295e-09 DIIS
  Energy and wave function converged.


  ==> Post-Iterations <==

    Orbital Energies [Eh]
    ---------------------

    Doubly Occupied:                                                      

       1A    -15.750165     2A    -15.749486     3A    -11.484411  
       4A    -11.390072     5A    -11.388503     6A    -11.384559  
       7A    -11.373484     8A    -11.371765     9A    -11.371674  
      10A    -11.363538    11A    -11.363498    12A    -11.362016  
      13A    -11.361008    14A    -11.360685    15A    -11.360648  
      16A    -11.359827    17A    -11.359278    18A    -11.357206  
      19A    -11.356831    20A    -11.356776    21A    -11.356067  
      22A    -11.356054    23A    -11.356007    24A    -11.355624  
      25A    -11.355524    26A    -11.355097    27A    -11.354961  
      28A    -11.354849    29A    -11.354810    30A    -11.354493  
      31A    -11.354315    32A    -11.354077    33A    -11.353000  
      34A    -11.352885    35A    -11.352567    36A    -11.352152  
      37A    -11.351139    38A    -11.351093    39A    -11.350814  
      40A    -11.350793    41A    -11.350468    42A    -11.350180  
      43A    -11.348941    44A    -11.348649    45A    -11.345109  
      46A    -11.342937    47A    -11.342829    48A    -11.342576  
      49A    -11.342405    50A    -11.342186    51A    -11.342180  
      52A    -11.341602    53A    -11.339947    54A    -11.339543  
      55A    -11.339067    56A    -11.338849    57A    -11.338510  
      58A    -11.337910    59A    -11.337262    60A    -11.337002  
      61A    -11.336467    62A     -1.533745    63A     -1.396768  
      64A     -1.362546    65A     -1.330915    66A     -1.325496  
      67A     -1.298447    68A     -1.289612    69A     -1.285631  
      70A     -1.255727    71A     -1.252753    72A     -1.247770  
      73A     -1.240416    74A     -1.212545    75A     -1.208683  
      76A     -1.206078    77A     -1.186598    78A     -1.180787  
      79A     -1.180437    80A     -1.159415    81A     -1.158959  
      82A     -1.149792    83A     -1.139364    84A     -1.129305  
      85A     -1.121949    86A     -1.113079    87A     -1.111412  
      88A     -1.104468    89A     -1.095207    90A     -1.089596  
      91A     -1.061828    92A     -1.056213    93A     -1.048247  
      94A     -1.009392    95A     -1.001058    96A     -0.993191  
      97A     -0.989474    98A     -0.985058    99A     -0.983624  
     100A     -0.982196   101A     -0.961780   102A     -0.956533  
     103A     -0.947904   104A     -0.927980   105A     -0.920328  
     106A     -0.916151   107A     -0.913046   108A     -0.911600  
     109A     -0.895918   110A     -0.888155   111A     -0.866924  
     112A     -0.850015   113A     -0.848348   114A     -0.846421  
     115A     -0.835755   116A     -0.830325   117A     -0.829955  
     118A     -0.825968   119A     -0.813944   120A     -0.801014  
     121A     -0.796627   122A     -0.791867   123A     -0.791327  
     124A     -0.783047   125A     -0.770340   126A     -0.767092  
     127A     -0.755195   128A     -0.753524   129A     -0.748950  
     130A     -0.743178   131A     -0.742644   132A     -0.741362  
     133A     -0.733492   134A     -0.732402   135A     -0.730614  
     136A     -0.726275   137A     -0.725841   138A     -0.723545  
     139A     -0.707403   140A     -0.700663   141A     -0.697221  
     142A     -0.693495   143A     -0.693143   144A     -0.692389  
     145A     -0.691645   146A     -0.690279   147A     -0.685658  
     148A     -0.677437   149A     -0.674731   150A     -0.669883  
     151A     -0.665299   152A     -0.664891   153A     -0.658871  
     154A     -0.658028   155A     -0.656666   156A     -0.652495  
     157A     -0.647265   158A     -0.647212   159A     -0.637562  
     160A     -0.631296   161A     -0.630555   162A     -0.626703  
     163A     -0.624940   164A     -0.617466   165A     -0.616390  
     166A     -0.608307   167A     -0.597615   168A     -0.594200  
     169A     -0.591569   170A     -0.586480   171A     -0.583516  
     172A     -0.581930   173A     -0.577882   174A     -0.576624  
     175A     -0.575968   176A     -0.563188   177A     -0.551013  
     178A     -0.550409   179A     -0.532774   180A     -0.531791  
     181A     -0.520114   182A     -0.496445   183A     -0.492525  
     184A     -0.491324   185A     -0.468594   186A     -0.464723  
     187A     -0.463866   188A     -0.436959   189A     -0.426767  
     190A     -0.405692   191A     -0.403859   192A     -0.395502  
     193A     -0.383404   194A     -0.377207   195A     -0.370004  
     196A     -0.308413   197A     -0.307176  

    Virtual:                                                              

     198A     -0.093998   199A     -0.092855   200A     -0.043385  
     201A     -0.040925   202A     -0.035975   203A     -0.031610  
     204A     -0.022272   205A     -0.020328   206A     -0.019116  
     207A     -0.012863   208A     -0.012638   209A     -0.012268  
     210A     -0.010483   211A     -0.004323   212A     -0.003989  
     213A     -0.002976   214A     -0.001579   215A      0.000122  
     216A      0.000788   217A      0.007040   218A      0.011837  
     219A      0.012234   220A      0.012416   221A      0.012650  
     222A      0.016822   223A      0.018365   224A      0.019097  
     225A      0.027429   226A      0.027914   227A      0.027967  
     228A      0.029556   229A      0.030016   230A      0.031143  
     231A      0.032645   232A      0.035359   233A      0.038990  
     234A      0.041458   235A      0.044211   236A      0.047791  
     237A      0.053461   238A      0.054329   239A      0.054951  
     240A      0.057901   241A      0.059790   242A      0.060243  
     243A      0.061982   244A      0.062116   245A      0.063626  
     246A      0.065987   247A      0.069551   248A      0.069806  
     249A      0.075702   250A      0.076276   251A      0.076682  
     252A      0.078239   253A      0.079344   254A      0.080545  
     255A      0.086437   256A      0.087916   257A      0.092055  
     258A      0.092379   259A      0.093919   260A      0.095812  
     261A      0.096557   262A      0.098391   263A      0.099258  
     264A      0.099929   265A      0.102080   266A      0.103656  
     267A      0.110074   268A      0.112860   269A      0.113461  
     270A      0.113799   271A      0.116335   272A      0.117135  
     273A      0.117392   274A      0.119839   275A      0.121901  
     276A      0.124520   277A      0.129285   278A      0.131239  
     279A      0.131420   280A      0.134436   281A      0.137591  
     282A      0.139101   283A      0.141764   284A      0.141918  
     285A      0.143459   286A      0.144031   287A      0.144434  
     288A      0.145095   289A      0.145431   290A      0.146692  
     291A      0.149597   292A      0.150572   293A      0.151481  
     294A      0.151616   295A      0.153984   296A      0.158583  
     297A      0.159261   298A      0.159950   299A      0.162226  
     300A      0.162379   301A      0.164430   302A      0.166179  
     303A      0.167755   304A      0.169015   305A      0.174172  
     306A      0.175414   307A      0.175657   308A      0.178402  
     309A      0.179182   310A      0.179995   311A      0.180023  
     312A      0.181036   313A      0.183218   314A      0.183561  
     315A      0.186937   316A      0.186999   317A      0.188794  
     318A      0.189694   319A      0.190413   320A      0.191489  
     321A      0.195274   322A      0.196514   323A      0.198711  
     324A      0.199441   325A      0.199918   326A      0.201352  
     327A      0.202864   328A      0.204308   329A      0.210394  
     330A      0.211590   331A      0.212495   332A      0.213342  
     333A      0.215085   334A      0.217608   335A      0.218836  
     336A      0.222937   337A      0.223030   338A      0.224051  
     339A      0.226814   340A      0.229379   341A      0.230192  
     342A      0.231116   343A      0.231610   344A      0.232641  
     345A      0.233098   346A      0.236651   347A      0.237451  
     348A      0.238174   349A      0.239004   350A      0.239940  
     351A      0.240567   352A      0.241015   353A      0.241898  
     354A      0.242976   355A      0.244007   356A      0.244504  
     357A      0.249163   358A      0.249576   359A      0.250689  
     360A      0.251213   361A      0.253123   362A      0.254061  
     363A      0.254696   364A      0.259241   365A      0.262084  
     366A      0.264140   367A      0.266750   368A      0.268620  
     369A      0.270048   370A      0.272228   371A      0.272738  
     372A      0.273118   373A      0.273913   374A      0.275141  
     375A      0.276502   376A      0.279001   377A      0.279946  
     378A      0.280153   379A      0.281747   380A      0.283841  
     381A      0.284635   382A      0.284955   383A      0.287993  
     384A      0.289188   385A      0.290561   386A      0.291019  
     387A      0.291957   388A      0.292868   389A      0.294417  
     390A      0.295305   391A      0.297727   392A      0.300325  
     393A      0.303701   394A      0.305438   395A      0.306056  
     396A      0.307360   397A      0.307857   398A      0.310556  
     399A      0.312431   400A      0.313877   401A      0.315333  
     402A      0.316404   403A      0.317172   404A      0.320791  
     405A      0.322053   406A      0.322768   407A      0.323322  
     408A      0.325409   409A      0.325472   410A      0.326129  
     411A      0.326450   412A      0.327888   413A      0.328513  
     414A      0.329964   415A      0.330276   416A      0.331206  
     417A      0.331846   418A      0.332163   419A      0.333706  
     420A      0.337343   421A      0.342635   422A      0.343073  
     423A      0.345519   424A      0.347609   425A      0.349365  
     426A      0.352584   427A      0.353296   428A      0.353989  
     429A      0.355909   430A      0.356934   431A      0.357782  
     432A      0.360651   433A      0.361404   434A      0.363171  
     435A      0.364996   436A      0.366738   437A      0.368928  
     438A      0.370372   439A      0.370910   440A      0.371968  
     441A      0.373972   442A      0.374194   443A      0.375834  
     444A      0.379130   445A      0.380726   446A      0.382850  
     447A      0.383240   448A      0.384367   449A      0.389114  
     450A      0.390348   451A      0.395332   452A      0.395962  
     453A      0.397943   454A      0.401061   455A      0.401942  
     456A      0.404209   457A      0.405365   458A      0.407101  
     459A      0.408178   460A      0.409503   461A      0.410116  
     462A      0.413473   463A      0.415584   464A      0.416885  
     465A      0.417211   466A      0.419413   467A      0.422412  
     468A      0.425897   469A      0.426534   470A      0.428460  
     471A      0.429286   472A      0.432268   473A      0.433028  
     474A      0.440306   475A      0.441365   476A      0.443940  
     477A      0.447796   478A      0.450212   479A      0.452295  
     480A      0.454606   481A      0.455431   482A      0.456197  
     483A      0.457353   484A      0.459717   485A      0.462493  
     486A      0.466261   487A      0.466503   488A      0.467797  
     489A      0.468762   490A      0.471433   491A      0.473911  
     492A      0.474703   493A      0.475455   494A      0.476848  
     495A      0.478808   496A      0.479458   497A      0.484129  
     498A      0.489594   499A      0.493491   500A      0.500165  
     501A      0.503564   502A      0.506133   503A      0.511364  
     504A      0.511872   505A      0.515916   506A      0.518518  
     507A      0.519733   508A      0.521627   509A      0.525300  
     510A      0.529269   511A      0.534108   512A      0.535067  
     513A      0.537686   514A      0.540232   515A      0.541407  
     516A      0.544318   517A      0.552864   518A      0.555286  
     519A      0.557974   520A      0.562106   521A      0.567235  
     522A      0.568023   523A      0.573369   524A      0.576527  
     525A      0.582830   526A      0.585039   527A      0.586971  
     528A      0.591019   529A      0.593014   530A      0.611575  
     531A      0.619801   532A      0.623108   533A      0.629287  
     534A      0.648061   535A      0.650223   536A      0.650677  
     537A      0.651408   538A      0.653187   539A      0.654646  
     540A      0.660231   541A      0.664085   542A      0.668239  
     543A      0.687094   544A      0.695217   545A      0.698172  
     546A      0.706530   547A      0.708881   548A      0.719937  
     549A      0.725252   550A      0.730037   551A      0.734721  
     552A      0.735763   553A      0.740136   554A      0.750030  
     555A      0.758654   556A      0.766200   557A      0.768482  
     558A      0.770438   559A      0.772024   560A      0.772501  
     561A      0.775950   562A      0.780173   563A      0.785199  
     564A      0.788403   565A      0.791924   566A      0.792278  
     567A      0.793953   568A      0.794072   569A      0.795584  
     570A      0.799912   571A      0.802960   572A      0.805165  
     573A      0.806296   574A      0.809243   575A      0.811845  
     576A      0.813861   577A      0.815855   578A      0.818786  
     579A      0.820017   580A      0.821503   581A      0.826676  
     582A      0.827670   583A      0.828783   584A      0.830843  
     585A      0.831300   586A      0.835268   587A      0.836717  
     588A      0.840318   589A      0.841590   590A      0.842998  
     591A      0.846678   592A      0.848361   593A      0.851381  
     594A      0.856327   595A      0.857638   596A      0.858318  
     597A      0.859779   598A      0.860478   599A      0.862600  
     600A      0.865596   601A      0.868474   602A      0.869443  
     603A      0.870957   604A      0.872337   605A      0.875903  
     606A      0.880159   607A      0.880514   608A      0.883783  
     609A      0.884893   610A      0.887385   611A      0.888771  
     612A      0.891459   613A      0.892862   614A      0.893675  
     615A      0.897049   616A      0.898251   617A      0.901198  
     618A      0.906536   619A      0.909223   620A      0.912486  
     621A      0.913951   622A      0.916403   623A      0.916706  
     624A      0.919958   625A      0.923160   626A      0.924809  
     627A      0.927773   628A      0.932126   629A      0.933768  
     630A      0.934061   631A      0.936413   632A      0.936700  
     633A      0.940361   634A      0.941682   635A      0.945373  
     636A      0.947010   637A      0.948337   638A      0.948749  
     639A      0.952105   640A      0.952994   641A      0.955025  
     642A      0.955486   643A      0.956938   644A      0.958168  
     645A      0.959105   646A      0.960276   647A      0.962508  
     648A      0.966097   649A      0.967922   650A      0.972047  
     651A      0.972321   652A      0.974462   653A      0.977380  
     654A      0.980602   655A      0.983331   656A      0.986321  
     657A      0.987401   658A      0.988656   659A      0.992230  
     660A      0.994777   661A      0.996758   662A      0.998270  
     663A      1.000370   664A      1.002320   665A      1.002768  
     666A      1.003321   667A      1.006835   668A      1.012113  
     669A      1.012769   670A      1.015281   671A      1.018071  
     672A      1.018793   673A      1.023707   674A      1.025496  
     675A      1.026556   676A      1.032556   677A      1.033948  
     678A      1.035655   679A      1.039316   680A      1.041210  
     681A      1.042731   682A      1.045415   683A      1.046426  
     684A      1.052239   685A      1.053188   686A      1.057910  
     687A      1.059091   688A      1.060837   689A      1.069127  
     690A      1.071226   691A      1.076599   692A      1.077900  
     693A      1.079299   694A      1.086184   695A      1.091413  
     696A      1.095470   697A      1.099425   698A      1.104488  
     699A      1.106313   700A      1.115329   701A      1.117464  
     702A      1.120372   703A      1.122676   704A      1.122941  
     705A      1.126080   706A      1.129226   707A      1.131689  
     708A      1.132522   709A      1.137460   710A      1.142834  
     711A      1.143787   712A      1.148509   713A      1.153222  
     714A      1.155724   715A      1.157283   716A      1.157978  
     717A      1.158312   718A      1.164978   719A      1.165505  
     720A      1.167067   721A      1.168513   722A      1.169092  
     723A      1.171504   724A      1.177857   725A      1.178651  
     726A      1.182062   727A      1.186014   728A      1.190317  
     729A      1.191426   730A      1.193492   731A      1.194876  
     732A      1.198431   733A      1.205001   734A      1.208395  
     735A      1.209097   736A      1.210003   737A      1.215884  
     738A      1.218278   739A      1.218746   740A      1.220443  
     741A      1.223645   742A      1.230134   743A      1.233418  
     744A      1.237666   745A      1.239026   746A      1.242901  
     747A      1.245136   748A      1.247520   749A      1.248609  
     750A      1.250227   751A      1.250772   752A      1.257184  
     753A      1.257981   754A      1.259660   755A      1.263861  
     756A      1.268067   757A      1.272517   758A      1.276898  
     759A      1.277608   760A      1.282687   761A      1.285121  
     762A      1.289450   763A      1.291802   764A      1.295435  
     765A      1.297756   766A      1.301079   767A      1.309653  
     768A      1.310453   769A      1.315070   770A      1.320089  
     771A      1.321914   772A      1.325399   773A      1.327644  
     774A      1.329338   775A      1.333028   776A      1.335218  
     777A      1.340072   778A      1.342854   779A      1.347287  
     780A      1.347798   781A      1.352476   782A      1.354079  
     783A      1.356916   784A      1.358959   785A      1.366801  
     786A      1.368066   787A      1.371243   788A      1.374016  
     789A      1.376865   790A      1.379601   791A      1.381570  
     792A      1.385395   793A      1.391828   794A      1.397594  
     795A      1.404204   796A      1.407688   797A      1.413665  
     798A      1.416097   799A      1.420030   800A      1.429956  
     801A      1.435781   802A      1.449277   803A      1.461889  
     804A      1.472192   805A      1.476714   806A      1.485645  
     807A      1.489226   808A      1.496719   809A      1.498108  
     810A      1.501445   811A      1.509114   812A      1.516166  
     813A      1.521694   814A      1.530066   815A      1.531968  
     816A      1.534159   817A      1.542196   818A      1.543783  
     819A      1.546911   820A      1.550662   821A      1.553888  
     822A      1.558519   823A      1.564018   824A      1.565412  
     825A      1.568359   826A      1.573338   827A      1.575413  
     828A      1.579523   829A      1.583530   830A      1.585452  
     831A      1.588864   832A      1.592317   833A      1.592844  
     834A      1.595720   835A      1.599363   836A      1.602513  
     837A      1.607817   838A      1.608062   839A      1.611405  
     840A      1.615559   841A      1.620173   842A      1.624318  
     843A      1.631213   844A      1.643156   845A      1.647310  
     846A      1.650409   847A      1.651808   848A      1.654839  
     849A      1.661879   850A      1.664286   851A      1.670149  
     852A      1.671124   853A      1.672928   854A      1.676580  
     855A      1.677982   856A      1.684000   857A      1.690187  
     858A      1.692281   859A      1.693158   860A      1.696781  
     861A      1.708549   862A      1.713308   863A      1.717208  
     864A      1.721505   865A      1.727198   866A      1.728932  
     867A      1.734745   868A      1.739804   869A      1.744917  
     870A      1.746937   871A      1.749933   872A      1.755294  
     873A      1.760120   874A      1.762707   875A      1.765052  
     876A      1.768898   877A      1.774234   878A      1.775223  
     879A      1.780613   880A      1.781054   881A      1.783654  
     882A      1.788711   883A      1.791593   884A      1.794429  
     885A      1.798333   886A      1.798677   887A      1.802667  
     888A      1.806210   889A      1.809807   890A      1.810405  
     891A      1.817460   892A      1.821199   893A      1.822860  
     894A      1.824892   895A      1.828638   896A      1.833488  
     897A      1.834603   898A      1.840429   899A      1.842220  
     900A      1.848964   901A      1.851508   902A      1.852967  
     903A      1.857729   904A      1.859228   905A      1.862646  
     906A      1.863709   907A      1.867074   908A      1.872070  
     909A      1.873001   910A      1.875616   911A      1.880272  
     912A      1.883073   913A      1.887943   914A      1.891134  
     915A      1.892765   916A      1.899655   917A      1.902681  
     918A      1.905696   919A      1.908238   920A      1.910846  
     921A      1.912274   922A      1.917016   923A      1.920283  
     924A      1.923310   925A      1.926623   926A      1.930830  
     927A      1.933004   928A      1.935188   929A      1.936840  
     930A      1.939575   931A      1.943817   932A      1.946663  
     933A      1.951174   934A      1.953619   935A      1.956264  
     936A      1.957149   937A      1.960017   938A      1.963828  
     939A      1.970120   940A      1.972050   941A      1.974278  
     942A      1.976175   943A      1.978915   944A      1.984387  
     945A      1.987241   946A      1.992230   947A      1.994557  
     948A      1.997070   949A      2.000881   950A      2.002768  
     951A      2.003697   952A      2.004235   953A      2.007345  
     954A      2.010940   955A      2.012042   956A      2.013899  
     957A      2.016543   958A      2.018019   959A      2.020790  
     960A      2.024425   961A      2.026169   962A      2.028711  
     963A      2.029581   964A      2.032183   965A      2.034492  
     966A      2.035881   967A      2.038957   968A      2.040585  
     969A      2.041899   970A      2.044730   971A      2.046765  
     972A      2.047800   973A      2.050588   974A      2.055508  
     975A      2.059354   976A      2.062478   977A      2.065060  
     978A      2.065831   979A      2.068856   980A      2.075233  
     981A      2.076553   982A      2.081534   983A      2.084505  
     984A      2.085315   985A      2.092416   986A      2.094086  
     987A      2.100299   988A      2.101273   989A      2.105900  
     990A      2.107196   991A      2.110154   992A      2.117917  
     993A      2.120242   994A      2.126041   995A      2.127113  
     996A      2.131765   997A      2.133972   998A      2.135593  
     999A      2.150278  1000A      2.151617  1001A      2.152507  
    1002A      2.154286  1003A      2.158652  1004A      2.159025  
    1005A      2.161336  1006A      2.162868  1007A      2.166624  
    1008A      2.168356  1009A      2.171948  1010A      2.173993  
    1011A      2.177193  1012A      2.180803  1013A      2.182585  
    1014A      2.184194  1015A      2.187564  1016A      2.194035  
    1017A      2.195610  1018A      2.197276  1019A      2.205615  
    1020A      2.211747  1021A      2.220349  1022A      2.225077  
    1023A      2.228334  1024A      2.236093  1025A      2.240295  
    1026A      2.245578  1027A      2.252100  1028A      2.255234  
    1029A      2.260001  1030A      2.260156  1031A      2.263772  
    1032A      2.265552  1033A      2.268394  1034A      2.272940  
    1035A      2.286963  1036A      2.288683  1037A      2.293290  
    1038A      2.298827  1039A      2.301827  1040A      2.305911  
    1041A      2.308684  1042A      2.313270  1043A      2.316934  
    1044A      2.322827  1045A      2.330140  1046A      2.334409  
    1047A      2.341054  1048A      2.349129  1049A      2.351823  
    1050A      2.358082  1051A      2.364673  1052A      2.376969  
    1053A      2.378569  1054A      2.392554  1055A      2.395343  
    1056A      2.399485  1057A      2.406642  1058A      2.408217  
    1059A      2.416295  1060A      2.419095  1061A      2.423283  
    1062A      2.429595  1063A      2.433973  1064A      2.439597  
    1065A      2.444273  1066A      2.450148  1067A      2.454267  
    1068A      2.458548  1069A      2.461561  1070A      2.467238  
    1071A      2.468816  1072A      2.471646  1073A      2.475204  
    1074A      2.477223  1075A      2.482431  1076A      2.489564  
    1077A      2.491154  1078A      2.491913  1079A      2.498150  
    1080A      2.500611  1081A      2.507685  1082A      2.514456  
    1083A      2.515325  1084A      2.518603  1085A      2.529709  
    1086A      2.532205  1087A      2.539410  1088A      2.545784  
    1089A      2.550433  1090A      2.557314  1091A      2.559007  
    1092A      2.562676  1093A      2.568647  1094A      2.577267  
    1095A      2.579972  1096A      2.585906  1097A      2.592399  
    1098A      2.596561  1099A      2.600202  1100A      2.604625  
    1101A      2.609657  1102A      2.613669  1103A      2.616888  
    1104A      2.621487  1105A      2.622239  1106A      2.623631  
    1107A      2.631945  1108A      2.639598  1109A      2.645340  
    1110A      2.655633  1111A      2.668536  1112A      2.675025  
    1113A      2.680277  1114A      2.684047  1115A      2.691003  
    1116A      2.701207  1117A      2.706954  1118A      2.718542  
    1119A      2.723105  1120A      2.730014  1121A      2.737581  
    1122A      2.744445  1123A      2.746706  1124A      2.749657  
    1125A      2.753046  1126A      2.757753  1127A      2.765019  
    1128A      2.769240  1129A      2.772905  1130A      2.785351  
    1131A      2.789954  1132A      2.793345  1133A      2.808118  
    1134A      2.823649  1135A      2.831366  1136A      2.844160  
    1137A      2.845514  1138A      2.851357  1139A      2.864471  
    1140A      2.866015  1141A      2.875357  1142A      2.882507  
    1143A      2.891735  1144A      2.897437  1145A      2.911086  
    1146A      2.920492  1147A      2.927435  1148A      2.938863  
    1149A      2.945712  1150A      2.957293  1151A      2.961223  
    1152A      2.968609  1153A      2.970269  1154A      2.983324  
    1155A      2.992607  1156A      3.001572  1157A      3.005848  
    1158A      3.017918  1159A      3.028292  1160A      3.035796  
    1161A      3.040318  1162A      3.047151  1163A      3.049726  
    1164A      3.059969  1165A      3.061277  1166A      3.062977  
    1167A      3.064671  1168A      3.070863  1169A      3.089027  
    1170A      3.098733  1171A      3.104512  1172A      3.108403  
    1173A      3.113292  1174A      3.128562  1175A      3.138510  
    1176A      3.142540  1177A      3.161757  1178A      3.173352  
    1179A      3.175876  1180A      3.182550  1181A      3.198809  
    1182A      3.204248  1183A      3.220769  1184A      3.235388  
    1185A      3.246022  1186A      3.252645  1187A      3.278724  
    1188A      3.306349  1189A      3.322212  1190A      3.330445  
    1191A      3.355434  1192A      3.357003  1193A      3.366004  
    1194A      3.413848  1195A      3.436705  1196A      3.478111  
    1197A      3.557883  1198A      3.571167  1199A      3.582095  
    1200A      3.588048  1201A      3.592688  1202A      3.605267  
    1203A      3.614591  1204A      3.718392  1205A      3.752024  
    1206A      3.781915  1207A      3.783559  1208A      3.805065  
    1209A      3.827194  1210A      3.833594  1211A      3.912132  
    1212A      3.917014  1213A      3.995143  1214A      4.111126  
    1215A      4.215442  1216A      4.302621  1217A      4.313568  
    1218A      4.608123  

    Final Occupation by Irrep:
              A 
    DOCC [   197 ]
    NA   [   197 ]
    NB   [   197 ]

  @DF-RHF Final Energy: -2358.57172591086010

   => Energetics <=

    Nuclear Repulsion Energy =           8780.4005584139540588
    One-Electron Energy =              -20654.2747127095135511
    Two-Electron Energy =                9515.3024283846989420
    Total Energy =                      -2358.5717259108605504

Computation Completed


Properties will be evaluated at   0.000000,   0.000000,   0.000000 [a0]

Properties computed using the SCF density matrix


 Multipole Moments:

 ------------------------------------------------------------------------------------
     Multipole            Electronic (a.u.)      Nuclear  (a.u.)        Total (a.u.)
 ------------------------------------------------------------------------------------

 L = 1.  Multiply by 2.5417464519 to convert [e a0] to [Debye]
 Dipole X            :          0.0353553            0.0006313            0.0359865
 Dipole Y            :         -2.0249377            1.8864948           -0.1384428
 Dipole Z            :         -9.2452926           10.8907394            1.6454468
 Magnitude           :                                                    1.6516527

 ------------------------------------------------------------------------------------

*** tstop() called on n2cn0545 at Sat Feb 10 11:59:53 2024
Module time:
	user time   =    7656.93 seconds =     127.62 minutes
	system time =     270.90 seconds =       4.52 minutes
	total time  =        602 seconds =      10.03 minutes
Total time:
	user time   =    7656.93 seconds =     127.62 minutes
	system time =     270.90 seconds =       4.52 minutes
	total time  =        602 seconds =      10.03 minutes

  //>>>>>>>>>>>>>>>>>>>>>>>>>>>>>>>>>>>//
  //            Monomer A HF           //
  //<<<<<<<<<<<<<<<<<<<<<<<<<<<<<<<<<<<//

   => Libint2 <=

    Primary   basis highest AM E, G, H:  5, 4, 3
    Auxiliary basis highest AM E, G, H:  6, 5, 4
    Onebody   basis highest AM E, G, H:  6, 5, 4
    Solid Harmonics ordering:            gaussian

*** tstart() called on n2cn0545
*** at Sat Feb 10 11:59:53 2024

   => Loading Basis Set <=

    Name: JUN-CC-PVDZ
    Role: ORBITAL
    Keyword: BASIS
    atoms 1-2, 4-5, 10, 17-70 entry C          line   164 file /opt/software/pc2/EB-SW/software/PSI4/1.9-foss-2022a/share/psi4/basis/jun-cc-pvdz.gbs 
    atoms 3, 6                entry N          line   198 file /opt/software/pc2/EB-SW/software/PSI4/1.9-foss-2022a/share/psi4/basis/jun-cc-pvdz.gbs 
    atoms 7-9, 11-16, 71-88   entry H          line    36 file /opt/software/pc2/EB-SW/software/PSI4/1.9-foss-2022a/share/psi4/basis/jun-cc-pvdz.gbs 


         ---------------------------------------------------------
                                   SCF
               by Justin Turney, Rob Parrish, Andy Simmonett
                          and Daniel G. A. Smith
                              RHF Reference
                       16 Threads,  45776 MiB Core
         ---------------------------------------------------------

  ==> Geometry <==

    Molecular point group: c1
    Full point group: C1

    Geometry (in Angstrom), charge = 1, multiplicity = 1:

       Center              X                  Y                   Z               Mass       
    ------------   -----------------  -----------------  -----------------  -----------------
         C            0.680066520158    -1.215933861162     1.840937064974    12.000000000000
         C           -0.680504479842    -1.215549861162     1.838909064974    12.000000000000
         N           -1.085635479842     0.102774138838     1.837911064974    14.003074004430
         C            0.000107520158     0.884175138838     1.834635064974    12.000000000000
         C           -2.477365479842     0.570753138838     1.788505064974    12.000000000000
         N            1.085221520158     0.102774138838     1.837911064974    14.003074004430
         H            1.385145520158    -2.033372861162     1.848765064974     1.007825032230
         H           -1.385302479842    -2.033218861162     1.839099064974     1.007825032230
         H           -0.000009479842     1.965264138838     1.832888064974     1.007825032230
         C            2.478116520158     0.567872138838     1.854803064974    12.000000000000
         H            2.490591520158     1.658125138838     1.827458064974     1.007825032230
         H            2.967027520158     0.220696138838     2.768249064974     1.007825032230
         H            3.001427520158     0.176400138838     0.979320064974     1.007825032230
         H           -2.857359479842     0.490794138838     0.766434064974     1.007825032230
         H           -3.082679479842    -0.042310861162     2.458589064974     1.007825032230
         H           -2.518128479842     1.610701138838     2.115489064974     1.007825032230
      Gh(C)           1.225311895423     0.707533799757    -0.260967307742    12.000000000000
      Gh(C)           1.225323856051    -0.707543383733    -0.273298117312    12.000000000000
      Gh(C)          -0.000006153932     1.414961424928    -0.273831740833    12.000000000000
      Gh(C)           2.456448753949     1.418323398016    -0.258080450342    12.000000000000
      Gh(C)           0.000010827279    -1.414980987797    -0.263632183509    12.000000000000
      Gh(C)          -1.225300948908     0.707540884822    -0.258715787420    12.000000000000
      Gh(C)           2.456437755320    -1.418327793043    -0.275543274169    12.000000000000
      Gh(C)          -0.000001332978     2.836796542119    -0.276235290967    12.000000000000
      Gh(C)           3.681826697470     0.709313466839    -0.275194484371    12.000000000000
      Gh(C)           2.455120048865     2.834219172327    -0.275297041332    12.000000000000
      Gh(C)           3.681821105219    -0.709338328591    -0.259122000353    12.000000000000
      Gh(C)          -1.225313598688    -0.707532004706    -0.272225355885    12.000000000000
      Gh(C)           1.226699581202     3.543464994832    -0.258937968422    12.000000000000
      Gh(C)           0.000004784858    -2.836786628398    -0.258784015887    12.000000000000
      Gh(C)          -2.456436032848     1.418312429123    -0.258680391574    12.000000000000
      Gh(C)           2.455123417779    -2.834234517751    -0.259273908720    12.000000000000
      Gh(C)          -1.226714364589     3.543464574588    -0.258834635203    12.000000000000
      Gh(C)           4.914517295202     1.427168383327    -0.268713801342    12.000000000000
      Gh(C)           3.693150191476     3.542790803383    -0.268664001706    12.000000000000
      Gh(C)          -2.456437600068    -1.418317770001    -0.275568312294    12.000000000000
      Gh(C)           1.226704841943    -3.543478731069    -0.274908099172    12.000000000000
      Gh(C)          -2.455125398508     2.834212173472    -0.275290664986    12.000000000000
      Gh(C)           4.914524380782    -1.427191399106    -0.265741058607    12.000000000000
      Gh(C)           1.221424613699     4.970129576098    -0.265602624348    12.000000000000
      Gh(C)           4.893008229321     2.825183510864    -0.267497132983    12.000000000000
      Gh(C)          -1.226697008489    -3.543475486239    -0.274640894762    12.000000000000
      Gh(C)          -3.681818976526     0.709320477570    -0.275181803891    12.000000000000
      Gh(C)           3.693147101150    -3.542805830553    -0.265623168046    12.000000000000
      Gh(C)          -1.221432251994     4.970123808701    -0.265419128975    12.000000000000
      Gh(C)           6.134770972926     0.680543457943    -0.267944026792    12.000000000000
      Gh(C)           3.656788880610     4.972948754405    -0.267755363923    12.000000000000
      Gh(C)          -2.455126907733    -2.834219582223    -0.259518266519    12.000000000000
      Gh(C)          -3.681819179061    -0.709330192631    -0.259004378774    12.000000000000
      Gh(C)           4.893012617914    -2.825204594794    -0.266885981088    12.000000000000
      Gh(C)          -0.000001073113     5.650442876870    -0.266650437682    12.000000000000
      Gh(C)           6.134775112332    -0.680559343237    -0.266678706276    12.000000000000
      Gh(C)           2.478131482856     5.653572262169    -0.266466584273    12.000000000000
      Gh(C)           1.221422404738    -4.970131544095    -0.268402121370    12.000000000000
      Gh(C)          -3.693162383965     3.542792465030    -0.268498494246    12.000000000000
      Gh(C)          -1.221428520945    -4.970122792758    -0.268514883203    12.000000000000
      Gh(C)          -4.914521807942     1.427170957833    -0.268636856334    12.000000000000
      Gh(C)           3.656787019679    -4.972959715401    -0.266304863389    12.000000000000
      Gh(C)          -2.478138530106     5.653569933366    -0.266182059265    12.000000000000
      Gh(C)          -3.693141738564    -3.542794708141    -0.265739294202    12.000000000000
      Gh(C)          -4.914512483053    -1.427185489190    -0.265706361434    12.000000000000
      Gh(C)          -0.000006008926    -5.650442776176    -0.267045941803    12.000000000000
      Gh(C)          -4.893020484101     2.825184109757    -0.267507214843    12.000000000000
      Gh(C)           2.478125993298    -5.653578033051    -0.267395464181    12.000000000000
      Gh(C)          -3.656798710258     4.972951692879    -0.267578683548    12.000000000000
      Gh(C)          -4.892999478856    -2.825196256222    -0.267040016785    12.000000000000
      Gh(C)          -2.478128498083    -5.653570659169    -0.267670651828    12.000000000000
      Gh(C)          -6.134770503331     0.680544277094    -0.267969578494    12.000000000000
      Gh(C)          -3.656788833189    -4.972948512133    -0.266519151206    12.000000000000
      Gh(C)          -6.134765042913    -0.680558404644    -0.266699182071    12.000000000000
      Gh(H)           5.835288495816     3.369271405792    -0.263137807320     1.007825032230
      Gh(H)           7.073859172747     1.228212759737    -0.267482383399     1.007825032230
      Gh(H)           4.600663264174     5.512376313291    -0.267250163171     1.007825032230
      Gh(H)           5.835283387305    -3.369310545891    -0.271340448402     1.007825032230
      Gh(H)          -0.000012151306     6.738526184974    -0.270999682690     1.007825032230
      Gh(H)           7.073861171831    -1.228231431906    -0.267187444371     1.007825032230
      Gh(H)           2.473313731799     6.740679802232    -0.266933305204     1.007825032230
      Gh(H)           4.600668491381    -5.512380618338    -0.266714860557     1.007825032230
      Gh(H)          -2.473318680537     6.740677230444    -0.266631958579     1.007825032230
      Gh(H)          -0.000010268228    -6.738532665614    -0.262516256818     1.007825032230
      Gh(H)          -5.835301914343     3.369266461134    -0.263001785172     1.007825032230
      Gh(H)           2.473307923831    -6.740689863591    -0.266825133756     1.007825032230
      Gh(H)          -4.600674841208     5.512373537441    -0.267084834847     1.007825032230
      Gh(H)          -5.835279506835    -3.369293452942    -0.271619754283     1.007825032230
      Gh(H)          -2.473300347440    -6.740683567302    -0.267274450301     1.007825032230
      Gh(H)          -7.073857766768     1.228215983678    -0.267566374880     1.007825032230
      Gh(H)          -4.600673786085    -5.512367158949    -0.266887168580     1.007825032230
      Gh(H)          -7.073856934409    -1.228225121139    -0.267282300837     1.007825032230

  Running in c1 symmetry.

  Rotational constants: A =      0.00209  B =      0.00205  C =      0.00109 [cm^-1]
  Rotational constants: A =     62.78105  B =     61.47025  C =     32.56832 [MHz]
  Nuclear repulsion =  306.774908447733026

  Charge       = 1
  Multiplicity = 1
  Electrons    = 52
  Nalpha       = 26
  Nbeta        = 26

  ==> Algorithm <==

  SCF Algorithm Type is DF.
  DIIS enabled.
  MOM disabled.
  Fractional occupation disabled.
  Guess Type is SAD.
  Energy threshold   = 1.00e-08
  Density threshold  = 1.00e-08
  Integral threshold = 1.00e-12

  ==> Primary Basis <==

  Basis Set: JUN-CC-PVDZ
    Blend: JUN-CC-PVDZ
    Number of shells: 569
    Number of basis functions: 1233
    Number of Cartesian functions: 1294
    Spherical Harmonics?: true
    Max angular momentum: 2

   => Loading Basis Set <=

    Name: (JUN-CC-PVDZ AUX)
    Role: JKFIT
    Keyword: DF_BASIS_SCF
    atoms 1-2, 4-5, 10, 17-70 entry C          line   146 file /opt/software/pc2/EB-SW/software/PSI4/1.9-foss-2022a/share/psi4/basis/jun-cc-pvdz-jkfit.gbs 
    atoms 3, 6                entry N          line   202 file /opt/software/pc2/EB-SW/software/PSI4/1.9-foss-2022a/share/psi4/basis/jun-cc-pvdz-jkfit.gbs 
    atoms 7-9, 11-16, 71-88   entry H          line    70 file /opt/software/pc2/EB-SW/software/PSI4/1.9-foss-2022a/share/psi4/basis/jun-cc-pvdz-jkfit.gbs 

  ==> Integral Setup <==

  ==> DiskDFJK: Density-Fitted J/K Matrices <==

    J tasked:                  Yes
    K tasked:                  Yes
    wK tasked:                  No
    OpenMP threads:             16
    Integrals threads:          16
    Memory [MiB]:            34332
    Algorithm:                Core
    Integral Cache:           LOAD
    Schwarz Cutoff:          1E-12
    Fitting Condition:       1E-10

   => Auxiliary Basis Set <=

  Basis Set: (JUN-CC-PVDZ AUX)
    Blend: JUN-CC-PVDZ-JKFIT
    Number of shells: 1890
    Number of basis functions: 5440
    Number of Cartesian functions: 6226
    Spherical Harmonics?: true
    Max angular momentum: 3

  Minimum eigenvalue in the overlap matrix is 1.8026389489E-10.
  Reciprocal condition number of the overlap matrix is 6.2004873653E-12.
    Using canonical orthogonalization.
  Overall, 15 of 1233 possible MOs eliminated.


  ==> Pre-Iterations <==

  SCF Guess: Superposition of Atomic Densities via on-the-fly atomic UHF (no occupation information).

   -------------------------
    Irrep   Nso     Nmo    
   -------------------------
     A       1233    1218 
   -------------------------
    Total    1233    1218
   -------------------------

  ==> Iterations <==

                           Total Energy        Delta E     RMS |[F,P]|

   @DF-RHF iter SAD:  -303.36542487710977   -3.03365e+02   0.00000e+00 
   @DF-RHF iter   1:  -303.17376983491113    1.91655e-01   3.47425e-04 ADIIS/DIIS
   @DF-RHF iter   2:  -303.28833976424949   -1.14570e-01   1.16840e-04 ADIIS/DIIS
   @DF-RHF iter   3:  -303.29995505288974   -1.16153e-02   4.58462e-05 DIIS
   @DF-RHF iter   4:  -303.30190457277638   -1.94952e-03   1.01666e-05 DIIS
   @DF-RHF iter   5:  -303.30201676110562   -1.12188e-04   2.48195e-06 DIIS
   @DF-RHF iter   6:  -303.30202674068903   -9.97958e-06   6.76633e-07 DIIS
   @DF-RHF iter   7:  -303.30202789580875   -1.15512e-06   3.50958e-07 DIIS
   @DF-RHF iter   8:  -303.30202818406968   -2.88261e-07   1.42454e-07 DIIS
   @DF-RHF iter   9:  -303.30202824093084   -5.68612e-08   3.52414e-08 DIIS
   @DF-RHF iter  10:  -303.30202824399197   -3.06113e-09   1.31656e-08 DIIS
   @DF-RHF iter  11:  -303.30202824425101   -2.59035e-10   3.21619e-09 DIIS
  Energy and wave function converged.


  ==> Post-Iterations <==

    Orbital Energies [Eh]
    ---------------------

    Doubly Occupied:                                                      

       1A    -15.834748     2A    -15.834200     3A    -11.528694  
       4A    -11.459449     5A    -11.457882     6A    -11.448972  
       7A    -11.448758     8A     -1.576840     9A     -1.432569  
      10A     -1.237552    11A     -1.188359    12A     -1.118120  
      13A     -1.021368    14A     -0.995943    15A     -0.916132  
      16A     -0.849861    17A     -0.815379    18A     -0.812045  
      19A     -0.789147    20A     -0.785813    21A     -0.780897  
      22A     -0.729091    23A     -0.725181    24A     -0.716816  
      25A     -0.595326    26A     -0.523317  

    Virtual:                                                              

      27A     -0.081035    28A     -0.071743    29A     -0.064475  
      30A     -0.064286    31A     -0.046444    32A     -0.045161  
      33A     -0.044544    34A     -0.040182    35A     -0.034662  
      36A     -0.029406    37A     -0.024362    38A     -0.024006  
      39A     -0.020425    40A     -0.017760    41A     -0.016839  
      42A     -0.013711    43A     -0.009335    44A     -0.005222  
      45A      0.000042    46A      0.000316    47A      0.003608  
      48A      0.003713    49A      0.006504    50A      0.006850  
      51A      0.011550    52A      0.012075    53A      0.013296  
      54A      0.019539    55A      0.024334    56A      0.024397  
      57A      0.028653    58A      0.029281    59A      0.030953  
      60A      0.031637    61A      0.032709    62A      0.035553  
      63A      0.036553    64A      0.040018    65A      0.040553  
      66A      0.043751    67A      0.045954    68A      0.048789  
      69A      0.052808    70A      0.055456    71A      0.056594  
      72A      0.057676    73A      0.058956    74A      0.059932  
      75A      0.060706    76A      0.061557    77A      0.061919  
      78A      0.063216    79A      0.064602    80A      0.067196  
      81A      0.069175    82A      0.073605    83A      0.075164  
      84A      0.076178    85A      0.080410    86A      0.080773  
      87A      0.080998    88A      0.082668    89A      0.083416  
      90A      0.085585    91A      0.087902    92A      0.089169  
      93A      0.092284    94A      0.093518    95A      0.093816  
      96A      0.094509    97A      0.095288    98A      0.100517  
      99A      0.101088   100A      0.104221   101A      0.105209  
     102A      0.107051   103A      0.107544   104A      0.108076  
     105A      0.109604   106A      0.110596   107A      0.111237  
     108A      0.113234   109A      0.118375   110A      0.120601  
     111A      0.122585   112A      0.123591   113A      0.126121  
     114A      0.127375   115A      0.127776   116A      0.129735  
     117A      0.131770   118A      0.132597   119A      0.133695  
     120A      0.135684   121A      0.136247   122A      0.137101  
     123A      0.138516   124A      0.140764   125A      0.141380  
     126A      0.144900   127A      0.147684   128A      0.148714  
     129A      0.149279   130A      0.151677   131A      0.152568  
     132A      0.153554   133A      0.154424   134A      0.157006  
     135A      0.158992   136A      0.160831   137A      0.162748  
     138A      0.164172   139A      0.164705   140A      0.165823  
     141A      0.166305   142A      0.167277   143A      0.169416  
     144A      0.170663   145A      0.172121   146A      0.172740  
     147A      0.176740   148A      0.177107   149A      0.178096  
     150A      0.180655   151A      0.182878   152A      0.184050  
     153A      0.186887   154A      0.189722   155A      0.190715  
     156A      0.192274   157A      0.192987   158A      0.195889  
     159A      0.196404   160A      0.198833   161A      0.200476  
     162A      0.201426   163A      0.203882   164A      0.204443  
     165A      0.205869   166A      0.206936   167A      0.212188  
     168A      0.213600   169A      0.214135   170A      0.216936  
     171A      0.217091   172A      0.218412   173A      0.219253  
     174A      0.220191   175A      0.220504   176A      0.221404  
     177A      0.224635   178A      0.225274   179A      0.227887  
     180A      0.231445   181A      0.232423   182A      0.234482  
     183A      0.237255   184A      0.238630   185A      0.240357  
     186A      0.244051   187A      0.244846   188A      0.248008  
     189A      0.248917   190A      0.252293   191A      0.253181  
     192A      0.256191   193A      0.257370   194A      0.258479  
     195A      0.259888   196A      0.262887   197A      0.263693  
     198A      0.264974   199A      0.265819   200A      0.267902  
     201A      0.269946   202A      0.271716   203A      0.273067  
     204A      0.273899   205A      0.277052   206A      0.277240  
     207A      0.279318   208A      0.280626   209A      0.284487  
     210A      0.285222   211A      0.288306   212A      0.288750  
     213A      0.290779   214A      0.292828   215A      0.295991  
     216A      0.298114   217A      0.298584   218A      0.299678  
     219A      0.304244   220A      0.306815   221A      0.307672  
     222A      0.308194   223A      0.308979   224A      0.311407  
     225A      0.315065   226A      0.316349   227A      0.318974  
     228A      0.320713   229A      0.324388   230A      0.325220  
     231A      0.327762   232A      0.329585   233A      0.332759  
     234A      0.333675   235A      0.338247   236A      0.338959  
     237A      0.342977   238A      0.344471   239A      0.346898  
     240A      0.349392   241A      0.353171   242A      0.354164  
     243A      0.355198   244A      0.358366   245A      0.360338  
     246A      0.361535   247A      0.364345   248A      0.364929  
     249A      0.367290   250A      0.368051   251A      0.368727  
     252A      0.371778   253A      0.374153   254A      0.374545  
     255A      0.376693   256A      0.378603   257A      0.379916  
     258A      0.382745   259A      0.383935   260A      0.384727  
     261A      0.386347   262A      0.387096   263A      0.388225  
     264A      0.390114   265A      0.395288   266A      0.397547  
     267A      0.399568   268A      0.400835   269A      0.403070  
     270A      0.404463   271A      0.405680   272A      0.407175  
     273A      0.408787   274A      0.413150   275A      0.413964  
     276A      0.415066   277A      0.418574   278A      0.421082  
     279A      0.424038   280A      0.425132   281A      0.426829  
     282A      0.430659   283A      0.434488   284A      0.435771  
     285A      0.437978   286A      0.439861   287A      0.441552  
     288A      0.442259   289A      0.443407   290A      0.446082  
     291A      0.448668   292A      0.449617   293A      0.451097  
     294A      0.452217   295A      0.453650   296A      0.456179  
     297A      0.459546   298A      0.461076   299A      0.461639  
     300A      0.463255   301A      0.465854   302A      0.468636  
     303A      0.475412   304A      0.477119   305A      0.479986  
     306A      0.482297   307A      0.483600   308A      0.486326  
     309A      0.488862   310A      0.490375   311A      0.491946  
     312A      0.492305   313A      0.496161   314A      0.498277  
     315A      0.500039   316A      0.502250   317A      0.506196  
     318A      0.507358   319A      0.508704   320A      0.513885  
     321A      0.514800   322A      0.515439   323A      0.517395  
     324A      0.519636   325A      0.522995   326A      0.526241  
     327A      0.527270   328A      0.530871   329A      0.534531  
     330A      0.536943   331A      0.537938   332A      0.540302  
     333A      0.543529   334A      0.544634   335A      0.547468  
     336A      0.549376   337A      0.551206   338A      0.551847  
     339A      0.556631   340A      0.556969   341A      0.560608  
     342A      0.561911   343A      0.564774   344A      0.566509  
     345A      0.567808   346A      0.569626   347A      0.571185  
     348A      0.573864   349A      0.575063   350A      0.578929  
     351A      0.579773   352A      0.581245   353A      0.583748  
     354A      0.588063   355A      0.588424   356A      0.590191  
     357A      0.592859   358A      0.593544   359A      0.596143  
     360A      0.598943   361A      0.601384   362A      0.606250  
     363A      0.608816   364A      0.610702   365A      0.612257  
     366A      0.613999   367A      0.618501   368A      0.624352  
     369A      0.627602   370A      0.631197   371A      0.631873  
     372A      0.635382   373A      0.642397   374A      0.645804  
     375A      0.647447   376A      0.649501   377A      0.652186  
     378A      0.655302   379A      0.658776   380A      0.660173  
     381A      0.662993   382A      0.664957   383A      0.666852  
     384A      0.668340   385A      0.668951   386A      0.670826  
     387A      0.671242   388A      0.673478   389A      0.675060  
     390A      0.677859   391A      0.680096   392A      0.685992  
     393A      0.688440   394A      0.693538   395A      0.697068  
     396A      0.699021   397A      0.700203   398A      0.705113  
     399A      0.709047   400A      0.710165   401A      0.712692  
     402A      0.714926   403A      0.718421   404A      0.723989  
     405A      0.726872   406A      0.734507   407A      0.744221  
     408A      0.752341   409A      0.753883   410A      0.761423  
     411A      0.761475   412A      0.762347   413A      0.768312  
     414A      0.772377   415A      0.773444   416A      0.775533  
     417A      0.777314   418A      0.787871   419A      0.790840  
     420A      0.797500   421A      0.799778   422A      0.801034  
     423A      0.805596   424A      0.807680   425A      0.810340  
     426A      0.819505   427A      0.827417   428A      0.828819  
     429A      0.835183   430A      0.843290   431A      0.850964  
     432A      0.853086   433A      0.862706   434A      0.866434  
     435A      0.870284   436A      0.873394   437A      0.878817  
     438A      0.883095   439A      0.889721   440A      0.893658  
     441A      0.896587   442A      0.905678   443A      0.908896  
     444A      0.909732   445A      0.911059   446A      0.919902  
     447A      0.923026   448A      0.929629   449A      0.934539  
     450A      0.946953   451A      0.952731   452A      0.956270  
     453A      0.959633   454A      0.966237   455A      0.971724  
     456A      0.972816   457A      0.977553   458A      0.985114  
     459A      0.989865   460A      0.997781   461A      1.000252  
     462A      1.008103   463A      1.008405   464A      1.012268  
     465A      1.018713   466A      1.025002   467A      1.038709  
     468A      1.041959   469A      1.046390   470A      1.054165  
     471A      1.057271   472A      1.062461   473A      1.064580  
     474A      1.069420   475A      1.079275   476A      1.085525  
     477A      1.088907   478A      1.091879   479A      1.095191  
     480A      1.097161   481A      1.102758   482A      1.108709  
     483A      1.113121   484A      1.119808   485A      1.121971  
     486A      1.138464   487A      1.139339   488A      1.144646  
     489A      1.172866   490A      1.181988   491A      1.187009  
     492A      1.192195   493A      1.196106   494A      1.198991  
     495A      1.201738   496A      1.208162   497A      1.219943  
     498A      1.222511   499A      1.223581   500A      1.225561  
     501A      1.235892   502A      1.236701   503A      1.247454  
     504A      1.262675   505A      1.275994   506A      1.285815  
     507A      1.287563   508A      1.294660   509A      1.298661  
     510A      1.313622   511A      1.326326   512A      1.339403  
     513A      1.339458   514A      1.351322   515A      1.352477  
     516A      1.358500   517A      1.360315   518A      1.368290  
     519A      1.371002   520A      1.398612   521A      1.402261  
     522A      1.417325   523A      1.426862   524A      1.434335  
     525A      1.446297   526A      1.449811   527A      1.458760  
     528A      1.466135   529A      1.467165   530A      1.470557  
     531A      1.497804   532A      1.502347   533A      1.518542  
     534A      1.524434   535A      1.533878   536A      1.541780  
     537A      1.544481   538A      1.558754   539A      1.565875  
     540A      1.574364   541A      1.580837   542A      1.584271  
     543A      1.587042   544A      1.591347   545A      1.597072  
     546A      1.601702   547A      1.609268   548A      1.621657  
     549A      1.628361   550A      1.631657   551A      1.636160  
     552A      1.639606   553A      1.644645   554A      1.650675  
     555A      1.660489   556A      1.664508   557A      1.668291  
     558A      1.673256   559A      1.676240   560A      1.677478  
     561A      1.684679   562A      1.687309   563A      1.688560  
     564A      1.692800   565A      1.698127   566A      1.701665  
     567A      1.710574   568A      1.711216   569A      1.713244  
     570A      1.715920   571A      1.720913   572A      1.726424  
     573A      1.727489   574A      1.733022   575A      1.734079  
     576A      1.736547   577A      1.743341   578A      1.744455  
     579A      1.750650   580A      1.754014   581A      1.757476  
     582A      1.759789   583A      1.762015   584A      1.765626  
     585A      1.770483   586A      1.773632   587A      1.776061  
     588A      1.778576   589A      1.781013   590A      1.783212  
     591A      1.785381   592A      1.788259   593A      1.792095  
[...]
     832A      1.859658   833A      1.863036   834A      1.868207  
     835A      1.869024   836A      1.871353   837A      1.871774  
     838A      1.874651   839A      1.877913   840A      1.882295  
     841A      1.882824   842A      1.894861   843A      1.896101  
     844A      1.896678   845A      1.901891   846A      1.905110  
     847A      1.908713   848A      1.911310   849A      1.913075  
     850A      1.913652   851A      1.916305   852A      1.919763  
     853A      1.925401   854A      1.926017   855A      1.927053  
     856A      1.934197   857A      1.936918   858A      1.939978  
     859A      1.943811   860A      1.949618   861A      1.949701  
     862A      1.950628   863A      1.955351   864A      1.956179  
     865A      1.958114   866A      1.959430   867A      1.962731  
     868A      1.963628   869A      1.977966   870A      1.984783  
     871A      1.987216   872A      1.988761   873A      1.995459  
     874A      1.996775   875A      2.006582   876A      2.007991  
     877A      2.012319   878A      2.013636   879A      2.015911  
     880A      2.017567   881A      2.021595   882A      2.025656  
     883A      2.027056   884A      2.031825   885A      2.033759  
     886A      2.034693   887A      2.036583   888A      2.039815  
     889A      2.046514   890A      2.051962   891A      2.053064  
     892A      2.056272   893A      2.058637   894A      2.062154  
     895A      2.063662   896A      2.067629   897A      2.070993  
     898A      2.074225   899A      2.077853   900A      2.079428  
     901A      2.082985   902A      2.085184   903A      2.090419  
     904A      2.092764   905A      2.093597   906A      2.095521  
     907A      2.097227   908A      2.099908   909A      2.101814  
     910A      2.102899   911A      2.104403   912A      2.105499  
     913A      2.110441   914A      2.111315   915A      2.113029  
     916A      2.115777   917A      2.116664   918A      2.118650  
     919A      2.120458   920A      2.122011   921A      2.125527  
     922A      2.127328   923A      2.128296   924A      2.130399  
     925A      2.133402   926A      2.134127   927A      2.136784  
     928A      2.137226   929A      2.141105   930A      2.143400  
     931A      2.145972   932A      2.150872   933A      2.155938  
     934A      2.158619   935A      2.164253   936A      2.164737  
     937A      2.166951   938A      2.173633   939A      2.174506  
     940A      2.177306   941A      2.185482   942A      2.189552  
     943A      2.190807   944A      2.193813   945A      2.196143  
     946A      2.202441   947A      2.206282   948A      2.208812  
     949A      2.209877   950A      2.215310   951A      2.224732  
     952A      2.230740   953A      2.237461   954A      2.238341  
     955A      2.240326   956A      2.243283   957A      2.244174  
     958A      2.248449   959A      2.249002   960A      2.250905  
     961A      2.255345   962A      2.256411   963A      2.260557  
     964A      2.261661   965A      2.263084   966A      2.270333  
     967A      2.273853   968A      2.276834   969A      2.277766  
     970A      2.282586   971A      2.283670   972A      2.289281  
     973A      2.292791   974A      2.297037   975A      2.305554  
     976A      2.306527   977A      2.317003   978A      2.324473  
     979A      2.331257   980A      2.334723   981A      2.342133  
     982A      2.344750   983A      2.346427   984A      2.351384  
     985A      2.354556   986A      2.358874   987A      2.361258  
     988A      2.369046   989A      2.374745   990A      2.379415  
     991A      2.390345   992A      2.393345   993A      2.403876  
     994A      2.408698   995A      2.409401   996A      2.415699  
     997A      2.419111   998A      2.420679   999A      2.424455  
    1000A      2.433689  1001A      2.442128  1002A      2.445177  
    1003A      2.466269  1004A      2.471171  1005A      2.480394  
    1006A      2.483939  1007A      2.489947  1008A      2.492932  
    1009A      2.497856  1010A      2.505717  1011A      2.507279  
    1012A      2.514880  1013A      2.516154  1014A      2.523791  
    1015A      2.526203  1016A      2.528156  1017A      2.533116  
    1018A      2.536270  1019A      2.538655  1020A      2.542594  
    1021A      2.545334  1022A      2.548354  1023A      2.555133  
    1024A      2.556693  1025A      2.558292  1026A      2.560351  
    1027A      2.563827  1028A      2.567963  1029A      2.569015  
    1030A      2.571644  1031A      2.577563  1032A      2.580579  
    1033A      2.583756  1034A      2.594389  1035A      2.596074  
    1036A      2.597114  1037A      2.604573  1038A      2.604829  
    1039A      2.611542  1040A      2.613377  1041A      2.617808  
    1042A      2.621624  1043A      2.628296  1044A      2.633331  
    1045A      2.639655  1046A      2.644468  1047A      2.647954  
    1048A      2.652770  1049A      2.659207  1050A      2.663427  
    1051A      2.665679  1052A      2.667724  1053A      2.677433  
    1054A      2.682665  1055A      2.686749  1056A      2.694608  
    1057A      2.695119  1058A      2.700308  1059A      2.701564  
    1060A      2.708627  1061A      2.712916  1062A      2.716913  
    1063A      2.720407  1064A      2.724036  1065A      2.728644  
    1066A      2.730916  1067A      2.736043  1068A      2.738988  
    1069A      2.743178  1070A      2.759193  1071A      2.774676  
    1072A      2.776299  1073A      2.779529  1074A      2.789652  
    1075A      2.799333  1076A      2.813638  1077A      2.818844  
    1078A      2.826950  1079A      2.830008  1080A      2.834148  
    1081A      2.843631  1082A      2.850098  1083A      2.850744  
    1084A      2.855303  1085A      2.858831  1086A      2.868037  
    1087A      2.876701  1088A      2.882824  1089A      2.888551  
    1090A      2.897825  1091A      2.910209  1092A      2.915232  
    1093A      2.922203  1094A      2.933003  1095A      2.935915  
    1096A      2.942608  1097A      2.946435  1098A      2.955466  
    1099A      2.964774  1100A      2.969008  1101A      2.974156  
    1102A      2.985839  1103A      2.997170  1104A      3.007999  
    1105A      3.017549  1106A      3.025610  1107A      3.035003  
    1108A      3.047910  1109A      3.049127  1110A      3.062447  
    1111A      3.074290  1112A      3.077237  1113A      3.090153  
    1114A      3.094982  1115A      3.098063  1116A      3.107452  
    1117A      3.112558  1118A      3.124647  1119A      3.128723  
    1120A      3.136297  1121A      3.142850  1122A      3.144784  
    1123A      3.149415  1124A      3.153663  1125A      3.154299  
    1126A      3.160914  1127A      3.166813  1128A      3.169999  
    1129A      3.175794  1130A      3.180958  1131A      3.186758  
    1132A      3.200170  1133A      3.212998  1134A      3.215840  
    1135A      3.234871  1136A      3.246142  1137A      3.252191  
    1138A      3.259141  1139A      3.269346  1140A      3.287483  
    1141A      3.294001  1142A      3.299203  1143A      3.320192  
    1144A      3.330961  1145A      3.340550  1146A      3.381947  
    1147A      3.383063  1148A      3.418659  1149A      3.421081  
    1150A      3.425632  1151A      3.444940  1152A      3.470613  
    1153A      3.494835  1154A      3.505020  1155A      3.515327  
    1156A      3.532326  1157A      3.549532  1158A      3.576236  
    1159A      3.586411  1160A      3.605728  1161A      3.624736  
    1162A      3.652668  1163A      3.657147  1164A      3.663607  
    1165A      3.695832  1166A      3.700910  1167A      3.705997  
    1168A      3.710770  1169A      3.733677  1170A      3.758178  
    1171A      3.787853  1172A      3.807293  1173A      3.836334  
    1174A      3.863609  1175A      3.878929  1176A      3.883353  
    1177A      3.911356  1178A      3.920322  1179A      3.935359  
    1180A      3.952207  1181A      4.007417  1182A      4.011745  
    1183A      4.026152  1184A      4.036604  1185A      4.104272  
    1186A      4.136994  1187A      4.229133  1188A      4.259018  
    1189A      4.420489  1190A      4.460626  1191A      4.492822  
    1192A      4.524655  1193A      4.682311  1194A      4.805185  
    1195A      4.863174  1196A      4.995272  1197A      5.077653  
    1198A      5.100155  1199A      5.145914  1200A      5.166777  
    1201A      5.202686  1202A      5.249464  1203A      5.284731  
    1204A      5.307131  1205A      5.367112  1206A      5.429189  
    1207A      5.507254  1208A      5.553072  1209A      5.866328  
    1210A      5.927214  1211A      6.127303  1212A     18.273412  
    1213A     18.566668  1214A     18.612355  1215A     18.735517  
    1216A     19.137813  1217A     25.393816  1218A     25.438178  

    Final Occupation by Irrep:
              A 
    DOCC [   171 ]
    NA   [   171 ]
    NB   [   171 ]

  @DF-RHF Final Energy: -2055.89872220566349

   => Energetics <=

    Nuclear Repulsion Energy =           6452.5568002797781446
    One-Electron Energy =              -15636.5865180167002109
    Two-Electron Energy =                7128.1309955312572129
    Total Energy =                      -2055.8987222056639439

Computation Completed


Properties will be evaluated at   0.000000,   0.000000,   0.000000 [a0]

Properties computed using the SCF density matrix


 Multipole Moments:

 ------------------------------------------------------------------------------------
     Multipole            Electronic (a.u.)      Nuclear  (a.u.)        Total (a.u.)
 ------------------------------------------------------------------------------------

 L = 1.  Multiply by 2.5417464519 to convert [e a0] to [Debye]
 Dipole X            :         -0.0005912           -0.0000085           -0.0005997
 Dipole Y            :         -0.0000102           -0.0028843           -0.0028944
 Dipole Z            :        172.6328127         -172.6277125            0.0051003
 Magnitude           :                                                    0.0058949

 ------------------------------------------------------------------------------------

*** tstop() called on n2cn0545 at Sat Feb 10 12:07:26 2024
Module time:
	user time   =    4067.29 seconds =      67.79 minutes
	system time =     131.20 seconds =       2.19 minutes
	total time  =        294 seconds =       4.90 minutes
Total time:
	user time   =   13726.57 seconds =     228.78 minutes
	system time =     435.52 seconds =       7.26 minutes
	total time  =       1055 seconds =      17.58 minutes
  Constructing Basis Sets for SAPT...

   => Loading Basis Set <=

    Name: (JUN-CC-PVDZ AUX)
    Role: RIFIT
    Keyword: DF_BASIS_SAPT
    atoms 1-2, 4-5, 10, 17-70 entry C          line   100 file /opt/software/pc2/EB-SW/software/PSI4/1.9-foss-2022a/share/psi4/basis/jun-cc-pvdz-ri.gbs 
    atoms 3, 6                entry N          line   144 file /opt/software/pc2/EB-SW/software/PSI4/1.9-foss-2022a/share/psi4/basis/jun-cc-pvdz-ri.gbs 
    atoms 7-9, 11-16, 71-88   entry H          line    30 file /opt/software/pc2/EB-SW/software/PSI4/1.9-foss-2022a/share/psi4/basis/jun-cc-pvdz-ri.gbs 

   => Loading Basis Set <=

    Name: (JUN-CC-PVDZ AUX)
    Role: JKFIT
    Keyword: DF_BASIS_ELST
    atoms 1-2, 4-5, 10, 17-70 entry C          line   146 file /opt/software/pc2/EB-SW/software/PSI4/1.9-foss-2022a/share/psi4/basis/jun-cc-pvdz-jkfit.gbs 
    atoms 3, 6                entry N          line   202 file /opt/software/pc2/EB-SW/software/PSI4/1.9-foss-2022a/share/psi4/basis/jun-cc-pvdz-jkfit.gbs 
    atoms 7-9, 11-16, 71-88   entry H          line    70 file /opt/software/pc2/EB-SW/software/PSI4/1.9-foss-2022a/share/psi4/basis/jun-cc-pvdz-jkfit.gbs 


  //>>>>>>>>>>>>>>>>>>>>>>>>>>>>>>>>>>>//
  //               SSAPT0              //
  //<<<<<<<<<<<<<<<<<<<<<<<<<<<<<<<<<<<//


*** tstart() called on n2cn0545
*** at Sat Feb 10 12:07:27 2024

        SAPT0  
    Ed Hohenstein
     6 June 2009

      Orbital Information
  --------------------------
    NSO        =      1233
    NMO        =      1218
    NRI        =      4343
    NRI (Elst) =      5440
    NOCC A     =        26
    NOCC B     =       171
    FOCC A     =         7
    FOCC B     =        54
    NVIR A     =      1192
    NVIR B     =      1047

    Elst10,r            =    -0.439553661179 [Eh]
    Exch10              =     1.182601427482 [Eh]
    Exch10 (S^2)        =     1.065912317798 [Eh]

    Iter     Energy [mEh]          dE [mEh]         Residual      Time [s]
       1    -265.23476882     265.234768823     103.118188003            19
       2    -316.83937814      51.604609312      36.865816320            44
       3    -331.07339151      14.234013372       8.517748970            62
       4    -330.81914533      -0.254246178       3.015635924            78
       5    -330.08062239      -0.738522937       0.552398247            95
       6    -330.10193572       0.021313328       0.286811091           111
       7    -330.13646083       0.034525108       0.090642748           128
       8    -330.13080168      -0.005659152       0.035574196           144
       9    -330.12912216      -0.001679513       0.011906488           162
      10    -330.12977332       0.000651159       0.003519954           182
      11    -330.12987879       0.000105472       0.001053945           196
      12    -330.12984339      -0.000035409       0.000378564           210
      13    -330.12982987      -0.000013517       0.000112995           223
      14    -330.12983406       0.000004193       0.000051586           236
      15    -330.12983608       0.000002020       0.000019942           249
      16    -330.12983503      -0.000001056       0.000006042           263
      17    -330.12983505       0.000000026       0.000001904           276
      18    -330.12983513       0.000000078       0.000000640           290

    CHF Iterations converged


    Iter     Energy [mEh]          dE [mEh]         Residual      Time [s]
       1    -325.53887091     325.538870906     164.977749742            22
       2    -328.75807585       3.219204947      51.300553882            40
       3    -364.25477247      35.496696614      20.059001641            65
       4    -369.60892178       5.354149314       5.253601958            82
       5    -368.60553102      -1.003390765       2.269147655           100
       6    -368.23073785      -0.374793165       0.947017077           118
       7    -368.32829352       0.097555669       0.574623833           137
       8    -368.41459860       0.086305082       0.208743529           156
       9    -368.40158543      -0.013013176       0.117200825           175
      10    -368.39013860      -0.011446827       0.059978089           194
      11    -368.39090236       0.000763757       0.033258751           213
      12    -368.39383577       0.002933417       0.016135916           232
      13    -368.39385848       0.000022706       0.007732602           251
      14    -368.39321594      -0.000642538       0.004197704           271
      15    -368.39307818      -0.000137758       0.002010594           291
      16    -368.39325594       0.000177755       0.000998634           310
      17    -368.39328701       0.000031078       0.000593919           329
      18    -368.39325082      -0.000036199       0.000401138           349
      19    -368.39323482      -0.000015993       0.000206367           368
      20    -368.39324618       0.000011353       0.000102319           388
      21    -368.39325071       0.000004535       0.000043341           407
      22    -368.39324861      -0.000002097       0.000023183           427
      23    -368.39324751      -0.000001106       0.000011383           447
      24    -368.39324790       0.000000390       0.000005851           467
      25    -368.39324819       0.000000290       0.000002566           487
      26    -368.39324815      -0.000000038       0.000001059           507
      27    -368.39324809      -0.000000062       0.000000426           526

    CHF Iterations converged

    Ind20,r (A<-B)      =    -0.330129835129 [Eh]
    Ind20,r (B<-A)      =    -0.368393248088 [Eh]
    Ind20,r             =    -0.698523083217 [Eh]
    Exch-Ind20,r (A<-B) =     0.245402470122 [Eh]
    Exch-Ind20,r (B<-A) =     0.257716417421 [Eh]
    Exch-Ind20,r        =     0.503118887543 [Eh]
    Disp20              =    -0.303700807044 [Eh]
    Disp20 (SS)         =    -0.151850403522 [Eh]
    Disp20 (OS)         =    -0.151850403522 [Eh]
    Exch-Disp20         =     0.065805646001 [Eh]
    Exch-Disp20 (SS)    =     0.038117036977 [Eh]
    Exch-Disp20 (OS)    =     0.027688609023 [Eh]

    SAPT Results 
  --------------------------------------------------------------------------------------------------------
    Electrostatics               -439.55366118 [mEh]    -275.82408662 [kcal/mol]   -1154.04797843 [kJ/mol]
      Elst10,r                   -439.55366118 [mEh]    -275.82408662 [kcal/mol]   -1154.04797843 [kJ/mol]

    Exchange                     1182.60142748 [mEh]     742.09359945 [kcal/mol]    3104.91962009 [kJ/mol]
      Exch10                     1182.60142748 [mEh]     742.09359945 [kcal/mol]    3104.91962009 [kJ/mol]
      Exch10(S^2)                1065.91231780 [mEh]     668.87007763 [kcal/mol]    2798.55240482 [kJ/mol]

    Induction                    -114.02322725 [mEh]     -71.55065533 [kcal/mol]    -299.36794190 [kJ/mol]
      Ind20,r                    -698.52308322 [mEh]    -438.32985237 [kcal/mol]   -1833.97210232 [kJ/mol]
      Exch-Ind20,r                503.11888754 [mEh]     315.71186837 [kcal/mol]    1320.93845726 [kJ/mol]
      delta HF,r (2)               81.38096843 [mEh]      51.06732867 [kcal/mol]     213.66570316 [kJ/mol]

    Dispersion                   -237.89516104 [mEh]    -149.28146732 [kcal/mol]    -624.59365927 [kJ/mol]
      Disp20                     -303.70080704 [mEh]    -190.57513361 [kcal/mol]    -797.36635904 [kJ/mol]
      Exch-Disp20                  65.80564600 [mEh]      41.29366629 [kcal/mol]     172.77269977 [kJ/mol]
      Disp20 (SS)                -151.85040352 [mEh]     -95.28756681 [kcal/mol]    -398.68317952 [kJ/mol]
      Disp20 (OS)                -151.85040352 [mEh]     -95.28756681 [kcal/mol]    -398.68317952 [kJ/mol]
      Exch-Disp20 (SS)             38.11703698 [mEh]      23.91880182 [kcal/mol]     100.07626680 [kJ/mol]
      Exch-Disp20 (OS)             27.68860902 [mEh]      17.37486448 [kcal/mol]      72.69643298 [kJ/mol]

  Total HF                        629.02453905 [mEh]     394.71885750 [kcal/mol]    1651.50369976 [kJ/mol]
  Total SAPT0                     391.12937801 [mEh]     245.43739017 [kcal/mol]    1026.91004049 [kJ/mol]

  Special recipe for scaled SAPT0 (see Manual):
    Electrostatics sSAPT0        -439.55366118 [mEh]    -275.82408662 [kcal/mol]   -1154.04797843 [kJ/mol]
    Exchange sSAPT0              1182.60142748 [mEh]     742.09359945 [kcal/mol]    3104.91962009 [kJ/mol]
    Induction sSAPT0               69.96014223 [mEh]      43.90065203 [kcal/mol]     183.68032811 [kJ/mol]
    Dispersion sSAPT0            -213.83097904 [mEh]    -134.18096513 [kcal/mol]    -561.41315811 [kJ/mol]
  Total sSAPT0                    599.17692949 [mEh]     375.98919973 [kcal/mol]    1573.13881166 [kJ/mol]
  --------------------------------------------------------------------------------------------------------

*** tstop() called on n2cn0545 at Sat Feb 10 12:40:30 2024
Module time:
	user time   =   14465.21 seconds =     241.09 minutes
	system time =     839.73 seconds =      14.00 minutes
	total time  =       1983 seconds =      33.05 minutes
Total time:
	user time   =   28192.66 seconds =     469.88 minutes
	system time =    1275.25 seconds =      21.25 minutes
	total time  =       3039 seconds =      50.65 minutes

    Psi4 stopped on: Saturday, 10 February 2024 12:40PM
    Psi4 wall time for execution: 0:50:40.70

*** Psi4 exiting successfully. Buy a developer a beer!
