
    -----------------------------------------------------------------------
          Psi4: An Open-Source Ab Initio Electronic Structure Package
                               Psi4 1.9 release

                         Git: Rev {} zzzzzzz 


    D. G. A. Smith, L. A. Burns, A. C. Simmonett, R. M. Parrish,
    M. C. Schieber, R. Galvelis, P. Kraus, H. Kruse, R. Di Remigio,
    A. Alenaizan, A. M. James, S. Lehtola, J. P. Misiewicz, M. Scheurer,
    R. A. Shaw, J. B. Schriber, Y. Xie, Z. L. Glick, D. A. Sirianni,
    J. S. O'Brien, J. M. Waldrop, A. Kumar, E. G. Hohenstein,
    B. P. Pritchard, B. R. Brooks, H. F. Schaefer III, A. Yu. Sokolov,
    K. Patkowski, A. E. DePrince III, U. Bozkaya, R. A. King,
    F. A. Evangelista, J. M. Turney, T. D. Crawford, C. D. Sherrill,
    J. Chem. Phys. 152(18) 184108 (2020). https://doi.org/10.1063/5.0006002

                            Additional Code Authors
    E. T. Seidl, C. L. Janssen, E. F. Valeev, M. L. Leininger,
    J. F. Gonthier, R. M. Richard, H. R. McAlexander, M. Saitow, X. Wang,
    P. Verma, M. H. Lechner, A. Jiang, S. Behnle, A. G. Heide,
    M. F. Herbst, and D. L. Poole

             Previous Authors, Complete List of Code Contributors,
                       and Citations for Specific Modules
    https://github.com/psi4/psi4/blob/master/codemeta.json
    https://github.com/psi4/psi4/graphs/contributors
    http://psicode.org/psi4manual/master/introduction.html#citing-psifour

    -----------------------------------------------------------------------


    Psi4 started on: Wednesday, 24 January 2024 10:36PM

    Process ID: 4056015
    Host:       n2cn0793
    PSIDATADIR: /opt/software/pc2/EB-SW/software/PSI4/1.9-foss-2022a/share/psi4
    Memory:     500.0 MiB
    Threads:    16
    
  ==> Input File <==

--------------------------------------------------------------------------
memory 47 GB # how much memory is available ! Depends on the nodes/cores !

molecule dimer {
# monomer A
-1 1    # Charge and multiplicity
B -1.977592e-04  2.742729e-04 6.800034
F  1.123153e-16  1.430594e-17 8.212819
F  1.147860e+00  6.757812e-01 6.328893
F  1.191806e-02 -1.332011e+00 6.329095
F -1.159666e+00  6.560735e-01 6.329174
--
# monomer B
0 1     # Charge and multiplicity
C   -3.66844126402057      7.80375217008252      0.00190004133558
C   -4.84759871934653      7.13124183134024     -0.00046653359696
C   -4.89495929917518      5.69633040353158     -0.00103944469517
C   -3.65374067877320      4.98073034095895      0.00662099703436
C   -2.40942512149445      7.11398103667468      0.00209438359570
C   -2.42547734410473      5.68112195090346     -0.00491050527438
C   -1.19474401643570      7.78614419430947      0.00356656413763
C   0.03795902893699      7.09942164575698      0.00139585983271
C   0.03033258741920      5.66948955970466     -0.00408752508301
C   -1.20098450790502      4.96927034791531      0.00488220885047
C   1.27795782581485      7.77285944319479      0.00277170839332
C   2.48535808472416      7.08769688523756      0.00049722048857
C   2.48612868491717      5.65477081024076     -0.00644052849921
C   1.25408291964399      4.95607811366431      0.00518741308898
C   3.75171459140595      7.76391215098033      0.00062407186893
C   4.92356605618520      7.07878077698995     -0.00143240883900
C   4.95560727132542      5.64344746336949     -0.00159282164606
C   3.70680153420475      4.94121020833308      0.00349873852374
H   -3.65852113775815      8.89082741913536      0.00358502958574
H   -1.18921332975660      8.87412108735996      0.00753844057883
H   1.28429423888630      8.86083343548850      0.00693053253426
H   3.75354208679975      8.85103527897216      0.00214659618464
H   5.86995870320703      7.61379483465560     -0.00235777588134
H   -5.78823170750226      7.67630221293400     -0.00202638095293
C   -6.09197395869619      4.99326001364347     -0.00291168518608
C   -6.12866148031747      3.58258016879823     -0.00171050815740
C   -3.66457974004527      3.56418217974434     -0.00463560277484
C   -4.89429820469869      2.86108077590057      0.00453338221034
C   -2.43733499489796      2.84761165708481      0.00719617576166
C   -1.20922785759670      3.54788693497833     -0.00648285103018
C   1.24714157216223      3.53468075142962     -0.00729145743546
C   0.01517603956900      2.83311183930540      0.00439272578912
C   2.46764517244071      2.82128997725533      0.00449278391269
C   3.70254947457969      3.52466015442405     -0.00899517692985
C   6.14498038638375      4.92757236613191     -0.00282626685777
C   6.16658835886151      3.51658447594213     -0.00065971342101
C   4.92460995845939      2.80840792535402      0.00587903281610
H   7.08990550964105      5.46688776622306     -0.00658814770723
H   -7.03104175110130      5.54268795285765     -0.00714490013730
C   -7.33969804112295      2.85841153457957     -0.00333767559888
C   -7.36488195805880      1.47032337158330     -0.00157213747140
C   -4.90350460894690      1.44442681216000     -0.00628840166334
C   -6.13225715261081      0.73993935705394      0.00600164231964
C   -3.67687480051673      0.72669714267312      0.00433931473643
C   -2.44565658606518      1.42964113326212     -0.00597039546461
C   -1.22360068130162      0.71532450163492      0.00545886906656
C   0.00763786931376      1.41738314923765      0.00392452278437
C   1.23121980774686      0.70211669058719     -0.01490206287210
C   2.46082110053113      1.40329203612573      0.00460244601878
C   3.68443025419614      0.68719842821222      0.00377365974158
C   4.91870890153864      1.39173456118907     -0.00862816189375
C   7.36980207796101      2.77948220318441     -0.00242013321349
C   7.38016266612146      1.39121750785509     -0.00087345036788
C   6.13979953912259      0.67411862320065      0.00545489144369
H   -8.27919079934664      3.40711804112415     -0.00763522772059
H   8.31511347147953      3.31811809662368     -0.00663070901292
C   -8.59175593758115      0.72483255304480     -0.00123170985383
C   -8.59902460370342     -0.63263980622873      0.00089141472904
C   -6.13981313911873     -0.67413663715361     -0.00609792660607
C   -7.38018411213749     -1.39126618958160      0.00131813493501
C   -4.91868448025621     -1.39175501803000      0.00624257154343
C   -3.68443829568458     -0.68723731573599     -0.00478966852105
C   -2.46081704024768     -1.40334517882457      0.00575341766833
C   -1.23116201232071     -0.70217386488055     -0.00636696112346
C   -0.00756962538737     -1.41741884941102      0.00108956317991
C   1.22364771588843     -0.71527537726392      0.01109518512883
C   2.44567064933149     -1.42964328900682     -0.00065482763106
C   3.67686670284649     -0.72670743155550     -0.00479541202602
C   6.13224884641929     -0.73997883984993     -0.00632338623858
C   4.90351914550401     -1.44445752054090      0.00751768830159
C   8.59901484869081      0.63260386666793     -0.00101133422380
C   8.59174548810050     -0.72485086719319      0.00072504603735
C   7.36486276438985     -1.47033266560598      0.00049486934466
H   -9.52830597181814      1.27684744919284     -0.00270163681798
H   9.54141097460619      1.17457248844457     -0.00206336648518
C   -7.36983790976868     -2.77954514593389      0.00312634335708
C   -4.92459910905015     -2.80843725734101     -0.00460528907921
C   -6.16662249566744     -3.51665219282533      0.00169655107992
C   -3.70251035970491     -3.52468154912026      0.00571878010666
C   -2.46764698511392     -2.82132596280400     -0.00632585824990
C   -0.01513347410770     -2.83314164539971     -0.00604426974092
C   -1.24712184122656     -3.53473217556300      0.00551968366725
C   1.20924506964357     -3.54791467864352      0.00805871345849
C   2.43733602215464     -2.84764173817541     -0.00608104485234
C   4.89430234377080     -2.86112296828604     -0.00526030478103
C   3.66461525504104     -3.56421984553201      0.00761911515957
C   6.12863901474565     -3.58258405771778      0.00096495711699
C   7.33967266469532     -2.85841330737039      0.00248018319869
H   -9.54144911125902     -1.17456346666430      0.00226083090216
H   9.52826186807155     -1.27691907390448      0.00197485379837
H   -8.31516504384864     -3.31814985321231      0.00729857188773
H   8.27915514249207     -3.40714078989363      0.00681973918158
C   -6.14499418870218     -4.92764727278338      0.00302254913999
C   -3.70678334799751     -4.94126171411716     -0.00679841894792
C   -4.95559005800169     -5.64349397349412      0.00116871569699
C   -2.48612132622665     -5.65478557440947      0.00614125209662
C   -1.25405833548005     -4.95612205000132     -0.00503435388927
C   1.20101257386816     -4.96928038819302     -0.00385322963129
C   -0.03033667441341     -5.66952030313900      0.00398997003238
C   3.65375010132847     -4.98074377541453     -0.00309522988330
C   2.42549269587528     -5.68117463552727      0.00628170066869
C   6.09196561781097     -4.99325796338655      0.00325918379042
C   4.89497644461045     -5.69634842095790      0.00202298796027
H   -7.08989238804069     -5.46699984223871      0.00742531082125
H   7.03105520920009     -5.54265853633254      0.00683896355417
C   -4.92354532219813     -7.07882109967734      0.00061394679214
C   -2.48534208823777     -7.08772807792913     -0.00189594564379
C   -3.75168589177895     -7.76394715763627     -0.00170126671874
C   -0.03794895698805     -7.09946487446944     -0.00168022049625
C   -1.27795610040136     -7.77290438466689     -0.00366491325785
C   2.40944432072629     -7.11402201200282     -0.00081701968533
C   1.19474993715296     -7.78618536556242     -0.00296931056689
C   4.84762105249800     -7.13126211057943      0.00168979497423
C   3.66847160587561     -7.80378799294376     -0.00065863938960
H   -5.86994035041618     -7.61383059804164      0.00215798365757
H   5.78824962538815     -7.67633218931421      0.00281691445618
H   -3.75352693944918     -8.85107156923607     -0.00353718114765
H   -1.28430440589466     -8.86087539249706     -0.00809229711623
H   1.18922157469537     -8.87416062058945     -0.00706194725726
H   3.65854661482387     -8.89086063405326     -0.00231318081200

    units angstrom      # Angstroms are the default
    no_reorient         # Geometry fixed, default
    symmetry c1         # C1 symmetry, default
}

set {
    scf_type DF         # Density fitting, faster than exact integrals
    freeze_core True    # Freeze core electrons
    basis jun-cc-pVDZ   # Jun-cc-pVDZ basis set, recommended for sSAPT0 in https://doi.org/10.1063/1.4867135
}

energy('ssapt0')        # Compute sSAPT0 energy, includes also SAPT0
--------------------------------------------------------------------------

  Memory set to  43.772 GiB by Python driver.

Scratch directory: /tmp/
   => Loading Basis Set <=

    Name: JUN-CC-PVDZ
    Role: ORBITAL
    Keyword: BASIS
    atoms 1                                                   entry B          line   130 file /opt/software/pc2/EB-SW/software/PSI4/1.9-foss-2022a/share/psi4/basis/jun-cc-pvdz.gbs 
    atoms 2-5                                                 entry F          line   266 file /opt/software/pc2/EB-SW/software/PSI4/1.9-foss-2022a/share/psi4/basis/jun-cc-pvdz.gbs 
    atoms 6-23, 30-42, 45-59, 62-78, 81-93, 98-108, 111-119   entry C          line   164 file /opt/software/pc2/EB-SW/software/PSI4/1.9-foss-2022a/share/psi4/basis/jun-cc-pvdz.gbs 
    atoms 24-29, 43-44, 60-61, 79-80, 94-97, 109-110, 120-125 entry H          line    36 file /opt/software/pc2/EB-SW/software/PSI4/1.9-foss-2022a/share/psi4/basis/jun-cc-pvdz.gbs 

   => Loading Basis Set <=

    Name: JUN-CC-PVDZ
    Role: ORBITAL
    Keyword: BASIS
    atoms 1                                                   entry B          line   130 file /opt/software/pc2/EB-SW/software/PSI4/1.9-foss-2022a/share/psi4/basis/jun-cc-pvdz.gbs 
    atoms 2-5                                                 entry F          line   266 file /opt/software/pc2/EB-SW/software/PSI4/1.9-foss-2022a/share/psi4/basis/jun-cc-pvdz.gbs 
    atoms 6-23, 30-42, 45-59, 62-78, 81-93, 98-108, 111-119   entry C          line   164 file /opt/software/pc2/EB-SW/software/PSI4/1.9-foss-2022a/share/psi4/basis/jun-cc-pvdz.gbs 
    atoms 24-29, 43-44, 60-61, 79-80, 94-97, 109-110, 120-125 entry H          line    36 file /opt/software/pc2/EB-SW/software/PSI4/1.9-foss-2022a/share/psi4/basis/jun-cc-pvdz.gbs 


  //>>>>>>>>>>>>>>>>>>>>>>>>>>>>>>>>>>>//
  //              Dimer HF             //
  //<<<<<<<<<<<<<<<<<<<<<<<<<<<<<<<<<<<//

   => Libint2 <=

    Primary   basis highest AM E, G, H:  5, 4, 3
    Auxiliary basis highest AM E, G, H:  6, 5, 4
    Onebody   basis highest AM E, G, H:  6, 5, 4
    Solid Harmonics ordering:            gaussian

*** tstart() called on n2cn0793
*** at Wed Jan 24 22:36:51 2024

   => Loading Basis Set <=

    Name: JUN-CC-PVDZ
    Role: ORBITAL
    Keyword: BASIS
    atoms 1                                                   entry B          line   130 file /opt/software/pc2/EB-SW/software/PSI4/1.9-foss-2022a/share/psi4/basis/jun-cc-pvdz.gbs 
    atoms 2-5                                                 entry F          line   266 file /opt/software/pc2/EB-SW/software/PSI4/1.9-foss-2022a/share/psi4/basis/jun-cc-pvdz.gbs 
    atoms 6-23, 30-42, 45-59, 62-78, 81-93, 98-108, 111-119   entry C          line   164 file /opt/software/pc2/EB-SW/software/PSI4/1.9-foss-2022a/share/psi4/basis/jun-cc-pvdz.gbs 
    atoms 24-29, 43-44, 60-61, 79-80, 94-97, 109-110, 120-125 entry H          line    36 file /opt/software/pc2/EB-SW/software/PSI4/1.9-foss-2022a/share/psi4/basis/jun-cc-pvdz.gbs 


         ---------------------------------------------------------
                                   SCF
               by Justin Turney, Rob Parrish, Andy Simmonett
                          and Daniel G. A. Smith
                              RHF Reference
                       16 Threads,  44822 MiB Core
         ---------------------------------------------------------

  ==> Geometry <==

    Molecular point group: c1
    Full point group: C1

    Geometry (in Angstrom), charge = -1, multiplicity = 1:

       Center              X                  Y                   Z               Mass       
    ------------   -----------------  -----------------  -----------------  -----------------
         B           -0.000201921932     0.000288800891     6.331677327459    11.009305360000
         F           -0.000004162732     0.000014527991     7.744462327459    18.998403162730
         F            1.147855837268     0.675795727991     5.860536327459    18.998403162730
         F            0.011913897268    -1.331996472009     5.860738327459    18.998403162730
         F           -1.159670162732     0.656088027991     5.860817327459    18.998403162730
         C           -3.668445426752     7.803766698073    -0.466456631206    12.000000000000
         C           -4.847602882078     7.131256359331    -0.468823206138    12.000000000000
         C           -4.894963461907     5.696344931522    -0.469396117236    12.000000000000
         C           -3.653744841505     4.980744868950    -0.461735675507    12.000000000000
         C           -2.409429284226     7.113995564665    -0.466262288946    12.000000000000
         C           -2.425481506836     5.681136478894    -0.473267177816    12.000000000000
         C           -1.194748179167     7.786158722300    -0.464790108404    12.000000000000
         C            0.037954866205     7.099436173748    -0.466960812709    12.000000000000
         C            0.030328424687     5.669504087695    -0.472444197624    12.000000000000
         C           -1.200988670637     4.969284875906    -0.463474463691    12.000000000000
         C            1.277953663083     7.772873971185    -0.465584964148    12.000000000000
         C            2.485353921992     7.087711413228    -0.467859452053    12.000000000000
         C            2.486124522185     5.654785338231    -0.474797201040    12.000000000000
         C            1.254078756912     4.956092641655    -0.463169259452    12.000000000000
         C            3.751710428674     7.763926678971    -0.467732600672    12.000000000000
         C            4.923561893453     7.078795304981    -0.469789081380    12.000000000000
         C            4.955603108594     5.643461991360    -0.469949494187    12.000000000000
         C            3.706797371473     4.941224736324    -0.464857934018    12.000000000000
         H           -3.658525300490     8.890841947126    -0.464771642956     1.007825032230
         H           -1.189217492488     8.874135615351    -0.460818231962     1.007825032230
         H            1.284290076155     8.860847963479    -0.461426140007     1.007825032230
         H            3.753537924068     8.851049806963    -0.466210076357     1.007825032230
         H            5.869954540475     7.613809362646    -0.470714448423     1.007825032230
         H           -5.788235870234     7.676316740925    -0.470383053494     1.007825032230
         C           -6.091978121428     4.993274541634    -0.471268357727    12.000000000000
         C           -6.128665643049     3.582594696789    -0.470067180699    12.000000000000
         C           -3.664583902777     3.564196707735    -0.472992275316    12.000000000000
         C           -4.894302367430     2.861095303891    -0.463823290331    12.000000000000
         C           -2.437339157630     2.847626185075    -0.461160496780    12.000000000000
         C           -1.209232020328     3.547901462969    -0.474839523571    12.000000000000
         C            1.247137409430     3.534695279420    -0.475648129977    12.000000000000
         C            0.015171876837     2.833126367296    -0.463963946752    12.000000000000
         C            2.467641009709     2.821304505246    -0.463863888629    12.000000000000
         C            3.702545311848     3.524674682415    -0.477351849471    12.000000000000
         C            6.144976223652     4.927586894122    -0.471182939399    12.000000000000
         C            6.166584196130     3.516599003933    -0.469016385962    12.000000000000
         C            4.924605795728     2.808422453345    -0.462477639725    12.000000000000
         H            7.089901346909     5.466902294214    -0.474944820248     1.007825032230
         H           -7.031045913833     5.542702480848    -0.475501572679     1.007825032230
         C           -7.339702203855     2.858426062570    -0.471694348140    12.000000000000
         C           -7.364886120791     1.470337899574    -0.469928810013    12.000000000000
         C           -4.903508771679     1.444441340151    -0.474645074205    12.000000000000
         C           -6.132261315343     0.739953885044    -0.462355030222    12.000000000000
         C           -3.676878963248     0.726711670664    -0.464017357805    12.000000000000
         C           -2.445660748797     1.429655661253    -0.474327068006    12.000000000000
         C           -1.223604844033     0.715339029625    -0.462897803475    12.000000000000
         C            0.007633706582     1.417397677228    -0.464432149757    12.000000000000
         C            1.231215645015     0.702131218578    -0.483258735413    12.000000000000
         C            2.460816937799     1.403306564116    -0.463754226522    12.000000000000
         C            3.684426091464     0.687212956203    -0.464583012800    12.000000000000
         C            4.918704738807     1.391749089180    -0.476984834435    12.000000000000
         C            7.369797915229     2.779496731175    -0.470776805755    12.000000000000
         C            7.380158503390     1.391232035846    -0.469230122909    12.000000000000
         C            6.139795376391     0.674133151191    -0.462901781098    12.000000000000
         H           -8.279194962078     3.407132569115    -0.475991900262     1.007825032230
         H            8.315109308748     3.318132624614    -0.474987381554     1.007825032230
         C           -8.591760100313     0.724847081035    -0.469588382395    12.000000000000
         C           -8.599028766435    -0.632625278238    -0.467465257812    12.000000000000
         C           -6.139817301850    -0.674122109163    -0.474454599147    12.000000000000
         C           -7.380188274869    -1.391251661591    -0.467038537606    12.000000000000
         C           -4.918688642988    -1.391740490039    -0.462114100998    12.000000000000
         C           -3.684442458416    -0.687222787745    -0.473146341062    12.000000000000
         C           -2.460821202979    -1.403330650834    -0.462603254873    12.000000000000
         C           -1.231166175052    -0.702159336890    -0.474723633665    12.000000000000
         C           -0.007573788119    -1.417404321420    -0.467267109361    12.000000000000
         C            1.223643553157    -0.715260849273    -0.457261487412    12.000000000000
         C            2.445666486600    -1.429628761016    -0.469011500172    12.000000000000
         C            3.676862540115    -0.726692903565    -0.473152084567    12.000000000000
         C            6.132244683688    -0.739964311859    -0.474680058780    12.000000000000
         C            4.903514982772    -1.444442992550    -0.460838984240    12.000000000000
         C            8.599010685959     0.632618394658    -0.469368006765    12.000000000000
         C            8.591741325369    -0.724836339203    -0.467631626504    12.000000000000
         C            7.364858601658    -1.470318137615    -0.467861803197    12.000000000000
         H           -9.528310134550     1.276861977183    -0.471058309359     1.007825032230
         H            9.541406811874     1.174587016435    -0.470420039026     1.007825032230
         C           -7.369842072500    -2.779530617943    -0.465230329184    12.000000000000
         C           -4.924603271782    -2.808422729350    -0.472961961620    12.000000000000
         C           -6.166626658399    -3.516637664835    -0.466660121461    12.000000000000
         C           -3.702514522437    -3.524667021130    -0.462637892435    12.000000000000
         C           -2.467651147846    -2.821311434813    -0.474682530791    12.000000000000
         C           -0.015137636839    -2.833127117409    -0.474400942282    12.000000000000
         C           -1.247126003958    -3.534717647572    -0.462836988874    12.000000000000
         C            1.209240906912    -3.547900150653    -0.460297959083    12.000000000000
         C            2.437331859423    -2.847627210185    -0.474437717394    12.000000000000
         C            4.894298181039    -2.861108440295    -0.473616977322    12.000000000000
         C            3.664611092309    -3.564205317541    -0.460737557382    12.000000000000
         C            6.128634852014    -3.582569529727    -0.467391715424    12.000000000000
         C            7.339668501964    -2.858398779380    -0.465876489343    12.000000000000
         H           -9.541453273991    -1.174548938674    -0.466095841639     1.007825032230
         H            9.528257705340    -1.276904545914    -0.466381818743     1.007825032230
         H           -8.315169206580    -3.318135325222    -0.461058100654     1.007825032230
         H            8.279150979760    -3.407126261903    -0.461536933360     1.007825032230
         C           -6.144998351434    -4.927632744793    -0.465334123401    12.000000000000
         C           -3.706787510729    -4.941247186127    -0.475155091489    12.000000000000
         C           -4.955594220733    -5.643479445504    -0.467187956844    12.000000000000
         C           -2.486125488958    -5.654771046419    -0.462215420445    12.000000000000
         C           -1.254062498212    -4.956107522011    -0.473391026431    12.000000000000
         C            1.201008411136    -4.969265860202    -0.472209902173    12.000000000000
         C           -0.030340837145    -5.669505775148    -0.464366702509    12.000000000000
         C            3.653745938597    -4.980729247424    -0.471451902425    12.000000000000
         C            2.425488533144    -5.681160107537    -0.462074971873    12.000000000000
         C            6.091961455079    -4.993243435396    -0.465097488751    12.000000000000
         C            4.894972281879    -5.696333892967    -0.466333684581    12.000000000000
         H           -7.089896550772    -5.466985314248    -0.460931361720     1.007825032230
         H            7.031051046468    -5.542644008342    -0.461517708987     1.007825032230
         C           -4.923549484930    -7.078806571687    -0.467742725749    12.000000000000
         C           -2.485346250970    -7.087713549939    -0.470252618185    12.000000000000
         C           -3.751690054511    -7.763932629646    -0.470057939260    12.000000000000
         C           -0.037953119720    -7.099450346479    -0.470036893038    12.000000000000
         C           -1.277960263133    -7.772889856676    -0.472021585799    12.000000000000
         C            2.409440157995    -7.114007484012    -0.469173692227    12.000000000000
         C            1.194745774421    -7.786170837572    -0.471325983108    12.000000000000
         C            4.847616889766    -7.131247582589    -0.466666877567    12.000000000000
         C            3.668467443144    -7.803773464953    -0.469015311931    12.000000000000
         H           -5.869944513148    -7.613816070051    -0.466198688884     1.007825032230
         H            5.788245462656    -7.676317661324    -0.465539758085     1.007825032230
         H           -3.753531102181    -8.851057041246    -0.471893853689     1.007825032230
         H           -1.284308568626    -8.860860864507    -0.476448969657     1.007825032230
         H            1.189217411964    -8.874146092599    -0.475418619799     1.007825032230
         H            3.658542452092    -8.890846106063    -0.470669853353     1.007825032230

  Running in c1 symmetry.

  Rotational constants: A =      0.00061  B =      0.00061  C =      0.00035 [cm^-1]
  Rotational constants: A =     18.21624  B =     18.21342  C =     10.55117 [MHz]
  Nuclear repulsion = 17222.500540139648365

  Charge       = -1
  Multiplicity = 1
  Electrons    = 642
  Nalpha       = 321
  Nbeta        = 321

  ==> Algorithm <==

  SCF Algorithm Type is DF.
  DIIS enabled.
  MOM disabled.
  Fractional occupation disabled.
  Guess Type is SAD.
  Energy threshold   = 1.00e-08
  Density threshold  = 1.00e-08
  Integral threshold = 1.00e-12

  ==> Primary Basis <==

  Basis Set: JUN-CC-PVDZ
    Blend: JUN-CC-PVDZ
    Number of shells: 880
    Number of basis functions: 1938
    Number of Cartesian functions: 2039
    Spherical Harmonics?: true
    Max angular momentum: 2

   => Loading Basis Set <=

    Name: (JUN-CC-PVDZ AUX)
    Role: JKFIT
    Keyword: DF_BASIS_SCF
    atoms 1                                                   entry B          line    90 file /opt/software/pc2/EB-SW/software/PSI4/1.9-foss-2022a/share/psi4/basis/jun-cc-pvdz-jkfit.gbs 
    atoms 2-5                                                 entry F          line   314 file /opt/software/pc2/EB-SW/software/PSI4/1.9-foss-2022a/share/psi4/basis/jun-cc-pvdz-jkfit.gbs 
    atoms 6-23, 30-42, 45-59, 62-78, 81-93, 98-108, 111-119   entry C          line   146 file /opt/software/pc2/EB-SW/software/PSI4/1.9-foss-2022a/share/psi4/basis/jun-cc-pvdz-jkfit.gbs 
    atoms 24-29, 43-44, 60-61, 79-80, 94-97, 109-110, 120-125 entry H          line    70 file /opt/software/pc2/EB-SW/software/PSI4/1.9-foss-2022a/share/psi4/basis/jun-cc-pvdz-jkfit.gbs 

  ==> Integral Setup <==

  ==> DiskDFJK: Density-Fitted J/K Matrices <==

    J tasked:                  Yes
    K tasked:                  Yes
    wK tasked:                  No
    OpenMP threads:             16
    Integrals threads:          16
    Memory [MiB]:            33617
    Algorithm:                Disk
    Integral Cache:           SAVE
    Schwarz Cutoff:          1E-12
    Fitting Condition:       1E-10

   => Auxiliary Basis Set <=

  Basis Set: (JUN-CC-PVDZ AUX)
    Blend: JUN-CC-PVDZ-JKFIT
    Number of shells: 2943
    Number of basis functions: 8531
    Number of Cartesian functions: 9791
    Spherical Harmonics?: true
    Max angular momentum: 3

  Minimum eigenvalue in the overlap matrix is 9.0429162452E-11.
  Reciprocal condition number of the overlap matrix is 3.9636070509E-12.
    Using canonical orthogonalization.
  Overall, 38 of 1938 possible MOs eliminated.


  ==> Pre-Iterations <==

  SCF Guess: Superposition of Atomic Densities via on-the-fly atomic UHF (no occupation information).

   -------------------------
    Irrep   Nso     Nmo    
   -------------------------
     A       1938    1900 
   -------------------------
    Total    1938    1900
   -------------------------

  ==> Iterations <==

                           Total Energy        Delta E     RMS |[F,P]|

   @DF-RHF iter SAD: -4084.99909598583008   -4.08500e+03   0.00000e+00 
   @DF-RHF iter   1: -4071.52346007148299    1.34756e+01   7.88401e-04 DIIS/ADIIS
   @DF-RHF iter   2: -4072.91645875894574   -1.39300e+00   3.07507e-04 DIIS/ADIIS
   @DF-RHF iter   3: -4073.07846597614889   -1.62007e-01   1.01739e-04 DIIS/ADIIS
   @DF-RHF iter   4: -4073.10002193340370   -2.15560e-02   3.67901e-05 DIIS
   @DF-RHF iter   5: -4073.10321167041729   -3.18974e-03   1.06800e-05 DIIS
   @DF-RHF iter   6: -4073.10363170048004   -4.20030e-04   4.17461e-06 DIIS
   @DF-RHF iter   7: -4073.10380777609680   -1.76076e-04   2.12166e-06 DIIS
   @DF-RHF iter   8: -4073.10385981559511   -5.20395e-05   1.15087e-06 DIIS
   @DF-RHF iter   9: -4073.10387505719928   -1.52416e-05   3.49950e-07 DIIS
   @DF-RHF iter  10: -4073.10387600075319   -9.43554e-07   1.69740e-07 DIIS
   @DF-RHF iter  11: -4073.10387616404296   -1.63290e-07   6.20259e-08 DIIS
   @DF-RHF iter  12: -4073.10387619782614   -3.37832e-08   3.16936e-08 DIIS
   @DF-RHF iter  13: -4073.10387620509437   -7.26823e-09   1.07881e-08 DIIS
   @DF-RHF iter  14: -4073.10387620596566   -8.71296e-10   4.95319e-09 DIIS
  Energy and wave function converged.


  ==> Post-Iterations <==

    Orbital Energies [Eh]
    ---------------------

    Doubly Occupied:                                                      

       1A    -26.065406     2A    -26.065350     3A    -26.065313  
       4A    -26.065226     5A    -11.209753     6A    -11.209747  
       7A    -11.209741     8A    -11.209739     9A    -11.209731  
      10A    -11.209728    11A    -11.209715    12A    -11.209710  
      13A    -11.209705    14A    -11.209704    15A    -11.209698  
      16A    -11.209690    17A    -11.209518    18A    -11.209504  
      19A    -11.209496    20A    -11.209481    21A    -11.209467  
      22A    -11.209457    23A    -11.208191    24A    -11.208172  
      25A    -11.208169    26A    -11.208102    27A    -11.208102  
      28A    -11.208035    29A    -11.207993    30A    -11.207919  
      31A    -11.207915    32A    -11.207832    33A    -11.207829  
      34A    -11.207798    35A    -11.207253    36A    -11.207188  
      37A    -11.207183    38A    -11.207044    39A    -11.207042  
      40A    -11.206939    41A    -11.206694    42A    -11.206659  
      43A    -11.206658    44A    -11.206612    45A    -11.206605  
      46A    -11.206604    47A    -11.206475    48A    -11.206405  
      49A    -11.206304    50A    -11.206296    51A    -11.206211  
      52A    -11.206209    53A    -11.205944    54A    -11.205893  
      55A    -11.205892    56A    -11.205861    57A    -11.205854  
      58A    -11.205848    59A    -11.205774    60A    -11.205773  
      61A    -11.205704    62A    -11.205599    63A    -11.205597  
      64A    -11.205562    65A    -11.205559    66A    -11.205535  
      67A    -11.205531    68A    -11.205253    69A    -11.205252  
      70A    -11.205183    71A    -11.205128    72A    -11.205013  
      73A    -11.205007    74A    -11.204944    75A    -11.204941  
      76A    -11.204940    77A    -11.204939    78A    -11.204936  
      79A    -11.204933    80A    -11.204474    81A    -11.204458  
      82A    -11.204040    83A    -11.203484    84A    -11.203481  
      85A    -11.203480    86A    -11.203479    87A    -11.203476  
      88A    -11.203473    89A    -11.202061    90A    -11.202059  
      91A    -11.202047    92A    -11.202002    93A    -11.201997  
      94A    -11.201992    95A    -11.201970    96A    -11.201968  
      97A    -11.201956    98A    -11.201911    99A    -11.201906  
     100A    -11.201902   101A     -7.537595   102A     -1.409276  
     103A     -1.349560   104A     -1.349515   105A     -1.349373  
     106A     -1.198338   107A     -1.184681   108A     -1.184678  
     109A     -1.166953   110A     -1.166947   111A     -1.160837  
     112A     -1.148266   113A     -1.142408   114A     -1.133874  
     115A     -1.133871   116A     -1.121190   117A     -1.121186  
     118A     -1.101668   119A     -1.101662   120A     -1.098662  
     121A     -1.092379   122A     -1.092376   123A     -1.075312  
     124A     -1.060876   125A     -1.060845   126A     -1.059479  
     127A     -1.058621   128A     -1.058606   129A     -1.035319  
     130A     -1.035304   131A     -1.024791   132A     -1.024789  
     133A     -1.014084   134A     -1.014054   135A     -1.011123  
     136A     -0.993948   137A     -0.993940   138A     -0.987639  
     139A     -0.986557   140A     -0.986556   141A     -0.971410  
     142A     -0.966749   143A     -0.966699   144A     -0.954702  
     145A     -0.953364   146A     -0.950853   147A     -0.947077  
     148A     -0.947029   149A     -0.939217   150A     -0.917749  
     151A     -0.917703   152A     -0.903420   153A     -0.903365  
     154A     -0.853846   155A     -0.853805   156A     -0.851447  
     157A     -0.851404   158A     -0.849763   159A     -0.838062  
     160A     -0.838002   161A     -0.836491   162A     -0.836433  
     163A     -0.835997   164A     -0.820090   165A     -0.817961  
     166A     -0.799300   167A     -0.794334   168A     -0.794314  
     169A     -0.791779   170A     -0.789697   171A     -0.781902  
     172A     -0.781889   173A     -0.776373   174A     -0.776370  
     175A     -0.732799   176A     -0.732784   177A     -0.729985  
     178A     -0.729964   179A     -0.729405   180A     -0.729385  
     181A     -0.728527   182A     -0.714121   183A     -0.706931  
     184A     -0.697282   185A     -0.681713   186A     -0.674281  
     187A     -0.674268   188A     -0.672205   189A     -0.671715  
     190A     -0.671695   191A     -0.664810   192A     -0.660435  
     193A     -0.660428   194A     -0.647379   195A     -0.647368  
     196A     -0.633749   197A     -0.633748   198A     -0.632729  
     199A     -0.629621   200A     -0.629610   201A     -0.626193  
     202A     -0.601608   203A     -0.600546   204A     -0.598564  
     205A     -0.598534   206A     -0.597447   207A     -0.596504  
     208A     -0.596489   209A     -0.587854   210A     -0.587827  
     211A     -0.587712   212A     -0.586911   213A     -0.583144  
     214A     -0.583115   215A     -0.576471   216A     -0.563419  
     217A     -0.563392   218A     -0.561209   219A     -0.556514  
     220A     -0.556509   221A     -0.546208   222A     -0.545402  
     223A     -0.545389   224A     -0.545159   225A     -0.544371  
     226A     -0.544338   227A     -0.542990   228A     -0.542979  
     229A     -0.542454   230A     -0.540076   231A     -0.539095  
     232A     -0.539093   233A     -0.533629   234A     -0.526752  
     235A     -0.526748   236A     -0.526664   237A     -0.526560  
     238A     -0.526549   239A     -0.522004   240A     -0.522000  
     241A     -0.521128   242A     -0.515368   243A     -0.515355  
     244A     -0.514318   245A     -0.513886   246A     -0.513845  
     247A     -0.509684   248A     -0.506866   249A     -0.505767  
     250A     -0.505749   251A     -0.501496   252A     -0.497812  
     253A     -0.496613   254A     -0.491026   255A     -0.481365  
     256A     -0.481354   257A     -0.480191   258A     -0.480176  
     259A     -0.475839   260A     -0.475822   261A     -0.474211  
     262A     -0.464525   263A     -0.464493   264A     -0.462881  
     265A     -0.462875   266A     -0.457744   267A     -0.457726  
     268A     -0.445621   269A     -0.445579   270A     -0.445362  
     271A     -0.443586   272A     -0.443558   273A     -0.439515  
     274A     -0.439499   275A     -0.434846   276A     -0.429547  
     277A     -0.425258   278A     -0.425255   279A     -0.421655  
     280A     -0.415915   281A     -0.413599   282A     -0.413592  
     283A     -0.406779   284A     -0.406751   285A     -0.406670  
     286A     -0.405427   287A     -0.392485   288A     -0.392424  
     289A     -0.386897   290A     -0.386471   291A     -0.386432  
     292A     -0.383309   293A     -0.383261   294A     -0.383217  
     295A     -0.382829   296A     -0.381843   297A     -0.354105  
     298A     -0.354082   299A     -0.333896   300A     -0.333894  
     301A     -0.332380   302A     -0.332330   303A     -0.329424  
     304A     -0.301278   305A     -0.301261   306A     -0.297531  
     307A     -0.282629   308A     -0.280869   309A     -0.280864  
     310A     -0.279678   311A     -0.279608   312A     -0.252813  
     313A     -0.248138   314A     -0.247741   315A     -0.247680  
     316A     -0.233415   317A     -0.205347   318A     -0.199425  
     319A     -0.199374   320A     -0.151359   321A     -0.151272  

    Virtual:                                                              

     322A      0.041261   323A      0.041342   324A      0.087808  
     325A      0.088037   326A      0.088062   327A      0.089048  
     328A      0.089118   329A      0.090403   330A      0.090540  
     331A      0.090557   332A      0.095905   333A      0.098505  
     334A      0.103959   335A      0.103976   336A      0.115245  
     337A      0.115251   338A      0.119093   339A      0.119828  
     340A      0.123914   341A      0.123972   342A      0.124377  
     343A      0.126976   344A      0.127320   345A      0.127651  
     346A      0.129110   347A      0.129447   348A      0.129575  
     349A      0.130669   350A      0.135035   351A      0.135059  
     352A      0.135856   353A      0.139958   354A      0.139968  
     355A      0.140754   356A      0.142714   357A      0.142750  
     358A      0.147637   359A      0.151483   360A      0.151527  
     361A      0.152779   362A      0.154561   363A      0.155947  
     364A      0.157101   365A      0.157191   366A      0.158086  
     367A      0.158158   368A      0.161103   369A      0.162702  
     370A      0.163401   371A      0.163404   372A      0.163856  
     373A      0.163940   374A      0.170096   375A      0.170866  
     376A      0.170916   377A      0.172369   378A      0.173976  
     379A      0.174099   380A      0.178014   381A      0.178041  
     382A      0.182914   383A      0.185013   384A      0.185189  
     385A      0.190011   386A      0.190354   387A      0.190528  
     388A      0.190683   389A      0.190849   390A      0.195708  
     391A      0.196519   392A      0.196797   393A      0.200749  
     394A      0.204085   395A      0.204425   396A      0.205383  
     397A      0.205488   398A      0.205884   399A      0.206416  
     400A      0.206778   401A      0.209021   402A      0.209125  
     403A      0.210813   404A      0.210891   405A      0.214605  
     406A      0.214741   407A      0.214955   408A      0.215522  
     409A      0.215776   410A      0.216623   411A      0.218261  
     412A      0.218412   413A      0.224094   414A      0.225115  
     415A      0.227617   416A      0.227630   417A      0.233108  
     418A      0.233212   419A      0.235687   420A      0.235850  
     421A      0.235882   422A      0.237700   423A      0.240718  
     424A      0.241054   425A      0.242839   426A      0.243201  
     427A      0.243811   428A      0.243885   429A      0.249148  
     430A      0.249263   431A      0.249543   432A      0.250140  
     433A      0.250406   434A      0.250448   435A      0.251359  
     436A      0.251501   437A      0.254635   438A      0.259991  
     439A      0.260077   440A      0.260747   441A      0.260814  
     442A      0.261710   443A      0.261950   444A      0.262514  
     445A      0.264318   446A      0.264496   447A      0.264897  
     448A      0.264941   449A      0.266188   450A      0.266312  
     451A      0.267992   452A      0.268035   453A      0.269131  
     454A      0.269150   455A      0.272414   456A      0.272621  
     457A      0.274547   458A      0.275955   459A      0.276814  
     460A      0.278116   461A      0.280217   462A      0.282255  
     463A      0.283289   464A      0.283350   465A      0.284192  
     466A      0.286060   467A      0.286465   468A      0.286532  
     469A      0.288991   470A      0.289140   471A      0.292803  
     472A      0.294033   473A      0.296799   474A      0.300308  
     475A      0.301283   476A      0.301915   477A      0.303094  
     478A      0.304928   479A      0.305483   480A      0.305882  
     481A      0.306657   482A      0.307639   483A      0.308152  
     484A      0.308232   485A      0.309505   486A      0.309936  
     487A      0.311261   488A      0.311285   489A      0.315489  
     490A      0.315608   491A      0.316684   492A      0.316823  
     493A      0.316988   494A      0.320816   495A      0.320838  
     496A      0.327247   497A      0.328102   498A      0.328150  
     499A      0.330049   500A      0.330351   501A      0.332327  
     502A      0.332895   503A      0.333661   504A      0.333918  
     505A      0.335020   506A      0.335941   507A      0.337406  
     508A      0.337543   509A      0.338803   510A      0.342428  
     511A      0.344829   512A      0.344924   513A      0.346273  
     514A      0.347456   515A      0.348053   516A      0.349077  
     517A      0.349108   518A      0.352682   519A      0.354486  
     520A      0.354549   521A      0.355611   522A      0.355688  
     523A      0.357622   524A      0.357694   525A      0.358031  
     526A      0.358855   527A      0.360922   528A      0.360964  
     529A      0.361518   530A      0.362548   531A      0.362664  
     532A      0.365138   533A      0.365219   534A      0.365614  
     535A      0.369975   536A      0.370135   537A      0.370413  
     538A      0.371917   539A      0.372058   540A      0.376938  
     541A      0.376944   542A      0.377775   543A      0.378235  
     544A      0.378305   545A      0.378788   546A      0.378828  
     547A      0.379974   548A      0.380477   549A      0.381128  
     550A      0.381187   551A      0.384361   552A      0.386525  
     553A      0.388562   554A      0.388673   555A      0.389312  
     556A      0.391652   557A      0.391676   558A      0.393229  
     559A      0.395232   560A      0.395294   561A      0.395443  
     562A      0.397385   563A      0.402715   564A      0.403148  
     565A      0.404206   566A      0.405394   567A      0.405834  
     568A      0.406355   569A      0.406993   570A      0.407840  
     571A      0.407917   572A      0.408935   573A      0.410329  
     574A      0.410613   575A      0.413050   576A      0.413289  
     577A      0.416394   578A      0.416577   579A      0.416896  
     580A      0.418278   581A      0.418308   582A      0.418741  
     583A      0.424484   584A      0.426218   585A      0.426382  
     586A      0.427819   587A      0.427850   588A      0.428810  
     589A      0.430650   590A      0.430854   591A      0.432628  
     592A      0.432643   593A      0.437260   594A      0.437923  
     595A      0.437975   596A      0.438436   597A      0.438535  
     598A      0.442448   599A      0.442636   600A      0.443061  
     601A      0.443143   602A      0.446051   603A      0.446356  
     604A      0.446937   605A      0.446957   606A      0.447784  
     607A      0.449567   608A      0.449760   609A      0.450491  
     610A      0.450698   611A      0.450879   612A      0.452328  
     613A      0.453681   614A      0.453768   615A      0.454072  
     616A      0.457377   617A      0.457435   618A      0.457667  
     619A      0.458343   620A      0.458607   621A      0.459092  
     622A      0.461967   623A      0.461995   624A      0.462279  
     625A      0.463499   626A      0.463698   627A      0.465885  
     628A      0.465903   629A      0.467202   630A      0.467339  
     631A      0.468806   632A      0.469287   633A      0.469446  
     634A      0.469763   635A      0.470564   636A      0.471067  
     637A      0.471232   638A      0.472630   639A      0.474158  
     640A      0.474346   641A      0.474417   642A      0.476779  
     643A      0.478018   644A      0.479552   645A      0.481063  
     646A      0.481091   647A      0.482388   648A      0.482741  
     649A      0.484160   650A      0.484801   651A      0.485355  
     652A      0.486185   653A      0.486243   654A      0.486853  
     655A      0.487214   656A      0.488309   657A      0.490746  
     658A      0.492275   659A      0.493019   660A      0.493106  
     661A      0.495076   662A      0.495446   663A      0.496092  
     664A      0.499453   665A      0.499534   666A      0.500384  
     667A      0.500643   668A      0.502065   669A      0.502617  
     670A      0.505017   671A      0.505092   672A      0.506023  
     673A      0.507263   674A      0.507431   675A      0.508329  
     676A      0.510289   677A      0.512409   678A      0.513656  
     679A      0.514347   680A      0.515624   681A      0.515712  
     682A      0.516388   683A      0.518276   684A      0.518490  
     685A      0.519621   686A      0.519780   687A      0.525336  
     688A      0.525821   689A      0.525914   690A      0.527130  
     691A      0.528142   692A      0.528316   693A      0.529002  
     694A      0.529016   695A      0.532665   696A      0.533190  
     697A      0.534295   698A      0.535015   699A      0.535155  
     700A      0.536485   701A      0.536825   702A      0.538546  
     703A      0.538942   704A      0.539143   705A      0.541506  
     706A      0.541606   707A      0.542078   708A      0.542921  
     709A      0.545425   710A      0.546094   711A      0.546260  
     712A      0.547693   713A      0.548342   714A      0.548725  
     715A      0.550081   716A      0.550314   717A      0.551971  
     718A      0.552622   719A      0.553059   720A      0.554596  
     721A      0.555031   722A      0.559533   723A      0.559770  
     724A      0.560382   725A      0.562127   726A      0.562262  
     727A      0.566594   728A      0.566812   729A      0.569079  
     730A      0.569380   731A      0.569779   732A      0.570896  
     733A      0.571635   734A      0.571738   735A      0.571824  
     736A      0.574365   737A      0.577896   738A      0.577932  
     739A      0.579544   740A      0.581064   741A      0.582621  
     742A      0.583372   743A      0.586668   744A      0.587310  
     745A      0.589443   746A      0.589515   747A      0.589858  
     748A      0.590179   749A      0.599327   750A      0.599864  
     751A      0.602798   752A      0.602912   753A      0.606796  
     754A      0.611684   755A      0.611724   756A      0.615062  
     757A      0.616135   758A      0.616619   759A      0.617208  
     760A      0.617638   761A      0.619831   762A      0.620014  
     763A      0.624809   764A      0.626821   765A      0.627589  
     766A      0.631804   767A      0.632290   768A      0.632941  
     769A      0.635485   770A      0.637034   771A      0.638647  
     772A      0.639100   773A      0.639681   774A      0.639905  
     775A      0.640654   776A      0.641091   777A      0.641538  
     778A      0.644813   779A      0.645418   780A      0.649717  
     781A      0.651502   782A      0.653160   783A      0.656576  
     784A      0.657824   785A      0.658341   786A      0.658635  
     787A      0.660101   788A      0.660702   789A      0.660805  
     790A      0.670295   791A      0.670951   792A      0.673116  
     793A      0.673628   794A      0.673803   795A      0.674169  
     796A      0.679767   797A      0.680910   798A      0.683723  
     799A      0.685995   800A      0.689177   801A      0.689642  
     802A      0.692499   803A      0.695487   804A      0.696213  
     805A      0.699982   806A      0.701208   807A      0.701860  
     808A      0.709283   809A      0.711511   810A      0.711618  
     811A      0.713692   812A      0.714108   813A      0.714133  
     814A      0.717576   815A      0.718225   816A      0.719777  
     817A      0.726165   818A      0.726701   819A      0.730119  
     820A      0.732145   821A      0.738837   822A      0.739877  
     823A      0.741335   824A      0.743237   825A      0.743276  
     826A      0.744666   827A      0.746122   828A      0.746871  
     829A      0.747227   830A      0.747340   831A      0.750922  
     832A      0.753203   833A      0.757531   834A      0.758471  
     835A      0.758767   836A      0.764842   837A      0.765431  
     838A      0.766381   839A      0.767449   840A      0.775392  
     841A      0.777482   842A      0.782781   843A      0.785520  
     844A      0.786391   845A      0.792483   846A      0.794665  
     847A      0.795631   848A      0.797783   849A      0.801405  
     850A      0.801670   851A      0.805180   852A      0.805489  
     853A      0.807886   854A      0.825626   855A      0.828163  
     856A      0.836156   857A      0.836732   858A      0.841193  
     859A      0.841341   860A      0.845316   861A      0.846888  
     862A      0.849074   863A      0.852333   864A      0.853838  
     865A      0.855317   866A      0.857425   867A      0.858428  
     868A      0.860092   869A      0.861107   870A      0.866267  
     871A      0.866739   872A      0.867502   873A      0.868515  
     874A      0.869453   875A      0.870164   876A      0.878793  
     877A      0.879979   878A      0.880322   879A      0.885616  
     880A      0.888039   881A      0.888558   882A      0.889220  
     883A      0.890235   884A      0.891896   885A      0.892620  
     886A      0.896150   887A      0.897000   888A      0.897292  
     889A      0.900241   890A      0.902646   891A      0.905012  
     892A      0.907074   893A      0.910195   894A      0.912080  
     895A      0.913440   896A      0.913701   897A      0.915929  
     898A      0.919638   899A      0.919788   900A      0.920100  
     901A      0.920322   902A      0.921277   903A      0.923352  
     904A      0.924421   905A      0.925482   906A      0.927037  
     907A      0.927155   908A      0.929705   909A      0.930854  
     910A      0.931470   911A      0.932253   912A      0.934066  
     913A      0.936567   914A      0.936946   915A      0.939856  
     916A      0.943492   917A      0.944409   918A      0.945686  
     919A      0.948055   920A      0.949855   921A      0.950298  
     922A      0.951214   923A      0.952800   924A      0.953115  
     925A      0.954956   926A      0.957201   927A      0.957745  
     928A      0.959796   929A      0.964455   930A      0.965799  
     931A      0.971243   932A      0.971904   933A      0.972515  
     934A      0.973002   935A      0.973212   936A      0.973431  
     937A      0.973713   938A      0.973852   939A      0.979961  
     940A      0.980332   941A      0.984010   942A      0.985174  
     943A      0.985349   944A      0.985461   945A      0.987352  
     946A      0.990208   947A      0.991895   948A      0.992475  
     949A      0.996736   950A      1.000524   951A      1.001011  
     952A      1.001802   953A      1.002272   954A      1.002930  
     955A      1.003391   956A      1.003578   957A      1.005754  
     958A      1.008082   959A      1.008270   960A      1.008380  
     961A      1.008563   962A      1.013666   963A      1.016484  
     964A      1.017579   965A      1.019778   966A      1.020190  
     967A      1.024528   968A      1.027940   969A      1.034056  
     970A      1.034833   971A      1.035906   972A      1.036824  
     973A      1.044044   974A      1.044583   975A      1.046040  
     976A      1.046162   977A      1.051727   978A      1.055192  
     979A      1.055284   980A      1.057044   981A      1.057232  
     982A      1.057832   983A      1.058388   984A      1.058682  
     985A      1.066481   986A      1.066674   987A      1.068516  
     988A      1.070952   989A      1.071041   990A      1.073439  
     991A      1.073860   992A      1.073987   993A      1.081696  
     994A      1.083621   995A      1.083700   996A      1.084069  
     997A      1.088768   998A      1.088978   999A      1.097259  
    1000A      1.097682  1001A      1.097826  1002A      1.099443  
    1003A      1.100004  1004A      1.100340  1005A      1.101582  
    1006A      1.102433  1007A      1.102645  1008A      1.103336  
    1009A      1.105793  1010A      1.106153  1011A      1.110229  
    1012A      1.110268  1013A      1.113447  1014A      1.114076  
    1015A      1.114096  1016A      1.116038  1017A      1.118018  
    1018A      1.121291  1019A      1.121800  1020A      1.121896  
    1021A      1.122411  1022A      1.123351  1023A      1.123851  
    1024A      1.124287  1025A      1.125648  1026A      1.126889  
    1027A      1.126985  1028A      1.127252  1029A      1.127514  
    1030A      1.127709  1031A      1.128744  1032A      1.129381  
    1033A      1.130419  1034A      1.130991  1035A      1.131596  
    1036A      1.132481  1037A      1.133360  1038A      1.134119  
    1039A      1.134996  1040A      1.135229  1041A      1.135821  
    1042A      1.136034  1043A      1.137234  1044A      1.137852  
    1045A      1.138251  1046A      1.138282  1047A      1.140830  
    1048A      1.141075  1049A      1.142410  1050A      1.142681  
    1051A      1.142735  1052A      1.147790  1053A      1.148117  
    1054A      1.150206  1055A      1.151382  1056A      1.151781  
    1057A      1.152292  1058A      1.154738  1059A      1.154960  
    1060A      1.156003  1061A      1.156308  1062A      1.156792  
    1063A      1.157355  1064A      1.163965  1065A      1.164924  
    1066A      1.168367  1067A      1.175623  1068A      1.176074  
    1069A      1.176814  1070A      1.177610  1071A      1.183191  
    1072A      1.184051  1073A      1.184447  1074A      1.185814  
    1075A      1.186531  1076A      1.187145  1077A      1.189691  
    1078A      1.191995  1079A      1.192363  1080A      1.195313  
    1081A      1.195944  1082A      1.197048  1083A      1.199220  
    1084A      1.202431  1085A      1.203487  1086A      1.204800  
    1087A      1.204901  1088A      1.206389  1089A      1.208424  
    1090A      1.210465  1091A      1.210567  1092A      1.215631  
    1093A      1.218869  1094A      1.219952  1095A      1.222489  
    1096A      1.224357  1097A      1.225106  1098A      1.230236  
    1099A      1.230487  1100A      1.234538  1101A      1.238337  
    1102A      1.240528  1103A      1.241333  1104A      1.242350  
    1105A      1.242919  1106A      1.246802  1107A      1.247823  
    1108A      1.256256  1109A      1.256597  1110A      1.256849  
    1111A      1.257536  1112A      1.257755  1113A      1.263854  
    1114A      1.264723  1115A      1.265759  1116A      1.266714  
    1117A      1.267014  1118A      1.269440  1119A      1.271144  
    1120A      1.271748  1121A      1.271900  1122A      1.275766  
    1123A      1.278178  1124A      1.286562  1125A      1.287403  
    1126A      1.299219  1127A      1.303762  1128A      1.304181  
    1129A      1.304422  1130A      1.305362  1131A      1.305373  
    1132A      1.311867  1133A      1.314252  1134A      1.314487  
    1135A      1.317578  1136A      1.319854  1137A      1.320875  
    1138A      1.322666  1139A      1.322695  1140A      1.332908  
    1141A      1.334863  1142A      1.334963  1143A      1.340697  
    1144A      1.343203  1145A      1.343743  1146A      1.345986  
    1147A      1.346025  1148A      1.346452  1149A      1.346518  
    1150A      1.349643  1151A      1.349876  1152A      1.353929  
    1153A      1.355905  1154A      1.356098  1155A      1.356838  
    1156A      1.361915  1157A      1.363865  1158A      1.364875  
    1159A      1.366731  1160A      1.369085  1161A      1.370241  
    1162A      1.370415  1163A      1.371765  1164A      1.372460  
    1165A      1.373147  1166A      1.374622  1167A      1.378744  
    1168A      1.378832  1169A      1.382319  1170A      1.382376  
    1171A      1.386093  1172A      1.387010  1173A      1.387139  
    1174A      1.390581  1175A      1.393591  1176A      1.393779  
    1177A      1.403515  1178A      1.403676  1179A      1.407564  
    1180A      1.409357  1181A      1.409803  1182A      1.411669  
    1183A      1.411977  1184A      1.413729  1185A      1.415636  
    1186A      1.415807  1187A      1.421230  1188A      1.422724  
    1189A      1.423900  1190A      1.427563  1191A      1.427851  
    1192A      1.431288  1193A      1.440212  1194A      1.440382  
    1195A      1.441327  1196A      1.445056  1197A      1.445346  
    1198A      1.447154  1199A      1.447473  1200A      1.456642  
    1201A      1.459492  1202A      1.460642  1203A      1.460711  
    1204A      1.461942  1205A      1.462163  1206A      1.462917  
    1207A      1.463881  1208A      1.467402  1209A      1.467804  
    1210A      1.474744  1211A      1.475212  1212A      1.476173  
    1213A      1.476629  1214A      1.479564  1215A      1.480984  
    1216A      1.481136  1217A      1.481832  1218A      1.485484  
    1219A      1.486338  1220A      1.487131  1221A      1.487724  
    1222A      1.488364  1223A      1.493180  1224A      1.493303  
    1225A      1.496848  1226A      1.503601  1227A      1.504134  
    1228A      1.505118  1229A      1.505560  1230A      1.506301  
    1231A      1.506436  1232A      1.506910  1233A      1.518805  
    1234A      1.521029  1235A      1.522115  1236A      1.523482  
    1237A      1.523673  1238A      1.525122  1239A      1.525799  
    1240A      1.533134  1241A      1.537096  1242A      1.537239  
    1243A      1.537913  1244A      1.545302  1245A      1.551345  
    1246A      1.551749  1247A      1.555783  1248A      1.556927  
    1249A      1.558910  1250A      1.559601  1251A      1.570257  
    1252A      1.570940  1253A      1.590902  1254A      1.591257  
    1255A      1.593375  1256A      1.597388  1257A      1.607643  
    1258A      1.607691  1259A      1.638183  1260A      1.638349  
    1261A      1.638638  1262A      1.639016  1263A      1.648018  
    1264A      1.650966  1265A      1.655957  1266A      1.658400  
    1267A      1.660538  1268A      1.661203  1269A      1.661604  
    1270A      1.662195  1271A      1.662645  1272A      1.664558  
    1273A      1.665457  1274A      1.668342  1275A      1.669754  
    1276A      1.670439  1277A      1.670497  1278A      1.672936  
    1279A      1.673363  1280A      1.674528  1281A      1.675906  
    1282A      1.676513  1283A      1.677811  1284A      1.680321  
    1285A      1.680478  1286A      1.681194  1287A      1.685470  
    1288A      1.686828  1289A      1.689046  1290A      1.689436  
    1291A      1.689589  1292A      1.690982  1293A      1.691623  
    1294A      1.692648  1295A      1.693211  1296A      1.694384  
    1297A      1.694582  1298A      1.694971  1299A      1.697123  
    1300A      1.700310  1301A      1.703988  1302A      1.704280  
    1303A      1.708523  1304A      1.708697  1305A      1.708909  
    1306A      1.709086  1307A      1.718463  1308A      1.719071  
    1309A      1.722770  1310A      1.722884  1311A      1.723041  
    1312A      1.723163  1313A      1.723582  1314A      1.726261  
    1315A      1.728574  1316A      1.729490  1317A      1.732140  
    1318A      1.732668  1319A      1.740412  1320A      1.741980  
    1321A      1.746372  1322A      1.747768  1323A      1.750015  
    1324A      1.750242  1325A      1.751087  1326A      1.752825  
    1327A      1.761141  1328A      1.761225  1329A      1.763471  
    1330A      1.767905  1331A      1.767961  1332A      1.768487  
    1333A      1.771686  1334A      1.773529  1335A      1.776796  
    1336A      1.777439  1337A      1.777864  1338A      1.777888  
    1339A      1.784761  1340A      1.790436  1341A      1.800034  
    1342A      1.800941  1343A      1.801415  1344A      1.801646  
    1345A      1.802332  1346A      1.817168  1347A      1.818824  
    1348A      1.820510  1349A      1.833111  1350A      1.835719  
    1351A      1.837548  1352A      1.838246  1353A      1.857957  
    1354A      1.858167  1355A      1.862421  1356A      1.869566  
    1357A      1.875842  1358A      1.877373  1359A      1.879009  
    1360A      1.879129  1361A      1.879510  1362A      1.880920  
    1363A      1.885070  1364A      1.885363  1365A      1.885876  
    1366A      1.890341  1367A      1.890667  1368A      1.891194  
    1369A      1.892130  1370A      1.899674  1371A      1.900879  
    1372A      1.906943  1373A      1.907047  1374A      1.913076  
    1375A      1.913589  1376A      1.916964  1377A      1.917041  
    1378A      1.918511  1379A      1.918647  1380A      1.922683  
    1381A      1.923452  1382A      1.924086  1383A      1.924192  
    1384A      1.925976  1385A      1.932236  1386A      1.932672  
    1387A      1.933573  1388A      1.935680  1389A      1.936694  
    1390A      1.937231  1391A      1.938212  1392A      1.939651  
    1393A      1.943124  1394A      1.944932  1395A      1.946794  
    1396A      1.947307  1397A      1.955670  1398A      1.955879  
    1399A      1.957074  1400A      1.957490  1401A      1.963080  
    1402A      1.964271  1403A      1.969660  1404A      1.970676  
    1405A      1.974944  1406A      1.976594  1407A      1.976794  
    1408A      1.979067  1409A      1.979914  1410A      1.980048  
    1411A      1.987185  1412A      1.988048  1413A      1.988252  
    1414A      1.988964  1415A      1.990997  1416A      1.991822  
    1417A      1.994227  1418A      1.995935  1419A      1.996378  
    1420A      1.997721  1421A      1.997990  1422A      2.003056  
    1423A      2.003657  1424A      2.004013  1425A      2.007161  
    1426A      2.007493  1427A      2.012008  1428A      2.012324  
    1429A      2.012940  1430A      2.013371  1431A      2.014175  
    1432A      2.019062  1433A      2.021952  1434A      2.022739  
    1435A      2.023560  1436A      2.024600  1437A      2.027631  
    1438A      2.029427  1439A      2.031521  1440A      2.035835  
    1441A      2.036058  1442A      2.039408  1443A      2.041608  
    1444A      2.041836  1445A      2.043349  1446A      2.043707  
    1447A      2.044800  1448A      2.048669  1449A      2.049037  
    1450A      2.049633  1451A      2.057008  1452A      2.060126  
    1453A      2.064149  1454A      2.065185  1455A      2.065999  
    1456A      2.068809  1457A      2.068967  1458A      2.070219  
    1459A      2.071324  1460A      2.072923  1461A      2.073553  
    1462A      2.075180  1463A      2.075578  1464A      2.076408  
    1465A      2.081907  1466A      2.083915  1467A      2.085845  
    1468A      2.086481  1469A      2.088223  1470A      2.090210  
    1471A      2.091576  1472A      2.092759  1473A      2.101052  
    1474A      2.102430  1475A      2.105189  1476A      2.107180  
    1477A      2.109629  1478A      2.110212  1479A      2.112277  
    1480A      2.112827  1481A      2.113536  1482A      2.114257  
    1483A      2.120368  1484A      2.121085  1485A      2.122727  
    1486A      2.123266  1487A      2.125280  1488A      2.129569  
    1489A      2.130419  1490A      2.131979  1491A      2.132477  
    1492A      2.134044  1493A      2.135144  1494A      2.135480  
    1495A      2.135977  1496A      2.136402  1497A      2.138765  
    1498A      2.139888  1499A      2.140424  1500A      2.141208  
    1501A      2.141572  1502A      2.142038  1503A      2.142702  
    1504A      2.143909  1505A      2.145279  1506A      2.145794  
    1507A      2.146950  1508A      2.150528  1509A      2.150632  
    1510A      2.152790  1511A      2.153912  1512A      2.156648  
    1513A      2.156823  1514A      2.158175  1515A      2.159583  
    1516A      2.162979  1517A      2.164928  1518A      2.165862  
    1519A      2.166892  1520A      2.167556  1521A      2.168191  
    1522A      2.169245  1523A      2.171218  1524A      2.172319  
    1525A      2.174613  1526A      2.178898  1527A      2.179259  
    1528A      2.179837  1529A      2.180935  1530A      2.181052  
    1531A      2.181343  1532A      2.184215  1533A      2.184674  
    1534A      2.188635  1535A      2.189142  1536A      2.192286  
    1537A      2.195289  1538A      2.195521  1539A      2.195963  
    1540A      2.196688  1541A      2.197119  1542A      2.199269  
    1543A      2.207530  1544A      2.208613  1545A      2.211349  
    1546A      2.211766  1547A      2.212434  1548A      2.213007  
    1549A      2.213180  1550A      2.213473  1551A      2.214101  
    1552A      2.214771  1553A      2.223986  1554A      2.224342  
    1555A      2.232602  1556A      2.233169  1557A      2.233900  
    1558A      2.234793  1559A      2.241339  1560A      2.242257  
    1561A      2.244584  1562A      2.246366  1563A      2.247085  
    1564A      2.249429  1565A      2.250717  1566A      2.251997  
    1567A      2.253167  1568A      2.254022  1569A      2.255277  
    1570A      2.255822  1571A      2.256670  1572A      2.257206  
    1573A      2.257938  1574A      2.262167  1575A      2.266584  
    1576A      2.267007  1577A      2.273497  1578A      2.273859  
    1579A      2.274547  1580A      2.275707  1581A      2.278802  
    1582A      2.279000  1583A      2.281614  1584A      2.282461  
    1585A      2.284072  1586A      2.284849  1587A      2.292583  
    1588A      2.293292  1589A      2.293926  1590A      2.295532  
    1591A      2.298931  1592A      2.299462  1593A      2.302943  
    1594A      2.303615  1595A      2.310989  1596A      2.312343  
    1597A      2.315028  1598A      2.316375  1599A      2.318405  
    1600A      2.320074  1601A      2.329216  1602A      2.335205  
    1603A      2.336892  1604A      2.342026  1605A      2.342639  
    1606A      2.347924  1607A      2.350743  1608A      2.355967  
    1609A      2.356353  1610A      2.361628  1611A      2.369888  
    1612A      2.377475  1613A      2.377896  1614A      2.378415  
    1615A      2.380070  1616A      2.382218  1617A      2.382821  
    1618A      2.384419  1619A      2.386823  1620A      2.387971  
    1621A      2.388711  1622A      2.393233  1623A      2.394737  
    1624A      2.395305  1625A      2.395428  1626A      2.397959  
    1627A      2.398614  1628A      2.398869  1629A      2.404084  
    1630A      2.404308  1631A      2.423419  1632A      2.427589  
    1633A      2.428152  1634A      2.435840  1635A      2.440863  
    1636A      2.444366  1637A      2.445566  1638A      2.446850  
    1639A      2.451119  1640A      2.470956  1641A      2.472352  
    1642A      2.476847  1643A      2.480117  1644A      2.485926  
    1645A      2.494561  1646A      2.496134  1647A      2.505740  
    1648A      2.506550  1649A      2.516827  1650A      2.516899  
    1651A      2.520257  1652A      2.520565  1653A      2.524242  
    1654A      2.524516  1655A      2.542684  1656A      2.543041  
    1657A      2.548275  1658A      2.553655  1659A      2.557758  
    1660A      2.558565  1661A      2.562893  1662A      2.568387  
    1663A      2.592152  1664A      2.592275  1665A      2.592501  
    1666A      2.594349  1667A      2.595099  1668A      2.598376  
    1669A      2.598980  1670A      2.600592  1671A      2.602043  
    1672A      2.603714  1673A      2.610842  1674A      2.611018  
    1675A      2.617261  1676A      2.622688  1677A      2.623664  
    1678A      2.630869  1679A      2.634281  1680A      2.634744  
    1681A      2.637452  1682A      2.638520  1683A      2.639164  
    1684A      2.639367  1685A      2.643825  1686A      2.645753  
    1687A      2.653482  1688A      2.653675  1689A      2.665113  
    1690A      2.665267  1691A      2.665501  1692A      2.666172  
    1693A      2.668848  1694A      2.669850  1695A      2.685532  
    1696A      2.693364  1697A      2.694128  1698A      2.696269  
    1699A      2.698447  1700A      2.699359  1701A      2.701677  
    1702A      2.702570  1703A      2.704175  1704A      2.707566  
    1705A      2.707982  1706A      2.718941  1707A      2.719520  
    1708A      2.720417  1709A      2.721726  1710A      2.721903  
    1711A      2.727695  1712A      2.728710  1713A      2.728868  
    1714A      2.737025  1715A      2.738809  1716A      2.740177  
    1717A      2.743760  1718A      2.744313  1719A      2.744692  
    1720A      2.745223  1721A      2.749099  1722A      2.750241  
    1723A      2.757631  1724A      2.772582  1725A      2.782290  
    1726A      2.782650  1727A      2.783304  1728A      2.783590  
    1729A      2.783737  1730A      2.805158  1731A      2.814862  
    1732A      2.815502  1733A      2.827781  1734A      2.830522  
    1735A      2.833488  1736A      2.833711  1737A      2.853339  
    1738A      2.853844  1739A      2.855964  1740A      2.856101  
    1741A      2.856366  1742A      2.863720  1743A      2.866390  
    1744A      2.868303  1745A      2.868858  1746A      2.869346  
    1747A      2.871374  1748A      2.882533  1749A      2.882841  
    1750A      2.893525  1751A      2.894029  1752A      2.894609  
    1753A      2.894908  1754A      2.898519  1755A      2.914801  
    1756A      2.918561  1757A      2.919129  1758A      2.922537  
    1759A      2.923766  1760A      2.927471  1761A      2.951265  
    1762A      2.952120  1763A      2.954751  1764A      2.955931  
    1765A      2.956271  1766A      2.968367  1767A      2.968948  
    1768A      2.969125  1769A      2.978596  1770A      2.980939  
    1771A      2.986890  1772A      2.986919  1773A      3.015472  
    1774A      3.016519  1775A      3.017099  1776A      3.028119  
    1777A      3.044072  1778A      3.044840  1779A      3.081997  
    1780A      3.082893  1781A      3.087020  1782A      3.090271  
    1783A      3.099392  1784A      3.100061  1785A      3.100652  
    1786A      3.110899  1787A      3.110980  1788A      3.113292  
    1789A      3.125752  1790A      3.159695  1791A      3.164307  
    1792A      3.164604  1793A      3.174910  1794A      3.180380  
    1795A      3.180577  1796A      3.185267  1797A      3.187006  
    1798A      3.193803  1799A      3.194634  1800A      3.200845  
    1801A      3.201284  1802A      3.201783  1803A      3.202277  
    1804A      3.204864  1805A      3.213191  1806A      3.222079  
    1807A      3.224501  1808A      3.226315  1809A      3.226727  
    1810A      3.244583  1811A      3.245214  1812A      3.270758  
    1813A      3.272404  1814A      3.305177  1815A      3.310514  
    1816A      3.313935  1817A      3.314339  1818A      3.315133  
    1819A      3.316962  1820A      3.320539  1821A      3.323486  
    1822A      3.327037  1823A      3.327757  1824A      3.345577  
    1825A      3.347161  1826A      3.348517  1827A      3.355162  
    1828A      3.415050  1829A      3.416068  1830A      3.424132  
    1831A      3.469845  1832A      3.483716  1833A      3.486950  
    1834A      3.494405  1835A      3.500905  1836A      3.504038  
    1837A      3.516212  1838A      3.518612  1839A      3.520305  
    1840A      3.525287  1841A      3.528309  1842A      3.535479  
    1843A      3.539684  1844A      3.548311  1845A      3.563334  
    1846A      3.593941  1847A      3.628271  1848A      3.630020  
    1849A      3.636699  1850A      3.642847  1851A      3.689593  
    1852A      3.693083  1853A      3.718219  1854A      3.720276  
    1855A      3.758944  1856A      3.801719  1857A      3.802159  
    1858A      3.804158  1859A      3.818087  1860A      3.831077  
    1861A      3.834437  1862A      3.894503  1863A      3.896314  
    1864A      3.924356  1865A      3.927549  1866A      3.957830  
    1867A      3.966527  1868A      3.992828  1869A      3.995060  
    1870A      4.001387  1871A      4.002330  1872A      4.012479  
    1873A      4.020033  1874A      4.025732  1875A      4.079150  
    1876A      4.082161  1877A      4.126475  1878A      4.174188  
    1879A      4.174601  1880A      4.174665  1881A      4.202155  
    1882A      4.202210  1883A      4.202636  1884A      4.202669  
    1885A      4.202716  1886A      4.235438  1887A      4.235815  
    1888A      4.235829  1889A      4.285645  1890A      4.358612  
    1891A      4.449150  1892A      4.449459  1893A      4.449954  
    1894A      4.450639  1895A      4.650143  1896A      4.650232  
    1897A      4.651417  1898A      4.751130  1899A      4.786669  
    1900A      4.786957  

    Final Occupation by Irrep:
              A 
    DOCC [   321 ]
    NA   [   321 ]
    NB   [   321 ]

  @DF-RHF Final Energy: -4073.10387620596566

   => Energetics <=

    Nuclear Repulsion Energy =          17222.5005401396483649
    One-Electron Energy =              -39926.3047571380811860
    Two-Electron Energy =               18630.7003407924676139
    Total Energy =                      -4073.1038762059652072

Computation Completed


Properties will be evaluated at   0.000000,   0.000000,   0.000000 [a0]

Properties computed using the SCF density matrix


 Multipole Moments:

 ------------------------------------------------------------------------------------
     Multipole            Electronic (a.u.)      Nuclear  (a.u.)        Total (a.u.)
 ------------------------------------------------------------------------------------

 L = 1.  Multiply by 2.5417464519 to convert [e a0] to [Debye]
 Dipole X            :         -0.0006463           -0.0000548           -0.0007011
 Dipole Y            :          0.0010312           -0.0002464            0.0007848
 Dipole Z            :         29.4918684          -40.4681697          -10.9763013
 Magnitude           :                                                   10.9763013

 ------------------------------------------------------------------------------------

*** tstop() called on n2cn0793 at Thu Jan 25 04:38:17 2024
Module time:
	user time   =   24324.35 seconds =     405.41 minutes
	system time =    1390.74 seconds =      23.18 minutes
	total time  =      21686 seconds =     361.43 minutes
Total time:
	user time   =   24324.35 seconds =     405.41 minutes
	system time =    1390.74 seconds =      23.18 minutes
	total time  =      21686 seconds =     361.43 minutes

  //>>>>>>>>>>>>>>>>>>>>>>>>>>>>>>>>>>>//
  //            Monomer A HF           //
  //<<<<<<<<<<<<<<<<<<<<<<<<<<<<<<<<<<<//

   => Libint2 <=

    Primary   basis highest AM E, G, H:  5, 4, 3
    Auxiliary basis highest AM E, G, H:  6, 5, 4
    Onebody   basis highest AM E, G, H:  6, 5, 4
    Solid Harmonics ordering:            gaussian

*** tstart() called on n2cn0793
*** at Thu Jan 25 04:38:17 2024

   => Loading Basis Set <=

    Name: JUN-CC-PVDZ
    Role: ORBITAL
    Keyword: BASIS
    atoms 1                                                   entry B          line   130 file /opt/software/pc2/EB-SW/software/PSI4/1.9-foss-2022a/share/psi4/basis/jun-cc-pvdz.gbs 
    atoms 2-5                                                 entry F          line   266 file /opt/software/pc2/EB-SW/software/PSI4/1.9-foss-2022a/share/psi4/basis/jun-cc-pvdz.gbs 
    atoms 6-23, 30-42, 45-59, 62-78, 81-93, 98-108, 111-119   entry C          line   164 file /opt/software/pc2/EB-SW/software/PSI4/1.9-foss-2022a/share/psi4/basis/jun-cc-pvdz.gbs 
    atoms 24-29, 43-44, 60-61, 79-80, 94-97, 109-110, 120-125 entry H          line    36 file /opt/software/pc2/EB-SW/software/PSI4/1.9-foss-2022a/share/psi4/basis/jun-cc-pvdz.gbs 


         ---------------------------------------------------------
                                   SCF
               by Justin Turney, Rob Parrish, Andy Simmonett
                          and Daniel G. A. Smith
                              RHF Reference
                       16 Threads,  44822 MiB Core
         ---------------------------------------------------------

  ==> Geometry <==

    Molecular point group: c1
    Full point group: C1

    Geometry (in Angstrom), charge = -1, multiplicity = 1:

       Center              X                  Y                   Z               Mass       
    ------------   -----------------  -----------------  -----------------  -----------------
         B           -0.000201921932     0.000288800891     6.331677327459    11.009305360000
         F           -0.000004162732     0.000014527991     7.744462327459    18.998403162730
         F            1.147855837268     0.675795727991     5.860536327459    18.998403162730
         F            0.011913897268    -1.331996472009     5.860738327459    18.998403162730
         F           -1.159670162732     0.656088027991     5.860817327459    18.998403162730
      Gh(C)          -3.668445426752     7.803766698073    -0.466456631206    12.000000000000
      Gh(C)          -4.847602882078     7.131256359331    -0.468823206138    12.000000000000
      Gh(C)          -4.894963461907     5.696344931522    -0.469396117236    12.000000000000
      Gh(C)          -3.653744841505     4.980744868950    -0.461735675507    12.000000000000
      Gh(C)          -2.409429284226     7.113995564665    -0.466262288946    12.000000000000
      Gh(C)          -2.425481506836     5.681136478894    -0.473267177816    12.000000000000
      Gh(C)          -1.194748179167     7.786158722300    -0.464790108404    12.000000000000
      Gh(C)           0.037954866205     7.099436173748    -0.466960812709    12.000000000000
      Gh(C)           0.030328424687     5.669504087695    -0.472444197624    12.000000000000
      Gh(C)          -1.200988670637     4.969284875906    -0.463474463691    12.000000000000
      Gh(C)           1.277953663083     7.772873971185    -0.465584964148    12.000000000000
      Gh(C)           2.485353921992     7.087711413228    -0.467859452053    12.000000000000
      Gh(C)           2.486124522185     5.654785338231    -0.474797201040    12.000000000000
      Gh(C)           1.254078756912     4.956092641655    -0.463169259452    12.000000000000
      Gh(C)           3.751710428674     7.763926678971    -0.467732600672    12.000000000000
      Gh(C)           4.923561893453     7.078795304981    -0.469789081380    12.000000000000
      Gh(C)           4.955603108594     5.643461991360    -0.469949494187    12.000000000000
      Gh(C)           3.706797371473     4.941224736324    -0.464857934018    12.000000000000
      Gh(H)          -3.658525300490     8.890841947126    -0.464771642956     1.007825032230
      Gh(H)          -1.189217492488     8.874135615351    -0.460818231962     1.007825032230
      Gh(H)           1.284290076155     8.860847963479    -0.461426140007     1.007825032230
      Gh(H)           3.753537924068     8.851049806963    -0.466210076357     1.007825032230
      Gh(H)           5.869954540475     7.613809362646    -0.470714448423     1.007825032230
      Gh(H)          -5.788235870234     7.676316740925    -0.470383053494     1.007825032230
[...]
    1495A      2.103421  1496A      2.106929  1497A      2.110280  
    1498A      2.111811  1499A      2.112251  1500A      2.112747  
    1501A      2.112948  1502A      2.114611  1503A      2.116676  
    1504A      2.117924  1505A      2.119874  1506A      2.126330  
    1507A      2.126506  1508A      2.126821  1509A      2.126883  
    1510A      2.127210  1511A      2.127662  1512A      2.129424  
    1513A      2.130851  1514A      2.134815  1515A      2.135412  
    1516A      2.137216  1517A      2.139058  1518A      2.142949  
    1519A      2.143194  1520A      2.143330  1521A      2.143955  
    1522A      2.144213  1523A      2.154290  1524A      2.154996  
    1525A      2.157406  1526A      2.157636  1527A      2.158761  
    1528A      2.159298  1529A      2.159785  1530A      2.160026  
    1531A      2.162435  1532A      2.162766  1533A      2.171158  
    1534A      2.171454  1535A      2.179685  1536A      2.180765  
    1537A      2.181062  1538A      2.182246  1539A      2.188057  
    1540A      2.188743  1541A      2.190751  1542A      2.191539  
    1543A      2.192621  1544A      2.194993  1545A      2.196691  
    1546A      2.198049  1547A      2.200116  1548A      2.200453  
    1549A      2.200752  1550A      2.201249  1551A      2.203227  
    1552A      2.204266  1553A      2.205503  1554A      2.209120  
    1555A      2.213627  1556A      2.213922  1557A      2.220131  
    1558A      2.222098  1559A      2.222686  1560A      2.224179  
    1561A      2.224743  1562A      2.224785  1563A      2.228776  
    1564A      2.231991  1565A      2.232286  1566A      2.233037  
    1567A      2.238670  1568A      2.238879  1569A      2.239418  
    1570A      2.241291  1571A      2.247496  1572A      2.247801  
    1573A      2.248287  1574A      2.248775  1575A      2.260326  
    1576A      2.261553  1577A      2.263345  1578A      2.264866  
    1579A      2.266507  1580A      2.269508  1581A      2.275301  
    1582A      2.282784  1583A      2.284239  1584A      2.290170  
    1585A      2.290982  1586A      2.296290  1587A      2.296747  
    1588A      2.303706  1589A      2.304111  1590A      2.309050  
    1591A      2.314385  1592A      2.324426  1593A      2.324858  
    1594A      2.325166  1595A      2.327061  1596A      2.329356  
    1597A      2.330537  1598A      2.331066  1599A      2.332922  
    1600A      2.334258  1601A      2.335023  1602A      2.339627  
    1603A      2.341359  1604A      2.342137  1605A      2.342310  
    1606A      2.344784  1607A      2.345770  1608A      2.346274  
    1609A      2.349041  1610A      2.349384  1611A      2.367962  
    1612A      2.372231  1613A      2.372808  1614A      2.383599  
    1615A      2.387919  1616A      2.390202  1617A      2.391679  
    1618A      2.392678  1619A      2.396919  1620A      2.418285  
    1621A      2.419472  1622A      2.423496  1623A      2.427496  
    1624A      2.431853  1625A      2.441628  1626A      2.443234  
    1627A      2.452034  1628A      2.453046  1629A      2.464267  
    1630A      2.464307  1631A      2.467688  1632A      2.467944  
    1633A      2.471888  1634A      2.472148  1635A      2.490957  
    1636A      2.491318  1637A      2.494514  1638A      2.501670  
    1639A      2.505986  1640A      2.506974  1641A      2.511432  
    1642A      2.516157  1643A      2.539060  1644A      2.539125  
    1645A      2.540007  1646A      2.541860  1647A      2.542637  
    1648A      2.544735  1649A      2.547482  1650A      2.548431  
    1651A      2.549137  1652A      2.551162  1653A      2.556499  
    1654A      2.556653  1655A      2.564179  1656A      2.571081  
    1657A      2.571478  1658A      2.579937  1659A      2.583634  
    1660A      2.584111  1661A      2.585052  1662A      2.586222  
    1663A      2.588458  1664A      2.588641  1665A      2.593184  
    1666A      2.593476  1667A      2.601277  1668A      2.601418  
    1669A      2.612740  1670A      2.612907  1671A      2.613243  
    1672A      2.613733  1673A      2.616345  1674A      2.617346  
    1675A      2.632518  1676A      2.640515  1677A      2.641450  
    1678A      2.643570  1679A      2.645379  1680A      2.647319  
    1681A      2.648584  1682A      2.649160  1683A      2.652763  
    1684A      2.655721  1685A      2.656100  1686A      2.665955  
    1687A      2.666042  1688A      2.667542  1689A      2.670349  
    1690A      2.670511  1691A      2.673551  1692A      2.677110  
    1693A      2.677511  1694A      2.684236  1695A      2.685547  
    1696A      2.687044  1697A      2.691092  1698A      2.691215  
    1699A      2.691543  1700A      2.692341  1701A      2.696015  
    1702A      2.697259  1703A      2.703995  1704A      2.720653  
    1705A      2.730655  1706A      2.730727  1707A      2.730870  
    1708A      2.731191  1709A      2.731863  1710A      2.752550  
    1711A      2.760079  1712A      2.760692  1713A      2.772440  
    1714A      2.775790  1715A      2.779564  1716A      2.779946  
    1717A      2.799042  1718A      2.799837  1719A      2.801418  
    1720A      2.802155  1721A      2.802189  1722A      2.808773  
    1723A      2.810954  1724A      2.812313  1725A      2.813232  
    1726A      2.814737  1727A      2.815863  1728A      2.817090  
    1729A      2.817349  1730A      2.818068  1731A      2.827976  
    1732A      2.828259  1733A      2.840093  1734A      2.841041  
    1735A      2.841445  1736A      2.841668  1737A      2.845386  
    1738A      2.861734  1739A      2.864848  1740A      2.865370  
    1741A      2.869840  1742A      2.870989  1743A      2.874223  
    1744A      2.895874  1745A      2.896760  1746A      2.912890  
    1747A      2.917611  1748A      2.917780  1749A      2.927393  
    1750A      2.929546  1751A      2.934926  1752A      2.934963  
    1753A      2.963051  1754A      2.964719  1755A      2.965305  
    1756A      2.976083  1757A      2.991683  1758A      2.992449  
    1759A      3.029161  1760A      3.029952  1761A      3.035317  
    1762A      3.038518  1763A      3.046766  1764A      3.047421  
    1765A      3.047953  1766A      3.057452  1767A      3.057506  
    1768A      3.063233  1769A      3.072815  1770A      3.108382  
    1771A      3.112736  1772A      3.113017  1773A      3.122300  
    1774A      3.127147  1775A      3.127511  1776A      3.132390  
    1777A      3.134050  1778A      3.141963  1779A      3.142955  
    1780A      3.148022  1781A      3.148592  1782A      3.149357  
    1783A      3.150088  1784A      3.153525  1785A      3.162067  
    1786A      3.167664  1787A      3.173113  1788A      3.174770  
    1789A      3.175185  1790A      3.193008  1791A      3.193687  
    1792A      3.220023  1793A      3.252814  1794A      3.259365  
    1795A      3.260632  1796A      3.261400  1797A      3.262031  
    1798A      3.264276  1799A      3.268123  1800A      3.271104  
    1801A      3.274550  1802A      3.275284  1803A      3.292559  
    1804A      3.293943  1805A      3.295120  1806A      3.302322  
    1807A      3.361014  1808A      3.362066  1809A      3.369799  
    1810A      3.415572  1811A      3.429661  1812A      3.432032  
    1813A      3.436883  1814A      3.445292  1815A      3.448378  
    1816A      3.460873  1817A      3.464450  1818A      3.465294  
    1819A      3.470919  1820A      3.473863  1821A      3.481022  
    1822A      3.484380  1823A      3.493440  1824A      3.509063  
    1825A      3.538935  1826A      3.574257  1827A      3.575950  
    1828A      3.582625  1829A      3.589917  1830A      3.635267  
    1831A      3.638684  1832A      3.664612  1833A      3.666772  
    1834A      3.704967  1835A      3.747441  1836A      3.749140  
    1837A      3.750396  1838A      3.763023  1839A      3.778560  
    1840A      3.779059  1841A      3.841863  1842A      3.843206  
    1843A      3.871426  1844A      3.874562  1845A      3.904533  
    1846A      3.912900  1847A      3.937633  1848A      3.939557  
    1849A      3.948196  1850A      3.949133  1851A      3.958365  
    1852A      3.964472  1853A      3.970735  1854A      4.024588  
    1855A      4.027399  1856A      4.070830  1857A      4.187807  
    1858A      4.191983  1859A      4.192501  1860A      4.228968  
    1861A      4.301363  1862A      4.328260  1863A      4.393243  
    1864A      5.748310  1865A      5.748312  1866A      5.749310  
    1867A      5.752752  1868A      5.752790  1869A      5.759073  
    1870A      5.759096  1871A      5.759413  1872A      5.778646  
    1873A      5.778681  1874A      5.779628  1875A      6.019460  
    1876A      6.019794  1877A      6.020494  1878A      6.192273  
    1879A      6.326335  1880A      6.326664  1881A      6.373754  
    1882A      6.373964  1883A      6.374200  1884A      7.154559  
    1885A      7.155178  1886A      7.223382  1887A      7.223485  
    1888A      7.244742  1889A      7.247945  1890A      7.256308  
    1891A      7.256354  1892A      7.456989  1893A      7.457057  
    1894A      7.464529  1895A      7.601136  1896A     12.593273  
    1897A     42.907605  1898A     42.910478  1899A     42.910584  
    1900A     42.938232  

    Final Occupation by Irrep:
              A 
    DOCC [   300 ]
    NA   [   300 ]
    NB   [   300 ]

  @DF-RHF Final Energy: -3650.33757892868016

   => Energetics <=

    Nuclear Repulsion Energy =          15611.4211649754324753
    One-Electron Energy =              -36072.0734569182677660
    Two-Electron Energy =               16810.3147130141551315
    Total Energy =                      -3650.3375789286801592

Computation Completed


Properties will be evaluated at   0.000000,   0.000000,   0.000000 [a0]

Properties computed using the SCF density matrix


 Multipole Moments:

 ------------------------------------------------------------------------------------
     Multipole            Electronic (a.u.)      Nuclear  (a.u.)        Total (a.u.)
 ------------------------------------------------------------------------------------

 L = 1.  Multiply by 2.5417464519 to convert [e a0] to [Debye]
 Dipole X            :         -0.0009416            0.0002304           -0.0007111
 Dipole Y            :          0.0010797           -0.0013052           -0.0002255
 Dipole Z            :        531.0340777         -531.0361122           -0.0020344
 Magnitude           :                                                    0.0021669

 ------------------------------------------------------------------------------------

*** tstop() called on n2cn0793 at Thu Jan 25 07:40:09 2024
Module time:
	user time   =   16972.16 seconds =     282.87 minutes
	system time =    1116.92 seconds =      18.62 minutes
	total time  =       6029 seconds =     100.48 minutes
Total time:
	user time   =   45632.79 seconds =     760.55 minutes
	system time =    2751.71 seconds =      45.86 minutes
	total time  =      32598 seconds =     543.30 minutes
  Constructing Basis Sets for SAPT...

   => Loading Basis Set <=

    Name: (JUN-CC-PVDZ AUX)
    Role: RIFIT
    Keyword: DF_BASIS_SAPT
    atoms 1                                                   entry B          line    56 file /opt/software/pc2/EB-SW/software/PSI4/1.9-foss-2022a/share/psi4/basis/jun-cc-pvdz-ri.gbs 
    atoms 2-5                                                 entry F          line   232 file /opt/software/pc2/EB-SW/software/PSI4/1.9-foss-2022a/share/psi4/basis/jun-cc-pvdz-ri.gbs 
    atoms 6-23, 30-42, 45-59, 62-78, 81-93, 98-108, 111-119   entry C          line   100 file /opt/software/pc2/EB-SW/software/PSI4/1.9-foss-2022a/share/psi4/basis/jun-cc-pvdz-ri.gbs 
    atoms 24-29, 43-44, 60-61, 79-80, 94-97, 109-110, 120-125 entry H          line    30 file /opt/software/pc2/EB-SW/software/PSI4/1.9-foss-2022a/share/psi4/basis/jun-cc-pvdz-ri.gbs 

   => Loading Basis Set <=

    Name: (JUN-CC-PVDZ AUX)
    Role: JKFIT
    Keyword: DF_BASIS_ELST
    atoms 1                                                   entry B          line    90 file /opt/software/pc2/EB-SW/software/PSI4/1.9-foss-2022a/share/psi4/basis/jun-cc-pvdz-jkfit.gbs 
    atoms 2-5                                                 entry F          line   314 file /opt/software/pc2/EB-SW/software/PSI4/1.9-foss-2022a/share/psi4/basis/jun-cc-pvdz-jkfit.gbs 
    atoms 6-23, 30-42, 45-59, 62-78, 81-93, 98-108, 111-119   entry C          line   146 file /opt/software/pc2/EB-SW/software/PSI4/1.9-foss-2022a/share/psi4/basis/jun-cc-pvdz-jkfit.gbs 
    atoms 24-29, 43-44, 60-61, 79-80, 94-97, 109-110, 120-125 entry H          line    70 file /opt/software/pc2/EB-SW/software/PSI4/1.9-foss-2022a/share/psi4/basis/jun-cc-pvdz-jkfit.gbs 


  //>>>>>>>>>>>>>>>>>>>>>>>>>>>>>>>>>>>//
  //               SSAPT0              //
  //<<<<<<<<<<<<<<<<<<<<<<<<<<<<<<<<<<<//


*** tstart() called on n2cn0793
*** at Thu Jan 25 07:40:12 2024

        SAPT0  
    Ed Hohenstein
     6 June 2009

      Orbital Information
  --------------------------
    NSO        =      1938
    NMO        =      1900
    NRI        =      6901
    NRI (Elst) =      8531
    NOCC A     =        21
    NOCC B     =       300
    FOCC A     =         5
    FOCC B     =        96
    NVIR A     =      1879
    NVIR B     =      1600

    Elst10,r            =     0.008621632954 [Eh]
    Exch10              =    -0.000000195468 [Eh]
    Exch10 (S^2)        =    -0.000000195468 [Eh]

    Iter     Energy [mEh]          dE [mEh]         Residual      Time [s]
       1      -0.00337145       0.003371454       0.411352643           609
       2      -0.00393959       0.000568136       0.213066126          1533
       3      -0.00416093       0.000221335       0.042796978          2093
       4      -0.00416843       0.000007502       0.008448311          2635
       5      -0.00416120      -0.000007225       0.001107042          3213
       6      -0.00416196       0.000000761       0.000222584          3682
       7      -0.00416193      -0.000000029       0.000053425          4080
       8      -0.00416192      -0.000000012       0.000013391          4468
       9      -0.00416192      -0.000000001       0.000002787          4907
      10      -0.00416192       0.000000001       0.000000490          5338

    CHF Iterations converged


    Iter     Energy [mEh]          dE [mEh]         Residual      Time [s]
       1      -5.32918678       5.329186776      40.080805189           368
       2      -3.42373133      -1.905455451       4.691070797           831
       3      -3.40721093      -0.016520393       1.573328965          1271
       4      -3.46799280       0.060781866       0.492477862          1733
       5      -3.47608885       0.008096047       0.170705777          2176
       6      -3.47539091      -0.000697938       0.113349790          2643
       7      -3.47356628      -0.001824627       0.050820605          3034
       8      -3.47372409       0.000157806       0.029610678          3481
       9      -3.47419240       0.000468314       0.018938515          3954
      10      -3.47405418      -0.000138223       0.014265809          4633
      11      -3.47397347      -0.000080709       0.005660123          5097
      12      -3.47398048       0.000007011       0.002445635          5486
      13      -3.47399504       0.000014562       0.000902791          5874
      14      -3.47399841       0.000003366       0.000300343          6300
      15      -3.47399689      -0.000001516       0.000174080          6736
      16      -3.47399530      -0.000001594       0.000099884          7176
      17      -3.47399604       0.000000742       0.000055750          7574
      18      -3.47399631       0.000000268       0.000020034          8027
      19      -3.47399620      -0.000000106       0.000010674          8486
      20      -3.47399614      -0.000000057       0.000004284          8859
      21      -3.47399616       0.000000013       0.000001865          9338
      22      -3.47399617       0.000000010       0.000000924          9729

    CHF Iterations converged

    Ind20,r (A<-B)      =    -0.000004161922 [Eh]
    Ind20,r (B<-A)      =    -0.003473996167 [Eh]
    Ind20,r             =    -0.003478158089 [Eh]
    Exch-Ind20,r (A<-B) =     0.000000046103 [Eh]
    Exch-Ind20,r (B<-A) =     0.000000122260 [Eh]
    Exch-Ind20,r        =     0.000000168364 [Eh]
    Disp20              =    -0.000515726151 [Eh]
    Disp20 (SS)         =    -0.000257863076 [Eh]
    Disp20 (OS)         =    -0.000257863076 [Eh]
    Exch-Disp20         =     0.000000117556 [Eh]
    Exch-Disp20 (SS)    =     0.000000090801 [Eh]
    Exch-Disp20 (OS)    =     0.000000026755 [Eh]

    SAPT Results 
  --------------------------------------------------------------------------------------------------------
    Electrostatics                  8.62163295 [mEh]       5.41015636 [kcal/mol]      22.63609420 [kJ/mol]
      Elst10,r                      8.62163295 [mEh]       5.41015636 [kcal/mol]      22.63609420 [kJ/mol]

    Exchange                       -0.00019547 [mEh]      -0.00012266 [kcal/mol]      -0.00051320 [kJ/mol]
      Exch10                       -0.00019547 [mEh]      -0.00012266 [kcal/mol]      -0.00051320 [kJ/mol]
      Exch10(S^2)                  -0.00019547 [mEh]      -0.00012266 [kcal/mol]      -0.00051320 [kJ/mol]

    Induction                      -3.46018393 [mEh]      -2.17129820 [kcal/mol]      -9.08471167 [kJ/mol]
      Ind20,r                      -3.47815809 [mEh]      -2.18257715 [kcal/mol]      -9.13190281 [kJ/mol]
      Exch-Ind20,r                  0.00016836 [mEh]       0.00010565 [kcal/mol]       0.00044204 [kJ/mol]
      delta HF,r (2)                0.01780579 [mEh]       0.01117330 [kcal/mol]       0.04674910 [kJ/mol]

    Dispersion                     -0.51560860 [mEh]      -0.32354928 [kcal/mol]      -1.35373018 [kJ/mol]
      Disp20                       -0.51572615 [mEh]      -0.32362305 [kcal/mol]      -1.35403882 [kJ/mol]
      Exch-Disp20                   0.00011756 [mEh]       0.00007377 [kcal/mol]       0.00030864 [kJ/mol]
      Disp20 (SS)                  -0.25786308 [mEh]      -0.16181152 [kcal/mol]      -0.67701941 [kJ/mol]
      Disp20 (OS)                  -0.25786308 [mEh]      -0.16181152 [kcal/mol]      -0.67701941 [kJ/mol]
      Exch-Disp20 (SS)              0.00009080 [mEh]       0.00005698 [kcal/mol]       0.00023840 [kJ/mol]
      Exch-Disp20 (OS)              0.00002676 [mEh]       0.00001679 [kcal/mol]       0.00007025 [kJ/mol]

  Total HF                          5.16125355 [mEh]       3.23873550 [kcal/mol]      13.55086934 [kJ/mol]
  Total SAPT0                       4.64564496 [mEh]       2.91518622 [kcal/mol]      12.19713916 [kJ/mol]

  Special recipe for scaled SAPT0 (see Manual):
    Electrostatics sSAPT0           8.62163295 [mEh]       5.41015636 [kcal/mol]      22.63609420 [kJ/mol]
    Exchange sSAPT0                -0.00019547 [mEh]      -0.00012266 [kcal/mol]      -0.00051320 [kJ/mol]
    Induction sSAPT0               -3.46018393 [mEh]      -2.17129820 [kcal/mol]      -9.08471167 [kJ/mol]
    Dispersion sSAPT0              -0.51560860 [mEh]      -0.32354928 [kcal/mol]      -1.35373018 [kJ/mol]
  Total sSAPT0                      4.64564496 [mEh]       2.91518622 [kcal/mol]      12.19713916 [kJ/mol]
  --------------------------------------------------------------------------------------------------------

*** tstop() called on n2cn0793 at Thu Jan 25 20:54:00 2024
Module time:
	user time   =   68387.16 seconds =    1139.79 minutes
	system time =    2855.12 seconds =      47.59 minutes
	total time  =      47628 seconds =     793.80 minutes
Total time:
	user time   =  114021.29 seconds =    1900.35 minutes
	system time =    5606.84 seconds =      93.45 minutes
	total time  =      80229 seconds =    1337.15 minutes

    Psi4 stopped on: Thursday, 25 January 2024 08:54PM
    Psi4 wall time for execution: 22:17:11.88

*** Psi4 exiting successfully. Buy a developer a beer!
