
    -----------------------------------------------------------------------
          Psi4: An Open-Source Ab Initio Electronic Structure Package
                               Psi4 1.9 release

                         Git: Rev {} zzzzzzz 


    D. G. A. Smith, L. A. Burns, A. C. Simmonett, R. M. Parrish,
    M. C. Schieber, R. Galvelis, P. Kraus, H. Kruse, R. Di Remigio,
    A. Alenaizan, A. M. James, S. Lehtola, J. P. Misiewicz, M. Scheurer,
    R. A. Shaw, J. B. Schriber, Y. Xie, Z. L. Glick, D. A. Sirianni,
    J. S. O'Brien, J. M. Waldrop, A. Kumar, E. G. Hohenstein,
    B. P. Pritchard, B. R. Brooks, H. F. Schaefer III, A. Yu. Sokolov,
    K. Patkowski, A. E. DePrince III, U. Bozkaya, R. A. King,
    F. A. Evangelista, J. M. Turney, T. D. Crawford, C. D. Sherrill,
    J. Chem. Phys. 152(18) 184108 (2020). https://doi.org/10.1063/5.0006002

                            Additional Code Authors
    E. T. Seidl, C. L. Janssen, E. F. Valeev, M. L. Leininger,
    J. F. Gonthier, R. M. Richard, H. R. McAlexander, M. Saitow, X. Wang,
    P. Verma, M. H. Lechner, A. Jiang, S. Behnle, A. G. Heide,
    M. F. Herbst, and D. L. Poole

             Previous Authors, Complete List of Code Contributors,
                       and Citations for Specific Modules
    https://github.com/psi4/psi4/blob/master/codemeta.json
    https://github.com/psi4/psi4/graphs/contributors
    http://psicode.org/psi4manual/master/introduction.html#citing-psifour

    -----------------------------------------------------------------------


    Psi4 started on: Saturday, 10 February 2024 01:42PM

    Process ID: 3101950
    Host:       n2cn0614.ab2021.local
    PSIDATADIR: /opt/software/pc2/EB-SW/software/PSI4/1.9-foss-2022a/share/psi4
    Memory:     500.0 MiB
    Threads:    16
    
  ==> Input File <==

--------------------------------------------------------------------------
memory 80 GB # how much memory is available ! Depends on the nodes/cores !

molecule dimer {
# monomer A
+1 1    # Charge and multiplicity
C  0.680067 -0.008042 -5.515929
C -0.680504 -0.006014 -5.515545
N -1.085635 -0.005016 -4.197221
C  0.000108 -0.001740 -3.415820
C -2.477365  0.044390 -3.729242
N  1.085222 -0.005016 -4.197221
H  1.385146 -0.015870 -6.333368
H -1.385302 -0.006204 -6.333214
H -0.000009  0.000007 -2.334731
C  2.478117 -0.021908 -3.732123
H  2.490592  0.005437 -2.641870
H  2.967028 -0.935354 -4.079299
H  3.001428  0.853575 -4.123595
H -2.857359  1.066461 -3.809201
H -3.082679 -0.625694 -4.342306
H -2.518128 -0.282594 -2.689294
--
# monomer B
0 1     # Charge and multiplicity
C   -3.66844126402057      7.80375217008252      0.00190004133558
C   -4.84759871934653      7.13124183134024     -0.00046653359696
C   -4.89495929917518      5.69633040353158     -0.00103944469517
C   -3.65374067877320      4.98073034095895      0.00662099703436
C   -2.40942512149445      7.11398103667468      0.00209438359570
C   -2.42547734410473      5.68112195090346     -0.00491050527438
C   -1.19474401643570      7.78614419430947      0.00356656413763
C   0.03795902893699      7.09942164575698      0.00139585983271
C   0.03033258741920      5.66948955970466     -0.00408752508301
C   -1.20098450790502      4.96927034791531      0.00488220885047
C   1.27795782581485      7.77285944319479      0.00277170839332
C   2.48535808472416      7.08769688523756      0.00049722048857
C   2.48612868491717      5.65477081024076     -0.00644052849921
C   1.25408291964399      4.95607811366431      0.00518741308898
C   3.75171459140595      7.76391215098033      0.00062407186893
C   4.92356605618520      7.07878077698995     -0.00143240883900
C   4.95560727132542      5.64344746336949     -0.00159282164606
C   3.70680153420475      4.94121020833308      0.00349873852374
H   -3.65852113775815      8.89082741913536      0.00358502958574
H   -1.18921332975660      8.87412108735996      0.00753844057883
H   1.28429423888630      8.86083343548850      0.00693053253426
H   3.75354208679975      8.85103527897216      0.00214659618464
H   5.86995870320703      7.61379483465560     -0.00235777588134
H   -5.78823170750226      7.67630221293400     -0.00202638095293
C   -6.09197395869619      4.99326001364347     -0.00291168518608
C   -6.12866148031747      3.58258016879823     -0.00171050815740
C   -3.66457974004527      3.56418217974434     -0.00463560277484
C   -4.89429820469869      2.86108077590057      0.00453338221034
C   -2.43733499489796      2.84761165708481      0.00719617576166
C   -1.20922785759670      3.54788693497833     -0.00648285103018
C   1.24714157216223      3.53468075142962     -0.00729145743546
C   0.01517603956900      2.83311183930540      0.00439272578912
C   2.46764517244071      2.82128997725533      0.00449278391269
C   3.70254947457969      3.52466015442405     -0.00899517692985
C   6.14498038638375      4.92757236613191     -0.00282626685777
C   6.16658835886151      3.51658447594213     -0.00065971342101
C   4.92460995845939      2.80840792535402      0.00587903281610
H   7.08990550964105      5.46688776622306     -0.00658814770723
H   -7.03104175110130      5.54268795285765     -0.00714490013730
C   -7.33969804112295      2.85841153457957     -0.00333767559888
C   -7.36488195805880      1.47032337158330     -0.00157213747140
C   -4.90350460894690      1.44442681216000     -0.00628840166334
C   -6.13225715261081      0.73993935705394      0.00600164231964
C   -3.67687480051673      0.72669714267312      0.00433931473643
C   -2.44565658606518      1.42964113326212     -0.00597039546461
C   -1.22360068130162      0.71532450163492      0.00545886906656
C   0.00763786931376      1.41738314923765      0.00392452278437
C   1.23121980774686      0.70211669058719     -0.01490206287210
C   2.46082110053113      1.40329203612573      0.00460244601878
C   3.68443025419614      0.68719842821222      0.00377365974158
C   4.91870890153864      1.39173456118907     -0.00862816189375
C   7.36980207796101      2.77948220318441     -0.00242013321349
C   7.38016266612146      1.39121750785509     -0.00087345036788
C   6.13979953912259      0.67411862320065      0.00545489144369
H   -8.27919079934664      3.40711804112415     -0.00763522772059
H   8.31511347147953      3.31811809662368     -0.00663070901292
C   -8.59175593758115      0.72483255304480     -0.00123170985383
C   -8.59902460370342     -0.63263980622873      0.00089141472904
C   -6.13981313911873     -0.67413663715361     -0.00609792660607
C   -7.38018411213749     -1.39126618958160      0.00131813493501
C   -4.91868448025621     -1.39175501803000      0.00624257154343
C   -3.68443829568458     -0.68723731573599     -0.00478966852105
C   -2.46081704024768     -1.40334517882457      0.00575341766833
C   -1.23116201232071     -0.70217386488055     -0.00636696112346
C   -0.00756962538737     -1.41741884941102      0.00108956317991
C   1.22364771588843     -0.71527537726392      0.01109518512883
C   2.44567064933149     -1.42964328900682     -0.00065482763106
C   3.67686670284649     -0.72670743155550     -0.00479541202602
C   6.13224884641929     -0.73997883984993     -0.00632338623858
C   4.90351914550401     -1.44445752054090      0.00751768830159
C   8.59901484869081      0.63260386666793     -0.00101133422380
C   8.59174548810050     -0.72485086719319      0.00072504603735
C   7.36486276438985     -1.47033266560598      0.00049486934466
H   -9.52830597181814      1.27684744919284     -0.00270163681798
H   9.54141097460619      1.17457248844457     -0.00206336648518
C   -7.36983790976868     -2.77954514593389      0.00312634335708
C   -4.92459910905015     -2.80843725734101     -0.00460528907921
C   -6.16662249566744     -3.51665219282533      0.00169655107992
C   -3.70251035970491     -3.52468154912026      0.00571878010666
C   -2.46764698511392     -2.82132596280400     -0.00632585824990
C   -0.01513347410770     -2.83314164539971     -0.00604426974092
C   -1.24712184122656     -3.53473217556300      0.00551968366725
C   1.20924506964357     -3.54791467864352      0.00805871345849
C   2.43733602215464     -2.84764173817541     -0.00608104485234
C   4.89430234377080     -2.86112296828604     -0.00526030478103
C   3.66461525504104     -3.56421984553201      0.00761911515957
C   6.12863901474565     -3.58258405771778      0.00096495711699
C   7.33967266469532     -2.85841330737039      0.00248018319869
H   -9.54144911125902     -1.17456346666430      0.00226083090216
H   9.52826186807155     -1.27691907390448      0.00197485379837
H   -8.31516504384864     -3.31814985321231      0.00729857188773
H   8.27915514249207     -3.40714078989363      0.00681973918158
C   -6.14499418870218     -4.92764727278338      0.00302254913999
C   -3.70678334799751     -4.94126171411716     -0.00679841894792
C   -4.95559005800169     -5.64349397349412      0.00116871569699
C   -2.48612132622665     -5.65478557440947      0.00614125209662
C   -1.25405833548005     -4.95612205000132     -0.00503435388927
C   1.20101257386816     -4.96928038819302     -0.00385322963129
C   -0.03033667441341     -5.66952030313900      0.00398997003238
C   3.65375010132847     -4.98074377541453     -0.00309522988330
C   2.42549269587528     -5.68117463552727      0.00628170066869
C   6.09196561781097     -4.99325796338655      0.00325918379042
C   4.89497644461045     -5.69634842095790      0.00202298796027
H   -7.08989238804069     -5.46699984223871      0.00742531082125
H   7.03105520920009     -5.54265853633254      0.00683896355417
C   -4.92354532219813     -7.07882109967734      0.00061394679214
C   -2.48534208823777     -7.08772807792913     -0.00189594564379
C   -3.75168589177895     -7.76394715763627     -0.00170126671874
C   -0.03794895698805     -7.09946487446944     -0.00168022049625
C   -1.27795610040136     -7.77290438466689     -0.00366491325785
C   2.40944432072629     -7.11402201200282     -0.00081701968533
C   1.19474993715296     -7.78618536556242     -0.00296931056689
C   4.84762105249800     -7.13126211057943      0.00168979497423
C   3.66847160587561     -7.80378799294376     -0.00065863938960
H   -5.86994035041618     -7.61383059804164      0.00215798365757
H   5.78824962538815     -7.67633218931421      0.00281691445618
H   -3.75352693944918     -8.85107156923607     -0.00353718114765
H   -1.28430440589466     -8.86087539249706     -0.00809229711623
H   1.18922157469537     -8.87416062058945     -0.00706194725726
H   3.65854661482387     -8.89086063405326     -0.00231318081200

    units angstrom      # Angstroms are the default
    no_reorient         # Geometry fixed, default
    symmetry c1         # C1 symmetry, default
}

set {
    scf_type DF         # Density fitting, faster than exact integrals
    freeze_core True    # Freeze core electrons
    basis jun-cc-pVDZ   # Jun-cc-pVDZ basis set, recommended for sSAPT0 in https://doi.org/10.1063/1.4867135
}

energy('ssapt0')        # Compute sSAPT0 energy, includes also SAPT0
--------------------------------------------------------------------------

  Memory set to  74.506 GiB by Python driver.

Scratch directory: /tmp/
   => Loading Basis Set <=

    Name: JUN-CC-PVDZ
    Role: ORBITAL
    Keyword: BASIS
    atoms 1-2, 4-5, 10, 17-34, 41-53, 56-70, 73-89, 92-104, 109-119, 122-130 entry C          line   164 file /opt/software/pc2/EB-SW/software/PSI4/1.9-foss-2022a/share/psi4/basis/jun-cc-pvdz.gbs 
    atoms 3, 6                                                               entry N          line   198 file /opt/software/pc2/EB-SW/software/PSI4/1.9-foss-2022a/share/psi4/basis/jun-cc-pvdz.gbs 
    atoms 7-9, 11-16, 35-40, 54-55, 71-72, 90-91, 105-108, 120-121, 131-136  entry H          line    36 file /opt/software/pc2/EB-SW/software/PSI4/1.9-foss-2022a/share/psi4/basis/jun-cc-pvdz.gbs 

   => Loading Basis Set <=

    Name: JUN-CC-PVDZ
    Role: ORBITAL
    Keyword: BASIS
    atoms 1-2, 4-5, 10, 17-34, 41-53, 56-70, 73-89, 92-104, 109-119, 122-130 entry C          line   164 file /opt/software/pc2/EB-SW/software/PSI4/1.9-foss-2022a/share/psi4/basis/jun-cc-pvdz.gbs 
    atoms 3, 6                                                               entry N          line   198 file /opt/software/pc2/EB-SW/software/PSI4/1.9-foss-2022a/share/psi4/basis/jun-cc-pvdz.gbs 
    atoms 7-9, 11-16, 35-40, 54-55, 71-72, 90-91, 105-108, 120-121, 131-136  entry H          line    36 file /opt/software/pc2/EB-SW/software/PSI4/1.9-foss-2022a/share/psi4/basis/jun-cc-pvdz.gbs 


  //>>>>>>>>>>>>>>>>>>>>>>>>>>>>>>>>>>>//
  //              Dimer HF             //
  //<<<<<<<<<<<<<<<<<<<<<<<<<<<<<<<<<<<//

   => Libint2 <=

    Primary   basis highest AM E, G, H:  5, 4, 3
    Auxiliary basis highest AM E, G, H:  6, 5, 4
    Onebody   basis highest AM E, G, H:  6, 5, 4
    Solid Harmonics ordering:            gaussian

*** tstart() called on n2cn0614.ab2021.local
*** at Sat Feb 10 13:42:28 2024

   => Loading Basis Set <=

    Name: JUN-CC-PVDZ
    Role: ORBITAL
    Keyword: BASIS
    atoms 1-2, 4-5, 10, 17-34, 41-53, 56-70, 73-89, 92-104, 109-119, 122-130 entry C          line   164 file /opt/software/pc2/EB-SW/software/PSI4/1.9-foss-2022a/share/psi4/basis/jun-cc-pvdz.gbs 
    atoms 3, 6                                                               entry N          line   198 file /opt/software/pc2/EB-SW/software/PSI4/1.9-foss-2022a/share/psi4/basis/jun-cc-pvdz.gbs 
    atoms 7-9, 11-16, 35-40, 54-55, 71-72, 90-91, 105-108, 120-121, 131-136  entry H          line    36 file /opt/software/pc2/EB-SW/software/PSI4/1.9-foss-2022a/share/psi4/basis/jun-cc-pvdz.gbs 


         ---------------------------------------------------------
                                   SCF
               by Justin Turney, Rob Parrish, Andy Simmonett
                          and Daniel G. A. Smith
                              RHF Reference
                       16 Threads,  76293 MiB Core
         ---------------------------------------------------------

  ==> Geometry <==

    Molecular point group: c1
    Full point group: C1

    Geometry (in Angstrom), charge = 1, multiplicity = 1:

       Center              X                  Y                   Z               Mass       
    ------------   -----------------  -----------------  -----------------  -----------------
         C            0.680062820275    -0.008027535675    -5.188092992773    12.000000000000
         C           -0.680508179725    -0.005999535675    -5.187708992773    12.000000000000
         N           -1.085639179725    -0.005001535675    -3.869384992773    14.003074004430
         C            0.000103820275    -0.001725535675    -3.087983992773    12.000000000000
         C           -2.477369179725     0.044404464325    -3.401405992773    12.000000000000
         N            1.085217820275    -0.005001535675    -3.869384992773    14.003074004430
         H            1.385141820275    -0.015855535675    -6.005531992773     1.007825032230
         H           -1.385306179725    -0.006189535675    -6.005377992773     1.007825032230
         H           -0.000013179725     0.000021464325    -2.006894992773     1.007825032230
         C            2.478112820275    -0.021893535675    -3.404286992773    12.000000000000
         H            2.490587820275     0.005451464325    -2.314033992773     1.007825032230
         H            2.967023820275    -0.935339535675    -3.751462992773     1.007825032230
         H            3.001423820275     0.853589464325    -3.795758992773     1.007825032230
         H           -2.857363179725     1.066475464325    -3.481364992773     1.007825032230
         H           -3.082683179725    -0.625679535675    -4.014469992773     1.007825032230
         H           -2.518132179725    -0.282579535675    -2.361457992773     1.007825032230
         C           -3.668445443746     7.803766634408     0.329736048563    12.000000000000
         C           -4.847602899072     7.131256295665     0.327369473630    12.000000000000
         C           -4.894963478901     5.696344867857     0.326796562532    12.000000000000
         C           -3.653744858499     4.980744805284     0.334457004262    12.000000000000
         C           -2.409429301220     7.113995501000     0.329930390823    12.000000000000
         C           -2.425481523830     5.681136415228     0.322925501953    12.000000000000
         C           -1.194748196161     7.786158658634     0.331402571365    12.000000000000
         C            0.037954849212     7.099436110082     0.329231867060    12.000000000000
         C            0.030328407694     5.669504024030     0.323748482144    12.000000000000
         C           -1.200988687630     4.969284812240     0.332718216078    12.000000000000
         C            1.277953646089     7.772873907520     0.330607715621    12.000000000000
         C            2.485353904999     7.087711349563     0.328333227716    12.000000000000
         C            2.486124505192     5.654785274566     0.321395478728    12.000000000000
         C            1.254078739919     4.956092577989     0.333023420316    12.000000000000
         C            3.751710411681     7.763926615305     0.328460079096    12.000000000000
         C            4.923561876460     7.078795241315     0.326403598388    12.000000000000
         C            4.955603091600     5.643461927694     0.326243185581    12.000000000000
         C            3.706797354479     4.941224672658     0.331334745751    12.000000000000
         H           -3.658525317484     8.890841883460     0.331421036813     1.007825032230
         H           -1.189217509482     8.874135551685     0.335374447806     1.007825032230
         H            1.284290059161     8.860847899813     0.334766539762     1.007825032230
         H            3.753537907074     8.851049743297     0.329982603412     1.007825032230
         H            5.869954523482     7.613809298981     0.325478231346     1.007825032230
         H           -5.788235887228     7.676316677259     0.325809626274     1.007825032230
         C           -6.091978138422     4.993274477968     0.324924322041    12.000000000000
         C           -6.128665660043     3.582594633123     0.326125499070    12.000000000000
         C           -3.664583919771     3.564196644069     0.323200404453    12.000000000000
         C           -4.894302384424     2.861095240226     0.332369389438    12.000000000000
         C           -2.437339174623     2.847626121410     0.335032182989    12.000000000000
         C           -1.209232037322     3.547901399303     0.321353156197    12.000000000000
         C            1.247137392437     3.534695215755     0.320544549792    12.000000000000
         C            0.015171859844     2.833126303630     0.332228733016    12.000000000000
         C            2.467640992715     2.821304441580     0.332328791140    12.000000000000
         C            3.702545294854     3.524674618749     0.318840830298    12.000000000000
         C            6.144976206658     4.927586830457     0.325009740370    12.000000000000
         C            6.166584179136     3.516598940267     0.327176293806    12.000000000000
         C            4.924605778734     2.808422389679     0.333715040043    12.000000000000
         H            7.089901329916     5.466902230548     0.321247859520     1.007825032230
         H           -7.031045930827     5.542702417183     0.320691107090     1.007825032230
         C           -7.339702220848     2.858425998905     0.324498331628    12.000000000000
         C           -7.364886137784     1.470337835908     0.326263869756    12.000000000000
         C           -4.903508788672     1.444441276485     0.321547605564    12.000000000000
         C           -6.132261332336     0.739953821379     0.333837649547    12.000000000000
         C           -3.676878980242     0.726711606998     0.332175321964    12.000000000000
         C           -2.445660765791     1.429655597587     0.321865611763    12.000000000000
         C           -1.223604861027     0.715338965960     0.333294876294    12.000000000000
         C            0.007633689588     1.417397613563     0.331760530012    12.000000000000
         C            1.231215628021     0.702131154912     0.312933944355    12.000000000000
         C            2.460816920806     1.403306500451     0.332438453246    12.000000000000
         C            3.684426074471     0.687212892537     0.331609666969    12.000000000000
         C            4.918704721813     1.391749025514     0.319207845334    12.000000000000
         C            7.369797898236     2.779496667509     0.325415874014    12.000000000000
         C            7.380158486396     1.391231972180     0.326962556859    12.000000000000
         C            6.139795359397     0.674133087526     0.333290898671    12.000000000000
         H           -8.279194979072     3.407132505449     0.320200779507     1.007825032230
         H            8.315109291754     3.318132560949     0.321205298214     1.007825032230
         C           -8.591760117307     0.724847017370     0.326604297374    12.000000000000
         C           -8.599028783429    -0.632625341904     0.328727421956    12.000000000000
         C           -6.139817318844    -0.674122172829     0.321738080621    12.000000000000
         C           -7.380188291863    -1.391251725257     0.329154142162    12.000000000000
         C           -4.918688659982    -1.391740553705     0.334078578771    12.000000000000
         C           -3.684442475410    -0.687222851411     0.323046338706    12.000000000000
         C           -2.460821219973    -1.403330714500     0.333589424896    12.000000000000
         C           -1.231166192046    -0.702159400556     0.321469046104    12.000000000000
         C           -0.007573805113    -1.417404385086     0.328925570407    12.000000000000
         C            1.223643536163    -0.715260912939     0.338931192356    12.000000000000
         C            2.445666469606    -1.429628824682     0.327181179596    12.000000000000
         C            3.676862523121    -0.726692967231     0.323040595201    12.000000000000
         C            6.132244666694    -0.739964375525     0.321512620989    12.000000000000
         C            4.903514965779    -1.444443056216     0.335353695529    12.000000000000
         C            8.599010668965     0.632618330993     0.326824673004    12.000000000000
         C            8.591741308375    -0.724836402868     0.328561053265    12.000000000000
         C            7.364858584664    -1.470318201281     0.328330876572    12.000000000000
         H           -9.528310151544     1.276861913518     0.325134370409     1.007825032230
         H            9.541406794881     1.174586952770     0.325772640742     1.007825032230
         C           -7.369842089494    -2.779530681609     0.330962350584    12.000000000000
         C           -4.924603288776    -2.808422793016     0.323230718148    12.000000000000
         C           -6.166626675393    -3.516637728500     0.329532558307    12.000000000000
         C           -3.702514539430    -3.524667084795     0.333554787334    12.000000000000
         C           -2.467651164839    -2.821311498479     0.321510148977    12.000000000000
         C           -0.015137653833    -2.833127181075     0.321791737486    12.000000000000
         C           -1.247126020952    -3.534717711238     0.333355690895    12.000000000000
         C            1.209240889918    -3.547900214319     0.335894720686    12.000000000000
         C            2.437331842429    -2.847627273850     0.321754962375    12.000000000000
         C            4.894298164045    -2.861108503961     0.322575702446    12.000000000000
         C            3.664611075316    -3.564205381207     0.335455122387    12.000000000000
         C            6.128634835020    -3.582569593393     0.328800964344    12.000000000000
         C            7.339668484970    -2.858398843045     0.330316190426    12.000000000000
         H           -9.541453290984    -1.174549002339     0.330096838130     1.007825032230
         H            9.528257688346    -1.276904609579     0.329810861026     1.007825032230
         H           -8.315169223574    -3.318135388887     0.335134579115     1.007825032230
         H            8.279150962767    -3.407126325569     0.334655746409     1.007825032230
         C           -6.144998368428    -4.927632808458     0.330858556367    12.000000000000
         C           -3.706787527723    -4.941247249792     0.321037588279    12.000000000000
         C           -4.955594237727    -5.643479509169     0.329004722924    12.000000000000
         C           -2.486125505952    -5.654771110084     0.333977259324    12.000000000000
         C           -1.254062515205    -4.956107585676     0.322801653338    12.000000000000
         C            1.201008394143    -4.969265923868     0.323982777596    12.000000000000
         C           -0.030340854139    -5.669505838814     0.331825977260    12.000000000000
         C            3.653745921603    -4.980729311090     0.324740777344    12.000000000000
         C            2.425488516150    -5.681160171202     0.334117707896    12.000000000000
         C            6.091961438086    -4.993243499062     0.331095191018    12.000000000000
         C            4.894972264885    -5.696333956633     0.329858995188    12.000000000000
         H           -7.089896567766    -5.466985377914     0.335261318049     1.007825032230
         H            7.031051029475    -5.542644072008     0.334674970782     1.007825032230
         C           -4.923549501924    -7.078806635352     0.328449954020    12.000000000000
         C           -2.485346267963    -7.087713613604     0.325940061584    12.000000000000
         C           -3.751690071504    -7.763932693311     0.326134740509    12.000000000000
         C           -0.037953136713    -7.099450410144     0.326155786731    12.000000000000
         C           -1.277960280127    -7.772889920342     0.324171093970    12.000000000000
         C            2.409440141001    -7.114007547678     0.327018987542    12.000000000000
         C            1.194745757428    -7.786170901237     0.324866696660    12.000000000000
         C            4.847616872773    -7.131247646254     0.329525802202    12.000000000000
         C            3.668467426150    -7.803773528619     0.327177367838    12.000000000000
         H           -5.869944530142    -7.613816133717     0.329993990885     1.007825032230
         H            5.788245445663    -7.676317724989     0.330652921684     1.007825032230
         H           -3.753531119175    -8.851057104911     0.324298826080     1.007825032230
         H           -1.284308585620    -8.860860928172     0.319743710111     1.007825032230
         H            1.189217394970    -8.874146156264     0.320774059970     1.007825032230
         H            3.658542435098    -8.890846169728     0.325522826415     1.007825032230

  Running in c1 symmetry.

  Rotational constants: A =      0.00066  B =      0.00065  C =      0.00035 [cm^-1]
  Rotational constants: A =     19.71619  B =     19.53610  C =     10.51914 [MHz]
  Nuclear repulsion = 18252.505300515669660

  Charge       = 1
  Multiplicity = 1
  Electrons    = 652
  Nalpha       = 326
  Nbeta        = 326

  ==> Algorithm <==

  SCF Algorithm Type is DF.
  DIIS enabled.
  MOM disabled.
  Fractional occupation disabled.
  Guess Type is SAD.
  Energy threshold   = 1.00e-08
  Density threshold  = 1.00e-08
  Integral threshold = 1.00e-12

  ==> Primary Basis <==

  Basis Set: JUN-CC-PVDZ
    Blend: JUN-CC-PVDZ
    Number of shells: 923
    Number of basis functions: 2019
    Number of Cartesian functions: 2122
    Spherical Harmonics?: true
    Max angular momentum: 2

   => Loading Basis Set <=

    Name: (JUN-CC-PVDZ AUX)
    Role: JKFIT
    Keyword: DF_BASIS_SCF
    atoms 1-2, 4-5, 10, 17-34, 41-53, 56-70, 73-89, 92-104, 109-119, 122-130 entry C          line   146 file /opt/software/pc2/EB-SW/software/PSI4/1.9-foss-2022a/share/psi4/basis/jun-cc-pvdz-jkfit.gbs 
    atoms 3, 6                                                               entry N          line   202 file /opt/software/pc2/EB-SW/software/PSI4/1.9-foss-2022a/share/psi4/basis/jun-cc-pvdz-jkfit.gbs 
    atoms 7-9, 11-16, 35-40, 54-55, 71-72, 90-91, 105-108, 120-121, 131-136  entry H          line    70 file /opt/software/pc2/EB-SW/software/PSI4/1.9-foss-2022a/share/psi4/basis/jun-cc-pvdz-jkfit.gbs 

  ==> Integral Setup <==

  ==> DiskDFJK: Density-Fitted J/K Matrices <==

    J tasked:                  Yes
    K tasked:                  Yes
    wK tasked:                  No
    OpenMP threads:             16
    Integrals threads:          16
    Memory [MiB]:            57220
    Algorithm:                Disk
    Integral Cache:           SAVE
    Schwarz Cutoff:          1E-12
    Fitting Condition:       1E-10

   => Auxiliary Basis Set <=

  Basis Set: (JUN-CC-PVDZ AUX)
    Blend: JUN-CC-PVDZ-JKFIT
    Number of shells: 3078
    Number of basis functions: 8896
    Number of Cartesian functions: 10198
    Spherical Harmonics?: true
    Max angular momentum: 3

  Minimum eigenvalue in the overlap matrix is 6.6684440050E-11.
  Reciprocal condition number of the overlap matrix is 2.7139271782E-12.
    Using canonical orthogonalization.
  Overall, 40 of 2019 possible MOs eliminated.


  ==> Pre-Iterations <==

  SCF Guess: Superposition of Atomic Densities via on-the-fly atomic UHF (no occupation information).

   -------------------------
    Irrep   Nso     Nmo    
   -------------------------
     A       2019    1979 
   -------------------------
    Total    2019    1979
   -------------------------

  ==> Iterations <==

                           Total Energy        Delta E     RMS |[F,P]|

   @DF-RHF iter SAD: -3967.45481929100879   -3.96745e+03   0.00000e+00 
   @DF-RHF iter   1: -3952.12145006481433    1.53334e+01   7.16157e-04 ADIIS/DIIS
   @DF-RHF iter   2: -3953.50288690445632   -1.38144e+00   2.40966e-04 ADIIS/DIIS
   @DF-RHF iter   3: -3953.62415399556357   -1.21267e-01   1.17802e-04 ADIIS/DIIS
   @DF-RHF iter   4: -3953.65283389627712   -2.86799e-02   5.13693e-05 DIIS
   @DF-RHF iter   5: -3953.65960800526591   -6.77411e-03   1.22322e-05 DIIS
   @DF-RHF iter   6: -3953.66016138133728   -5.53376e-04   4.71625e-06 DIIS
   @DF-RHF iter   7: -3953.66035958451721   -1.98203e-04   2.26591e-06 DIIS
   @DF-RHF iter   8: -3953.66042484255377   -6.52580e-05   1.12247e-06 DIIS
   @DF-RHF iter   9: -3953.66044336624600   -1.85237e-05   3.74181e-07 DIIS
   @DF-RHF iter  10: -3953.66044465370396   -1.28746e-06   1.53129e-07 DIIS
   @DF-RHF iter  11: -3953.66044481999643   -1.66292e-07   6.39038e-08 DIIS
   @DF-RHF iter  12: -3953.66044485544899   -3.54526e-08   3.33483e-08 DIIS
   @DF-RHF iter  13: -3953.66044486405235   -8.60337e-09   1.12985e-08 DIIS
   @DF-RHF iter  14: -3953.66044486479859   -7.46240e-10   5.20355e-09 DIIS
  Energy and wave function converged.


  ==> Post-Iterations <==

    Orbital Energies [Eh]
    ---------------------

    Doubly Occupied:                                                      

       1A    -15.792394     2A    -15.791936     3A    -11.484638  
       4A    -11.422543     5A    -11.420987     6A    -11.407339  
       7A    -11.407307     8A    -11.342513     9A    -11.342209  
      10A    -11.341779    11A    -11.341178    12A    -11.340570  
      13A    -11.340306    14A    -11.338636    15A    -11.338604  
      16A    -11.338473    17A    -11.338294    18A    -11.337356  
      19A    -11.337328    20A    -11.336442    21A    -11.336354  
      22A    -11.335417    23A    -11.335331    24A    -11.334878  
      25A    -11.334841    26A    -11.334766    27A    -11.334737  
      28A    -11.333748    29A    -11.333702    30A    -11.333604  
      31A    -11.333559    32A    -11.330518    33A    -11.330491  
      34A    -11.330437    35A    -11.330370    36A    -11.329588  
      37A    -11.329556    38A    -11.329526    39A    -11.329513  
      40A    -11.328880    41A    -11.328822    42A    -11.328715  
      43A    -11.328652    44A    -11.327682    45A    -11.327677  
      46A    -11.327132    47A    -11.327113    48A    -11.327095  
      49A    -11.327085    50A    -11.326671    51A    -11.326659  
      52A    -11.326509    53A    -11.326482    54A    -11.326474  
      55A    -11.326455    56A    -11.326045    57A    -11.326028  
      58A    -11.326021    59A    -11.326019    60A    -11.326001  
      61A    -11.325994    62A    -11.325479    63A    -11.325472  
      64A    -11.325470    65A    -11.325461    66A    -11.325011  
      67A    -11.325001    68A    -11.324820    69A    -11.324810  
      70A    -11.324778    71A    -11.324768    72A    -11.324223  
      73A    -11.324199    74A    -11.324196    75A    -11.324194  
      76A    -11.323714    77A    -11.323708    78A    -11.323684  
      79A    -11.323680    80A    -11.317837    81A    -11.317769  
      82A    -11.317755    83A    -11.317693    84A    -11.317172  
      85A    -11.317121    86A    -11.317085    87A    -11.317065  
      88A    -11.316866    89A    -11.316835    90A    -11.316782  
      91A    -11.316753    92A    -11.314794    93A    -11.314784  
      94A    -11.313938    95A    -11.313918    96A    -11.313914  
      97A    -11.313908    98A    -11.313324    99A    -11.313314  
     100A    -11.312459   101A    -11.312438   102A    -11.312431  
     103A    -11.312424   104A     -1.536828   105A     -1.392242  
     106A     -1.328187   107A     -1.309370   108A     -1.308201  
     109A     -1.288142   110A     -1.287911   111A     -1.286362  
     112A     -1.266892   113A     -1.262182   114A     -1.258589  
     115A     -1.257541   116A     -1.239127   117A     -1.239107  
     118A     -1.224677   119A     -1.224369   120A     -1.222764  
     121A     -1.209573   122A     -1.209525   123A     -1.198544  
     124A     -1.195757   125A     -1.183223   126A     -1.182277  
     127A     -1.181488   128A     -1.177895   129A     -1.175989  
     130A     -1.155433   131A     -1.155329   132A     -1.147733  
     133A     -1.141471   134A     -1.141402   135A     -1.135546  
     136A     -1.135462   137A     -1.133833   138A     -1.112914  
     139A     -1.112906   140A     -1.106872   141A     -1.103177  
     142A     -1.103033   143A     -1.094379   144A     -1.092617  
     145A     -1.091994   146A     -1.077705   147A     -1.073887  
     148A     -1.072420   149A     -1.069427   150A     -1.068418  
     151A     -1.068267   152A     -1.054854   153A     -1.038132  
     154A     -1.037915   155A     -1.021010   156A     -1.020898  
     157A     -0.982368   158A     -0.975848   159A     -0.975811  
     160A     -0.975323   161A     -0.969130   162A     -0.969093  
     163A     -0.962131   164A     -0.961985   165A     -0.958606  
     166A     -0.958493   167A     -0.957018   168A     -0.955594  
     169A     -0.936738   170A     -0.931545   171A     -0.917754  
     172A     -0.916281   173A     -0.915801   174A     -0.912972  
     175A     -0.910249   176A     -0.900466   177A     -0.900374  
     178A     -0.891949   179A     -0.891854   180A     -0.876226  
     181A     -0.853513   182A     -0.853041   183A     -0.850105  
     184A     -0.848808   185A     -0.848726   186A     -0.847464  
     187A     -0.847419   188A     -0.833727   189A     -0.829984  
     190A     -0.818041   191A     -0.809533   192A     -0.798069  
     193A     -0.793636   194A     -0.793066   195A     -0.791548  
     196A     -0.790944   197A     -0.790530   198A     -0.786561  
     199A     -0.781732   200A     -0.781489   201A     -0.777516  
     202A     -0.771726   203A     -0.764847   204A     -0.764616  
     205A     -0.754216   206A     -0.750936   207A     -0.750804  
     208A     -0.750127   209A     -0.747723   210A     -0.747649  
     211A     -0.745679   212A     -0.745495   213A     -0.743776  
     214A     -0.718464   215A     -0.718002   216A     -0.717622  
     217A     -0.716544   218A     -0.716456   219A     -0.714322  
     220A     -0.708940   221A     -0.708491   222A     -0.705330  
     223A     -0.703821   224A     -0.702979   225A     -0.702621  
     226A     -0.701020   227A     -0.695058   228A     -0.687836  
     229A     -0.680318   230A     -0.679188   231A     -0.679022  
     232A     -0.676911   233A     -0.674478   234A     -0.674391  
     235A     -0.668534   236A     -0.667730   237A     -0.667158  
     238A     -0.666080   239A     -0.665640   240A     -0.664437  
     241A     -0.661032   242A     -0.660665   243A     -0.660374  
     244A     -0.660256   245A     -0.656677   246A     -0.656508  
     247A     -0.656119   248A     -0.643205   249A     -0.642959  
     250A     -0.640643   251A     -0.640425   252A     -0.639459  
     253A     -0.638452   254A     -0.636752   255A     -0.636573  
     256A     -0.631558   257A     -0.631200   258A     -0.625520  
     259A     -0.625024   260A     -0.623394   261A     -0.621748  
     262A     -0.620064   263A     -0.615975   264A     -0.610500  
     265A     -0.609601   266A     -0.605396   267A     -0.605080  
     268A     -0.599307   269A     -0.599118   270A     -0.595991  
     271A     -0.592624   272A     -0.592528   273A     -0.583678  
     274A     -0.583369   275A     -0.580192   276A     -0.580078  
     277A     -0.573819   278A     -0.573688   279A     -0.563630  
     280A     -0.562982   281A     -0.562818   282A     -0.562300  
     283A     -0.561915   284A     -0.559812   285A     -0.556090  
     286A     -0.545394   287A     -0.541557   288A     -0.541548  
     289A     -0.538914   290A     -0.536627   291A     -0.532640  
     292A     -0.532500   293A     -0.525779   294A     -0.515848  
     295A     -0.515534   296A     -0.511756   297A     -0.511007  
     298A     -0.509674   299A     -0.498179   300A     -0.497908  
     301A     -0.485125   302A     -0.474475   303A     -0.474313  
     304A     -0.454651   305A     -0.454510   306A     -0.452813  
     307A     -0.449389   308A     -0.449273   309A     -0.420468  
     310A     -0.420429   311A     -0.417056   312A     -0.410136  
     313A     -0.410097   314A     -0.408922   315A     -0.396225  
     316A     -0.395852   317A     -0.375292   318A     -0.371209  
     319A     -0.371144   320A     -0.365994   321A     -0.351227  
     322A     -0.322494   323A     -0.322032   324A     -0.318321  
     325A     -0.270173   326A     -0.269891  

    Virtual:                                                              

     327A     -0.077853   328A     -0.077391   329A     -0.035197  
     330A     -0.034093   331A     -0.033723   332A     -0.026942  
     333A     -0.026581   334A     -0.022083   335A     -0.013441  
     336A     -0.005735   337A     -0.005418   338A     -0.004819  
     339A     -0.003651   340A     -0.001868   341A     -0.001201  
     342A      0.000376   343A      0.001563   344A      0.001654  
     345A      0.003509   346A      0.004050   347A      0.006644  
     348A      0.008167   349A      0.009131   350A      0.010171  
     351A      0.010330   352A      0.013810   353A      0.014283  
     354A      0.014353   355A      0.015629   356A      0.016378  
     357A      0.019211   358A      0.024308   359A      0.024548  
     360A      0.025415   361A      0.025457   362A      0.026238  
     363A      0.030690   364A      0.033508   365A      0.034197  
     366A      0.034682   367A      0.035566   368A      0.037631  
     369A      0.039458   370A      0.040217   371A      0.042532  
     372A      0.042630   373A      0.043643   374A      0.044843  
     375A      0.049616   376A      0.050168   377A      0.051800  
     378A      0.052041   379A      0.052078   380A      0.052505  
     381A      0.053346   382A      0.053789   383A      0.053974  
     384A      0.054891   385A      0.055324   386A      0.057223  
     387A      0.060029   388A      0.062570   389A      0.063816  
     390A      0.064971   391A      0.068206   392A      0.068732  
     393A      0.071247   394A      0.072261   395A      0.073279  
     396A      0.073940   397A      0.074760   398A      0.076091  
     399A      0.076647   400A      0.079305   401A      0.079657  
     402A      0.081592   403A      0.082104   404A      0.086303  
     405A      0.086342   406A      0.086550   407A      0.089096  
     408A      0.089656   409A      0.090598   410A      0.091229  
     411A      0.095952   412A      0.098579   413A      0.099210  
     414A      0.101857   415A      0.102712   416A      0.103284  
     417A      0.104480   418A      0.106156   419A      0.106900  
     420A      0.107083   421A      0.107483   422A      0.108038  
     423A      0.108553   424A      0.113137   425A      0.113354  
     426A      0.113637   427A      0.114269   428A      0.115231  
     429A      0.116565   430A      0.119539   431A      0.123188  
     432A      0.124902   433A      0.125438   434A      0.126124  
     435A      0.126817   436A      0.127001   437A      0.128059  
     438A      0.130814   439A      0.131429   440A      0.131803  
     441A      0.134028   442A      0.134812   443A      0.135356  
     444A      0.135436   445A      0.135740   446A      0.138461  
     447A      0.142888   448A      0.145682   449A      0.146331  
     450A      0.146373   451A      0.147046   452A      0.147430  
     453A      0.147942   454A      0.148642   455A      0.149161  
     456A      0.149524   457A      0.151050   458A      0.152489  
     459A      0.153141   460A      0.153605   461A      0.153865  
     462A      0.154222   463A      0.155695   464A      0.157550  
     465A      0.157936   466A      0.158924   467A      0.159217  
     468A      0.160183   469A      0.161578   470A      0.162553  
     471A      0.165200   472A      0.165458   473A      0.166125  
     474A      0.166340   475A      0.169708   476A      0.169918  
     477A      0.171016   478A      0.171941   479A      0.172505  
     480A      0.174122   481A      0.174247   482A      0.174476  
     483A      0.175970   484A      0.176307   485A      0.179636  
     486A      0.179748   487A      0.179844   488A      0.181032  
     489A      0.182959   490A      0.183844   491A      0.185040  
     492A      0.185365   493A      0.186280   494A      0.190710  
     495A      0.191745   496A      0.192632   497A      0.193074  
     498A      0.193193   499A      0.194556   500A      0.194669  
     501A      0.195589   502A      0.196567   503A      0.199423  
     504A      0.199473   505A      0.201465   506A      0.202428  
     507A      0.204531   508A      0.205225   509A      0.206359  
     510A      0.207274   511A      0.207578   512A      0.208370  
     513A      0.208775   514A      0.210498   515A      0.211479  
     516A      0.212249   517A      0.212841   518A      0.215641  
     519A      0.216654   520A      0.217490   521A      0.219837  
     522A      0.220185   523A      0.220439   524A      0.221462  
     525A      0.221626   526A      0.224658   527A      0.226161  
     528A      0.227459   529A      0.228090   530A      0.228543  
     531A      0.228787   532A      0.229563   533A      0.230838  
     534A      0.232288   535A      0.232477   536A      0.233615  
     537A      0.234164   538A      0.236057   539A      0.236812  
     540A      0.237049   541A      0.238236   542A      0.238638  
     543A      0.240942   544A      0.242319   545A      0.244239  
     546A      0.244629   547A      0.245113   548A      0.246057  
     549A      0.246629   550A      0.248111   551A      0.250430  
     552A      0.251213   553A      0.251468   554A      0.253193  
     555A      0.254824   556A      0.255479   557A      0.256868  
     558A      0.257956   559A      0.258541   560A      0.258767  
     561A      0.259848   562A      0.260888   563A      0.261798  
     564A      0.262160   565A      0.262481   566A      0.262919  
     567A      0.264374   568A      0.265755   569A      0.266988  
     570A      0.267696   571A      0.268733   572A      0.269857  
     573A      0.271222   574A      0.271424   575A      0.272118  
     576A      0.272285   577A      0.273537   578A      0.274811  
     579A      0.275457   580A      0.275588   581A      0.275974  
     582A      0.277647   583A      0.278550   584A      0.279695  
     585A      0.282137   586A      0.282296   587A      0.283014  
     588A      0.283892   589A      0.286778   590A      0.287116  
     591A      0.287490   592A      0.288303   593A      0.288474  
     594A      0.290099   595A      0.291516   596A      0.292901  
     597A      0.293381   598A      0.294784   599A      0.295756  
     600A      0.296534   601A      0.297226   602A      0.298079  
     603A      0.299609   604A      0.300403   605A      0.301242  
     606A      0.301885   607A      0.303288   608A      0.303818  
     609A      0.307079   610A      0.307834   611A      0.308501  
     612A      0.309261   613A      0.309890   614A      0.310723  
     615A      0.311328   616A      0.312300   617A      0.313637  
     618A      0.314013   619A      0.316495   620A      0.317016  
     621A      0.318117   622A      0.318405   623A      0.319934  
     624A      0.320937   625A      0.320995   626A      0.321500  
     627A      0.322286   628A      0.323655   629A      0.325218  
     630A      0.325319   631A      0.326298   632A      0.326689  
     633A      0.327446   634A      0.329187   635A      0.329836  
     636A      0.329941   637A      0.332384   638A      0.333244  
     639A      0.333641   640A      0.334530   641A      0.335188  
     642A      0.335675   643A      0.336296   644A      0.339928  
     645A      0.340631   646A      0.340960   647A      0.341183  
     648A      0.341566   649A      0.341673   650A      0.342299  
     651A      0.343252   652A      0.344045   653A      0.344400  
     654A      0.344742   655A      0.345373   656A      0.347099  
     657A      0.347303   658A      0.349458   659A      0.349763  
     660A      0.350556   661A      0.350907   662A      0.351306  
     663A      0.353212   664A      0.354386   665A      0.354865  
     666A      0.356344   667A      0.357492   668A      0.358141  
     669A      0.359144   670A      0.359814   671A      0.360291  
     672A      0.363728   673A      0.364170   674A      0.364451  
     675A      0.365077   676A      0.366114   677A      0.367331  
     678A      0.368469   679A      0.368792   680A      0.369716  
     681A      0.370077   682A      0.372060   683A      0.372089  
     684A      0.373593   685A      0.374498   686A      0.376096  
     687A      0.376413   688A      0.378039   689A      0.378808  
     690A      0.379050   691A      0.379980   692A      0.382948  
     693A      0.384315   694A      0.387479   695A      0.387661  
     696A      0.388814   697A      0.389425   698A      0.390240  
     699A      0.391601   700A      0.391867   701A      0.392382  
     702A      0.392661   703A      0.393578   704A      0.394403  
     705A      0.395000   706A      0.395796   707A      0.396148  
     708A      0.398165   709A      0.400266   710A      0.403662  
     711A      0.404043   712A      0.404340   713A      0.405741  
     714A      0.406602   715A      0.407085   716A      0.408243  
     717A      0.408911   718A      0.409883   719A      0.410231  
     720A      0.410282   721A      0.411355   722A      0.412252  
     723A      0.413567   724A      0.414204   725A      0.415089  
     726A      0.416206   727A      0.416534   728A      0.417307  
     729A      0.417436   730A      0.418744   731A      0.422030  
     732A      0.422973   733A      0.425855   734A      0.427631  
     735A      0.428165   736A      0.430016   737A      0.430286  
     738A      0.431133   739A      0.432555   740A      0.434004  
     741A      0.434956   742A      0.435585   743A      0.436180  
     744A      0.437290   745A      0.438727   746A      0.441131  
     747A      0.441904   748A      0.442565   749A      0.442896  
     750A      0.444218   751A      0.445339   752A      0.446446  
     753A      0.446990   754A      0.449205   755A      0.450797  
     756A      0.452751   757A      0.454362   758A      0.455609  
     759A      0.456423   760A      0.456835   761A      0.457030  
     762A      0.459176   763A      0.459631   764A      0.461212  
     765A      0.462704   766A      0.463248   767A      0.465288  
     768A      0.467041   769A      0.467547   770A      0.468236  
     771A      0.468593   772A      0.470235   773A      0.472619  
     774A      0.475462   775A      0.476819   776A      0.477566  
     777A      0.478259   778A      0.482505   779A      0.483736  
     780A      0.485435   781A      0.487158   782A      0.489797  
     783A      0.493100   784A      0.495301   785A      0.496396  
     786A      0.499083   787A      0.499487   788A      0.500123  
     789A      0.500752   790A      0.501730   791A      0.502524  
     792A      0.503281   793A      0.504969   794A      0.506554  
     795A      0.508247   796A      0.510449   797A      0.511179  
     798A      0.513440   799A      0.514323   800A      0.515065  
     801A      0.516664   802A      0.517127   803A      0.518216  
     804A      0.519923   805A      0.520771   806A      0.521516  
     807A      0.521662   808A      0.524238   809A      0.526949  
     810A      0.528215   811A      0.530954   812A      0.531868  
     813A      0.533447   814A      0.534673   815A      0.539030  
     816A      0.539737   817A      0.541427   818A      0.541930  
     819A      0.542681   820A      0.544750   821A      0.545390  
     822A      0.546832   823A      0.551873   824A      0.555111  
     825A      0.557372   826A      0.558849   827A      0.560440  
     828A      0.560603   829A      0.565630   830A      0.567128  
     831A      0.568455   832A      0.569423   833A      0.573338  
     834A      0.574878   835A      0.575614   836A      0.584520  
     837A      0.586626   838A      0.589351   839A      0.590439  
     840A      0.592386   841A      0.593451   842A      0.594599  
     843A      0.595100   844A      0.596258   845A      0.601469  
     846A      0.601932   847A      0.604677   848A      0.606164  
     849A      0.610283   850A      0.615146   851A      0.618700  
     852A      0.621866   853A      0.624062   854A      0.626157  
     855A      0.626490   856A      0.627423   857A      0.629235  
     858A      0.632291   859A      0.633104   860A      0.634490  
     861A      0.636154   862A      0.638884   863A      0.640796  
     864A      0.646169   865A      0.648121   866A      0.659592  
     867A      0.665846   868A      0.669904   869A      0.671441  
     870A      0.674609   871A      0.674972   872A      0.675835  
     873A      0.678509   874A      0.679690   875A      0.680921  
     876A      0.685916   877A      0.688862   878A      0.693971  
     879A      0.696985   880A      0.711775   881A      0.713380  
     882A      0.719127   883A      0.721694   884A      0.722438  
     885A      0.725337   886A      0.727315   887A      0.728945  
     888A      0.730854   889A      0.731466   890A      0.735864  
     891A      0.738241   892A      0.739119   893A      0.742773  
     894A      0.744704   895A      0.745637   896A      0.749665  
     897A      0.751062   898A      0.752643   899A      0.754563  
     900A      0.755204   901A      0.757194   902A      0.757704  
     903A      0.758898   904A      0.761481   905A      0.763848  
     906A      0.764825   907A      0.765736   908A      0.766503  
     909A      0.766957   910A      0.770949   911A      0.772306  
     912A      0.774179   913A      0.776547   914A      0.778517  
     915A      0.783141   916A      0.783842   917A      0.784922  
     918A      0.785399   919A      0.789409   920A      0.791293  
     921A      0.791593   922A      0.792578   923A      0.796002  
     924A      0.798199   925A      0.799843   926A      0.800162  
     927A      0.802811   928A      0.804610   929A      0.806968  
     930A      0.808381   931A      0.810072   932A      0.812141  
     933A      0.812992   934A      0.813605   935A      0.814146  
     936A      0.816193   937A      0.819657   938A      0.821078  
     939A      0.823415   940A      0.823664   941A      0.824918  
     942A      0.825600   943A      0.826413   944A      0.827063  
     945A      0.830085   946A      0.830528   947A      0.832611  
     948A      0.835617   949A      0.836887   950A      0.841720  
     951A      0.843123   952A      0.843767   953A      0.844922  
     954A      0.846043   955A      0.847702   956A      0.851276  
     957A      0.852005   958A      0.853077   959A      0.854921  
     960A      0.855680   961A      0.856490   962A      0.857881  
     963A      0.859103   964A      0.860242   965A      0.861300  
     966A      0.862551   967A      0.864672   968A      0.865054  
     969A      0.867607   970A      0.868343   971A      0.869920  
     972A      0.871957   973A      0.872647   974A      0.874677  
     975A      0.875027   976A      0.877820   977A      0.878619  
     978A      0.879937   979A      0.881364   980A      0.882632  
     981A      0.886311   982A      0.887459   983A      0.889002  
     984A      0.890320   985A      0.890517   986A      0.891548  
     987A      0.892312   988A      0.893366   989A      0.894580  
     990A      0.894948   991A      0.896388   992A      0.897670  
     993A      0.900300   994A      0.902665   995A      0.903612  
     996A      0.905105   997A      0.905926   998A      0.909291  
     999A      0.911698  1000A      0.915639  1001A      0.916850  
    1002A      0.918195  1003A      0.921096  1004A      0.925947  
    1005A      0.926121  1006A      0.927801  1007A      0.930921  
    1008A      0.931593  1009A      0.933836  1010A      0.935421  
    1011A      0.938350  1012A      0.938950  1013A      0.940290  
    1014A      0.941037  1015A      0.941980  1016A      0.943603  
    1017A      0.945060  1018A      0.945949  1019A      0.947099  
    1020A      0.947794  1021A      0.950582  1022A      0.951842  
    1023A      0.953681  1024A      0.954357  1025A      0.956537  
    1026A      0.959706  1027A      0.959874  1028A      0.961867  
    1029A      0.962590  1030A      0.964276  1031A      0.967731  
    1032A      0.968082  1033A      0.970202  1034A      0.971574  
    1035A      0.973195  1036A      0.974948  1037A      0.976274  
    1038A      0.976954  1039A      0.981184  1040A      0.982901  
    1041A      0.983128  1042A      0.984261  1043A      0.985871  
    1044A      0.986798  1045A      0.987071  1046A      0.987908  
    1047A      0.989571  1048A      0.990005  1049A      0.991442  
    1050A      0.993401  1051A      0.994398  1052A      0.994855  
    1053A      0.996717  1054A      0.997216  1055A      0.998133  
    1056A      1.001040  1057A      1.001649  1058A      1.003020  
    1059A      1.003750  1060A      1.004129  1061A      1.005862  
    1062A      1.007074  1063A      1.008048  1064A      1.008403  
    1065A      1.008662  1066A      1.009034  1067A      1.009837  
    1068A      1.010508  1069A      1.011213  1070A      1.011763  
    1071A      1.013292  1072A      1.014431  1073A      1.015463  
    1074A      1.015876  1075A      1.016788  1076A      1.018895  
    1077A      1.019813  1078A      1.020312  1079A      1.020589  
    1080A      1.021123  1081A      1.022684  1082A      1.023798  
    1083A      1.024082  1084A      1.024607  1085A      1.025749  
    1086A      1.026868  1087A      1.027480  1088A      1.028485  
    1089A      1.029129  1090A      1.030957  1091A      1.032027  
    1092A      1.033795  1093A      1.034393  1094A      1.035027  
    1095A      1.037800  1096A      1.037972  1097A      1.039089  
    1098A      1.041086  1099A      1.043104  1100A      1.044949  
    1101A      1.045907  1102A      1.048371  1103A      1.049250  
    1104A      1.051303  1105A      1.052551  1106A      1.052976  
    1107A      1.054368  1108A      1.056477  1109A      1.057030  
    1110A      1.058021  1111A      1.060862  1112A      1.062657  
    1113A      1.065989  1114A      1.068150  1115A      1.068578  
    1116A      1.069810  1117A      1.071006  1118A      1.072192  
    1119A      1.073750  1120A      1.075130  1121A      1.077524  
    1122A      1.079797  1123A      1.080940  1124A      1.081408  
    1125A      1.084059  1126A      1.085271  1127A      1.086465  
    1128A      1.088308  1129A      1.090480  1130A      1.091674  
    1131A      1.091993  1132A      1.093390  1133A      1.096124  
    1134A      1.099238  1135A      1.100244  1136A      1.102426  
    1137A      1.103359  1138A      1.105444  1139A      1.107485  
    1140A      1.108124  1141A      1.113444  1142A      1.116208  
    1143A      1.117452  1144A      1.118261  1145A      1.118661  
    1146A      1.120119  1147A      1.121433  1148A      1.124708  
    1149A      1.126216  1150A      1.130208  1151A      1.130788  
    1152A      1.132320  1153A      1.132478  1154A      1.134584  
    1155A      1.138357  1156A      1.140617  1157A      1.141920  
    1158A      1.147180  1159A      1.148053  1160A      1.149644  
    1161A      1.151610  1162A      1.153290  1163A      1.154181  
    1164A      1.158140  1165A      1.158436  1166A      1.159637  
    1167A      1.163136  1168A      1.165314  1169A      1.166612  
    1170A      1.167817  1171A      1.169916  1172A      1.173599  
    1173A      1.175855  1174A      1.178988  1175A      1.179362  
    1176A      1.184754  1177A      1.185482  1178A      1.187765  
    1179A      1.188235  1180A      1.192507  1181A      1.194391  
    1182A      1.198384  1183A      1.198683  1184A      1.200546  
    1185A      1.202322  1186A      1.205539  1187A      1.208094  
    1188A      1.209839  1189A      1.210824  1190A      1.216108  
    1191A      1.221740  1192A      1.223252  1193A      1.225481  
    1194A      1.225656  1195A      1.227099  1196A      1.227153  
    1197A      1.229242  1198A      1.229893  1199A      1.231765  
    1200A      1.233554  1201A      1.235156  1202A      1.238165  
    1203A      1.240683  1204A      1.243779  1205A      1.246001  
    1206A      1.248264  1207A      1.249008  1208A      1.249742  
    1209A      1.251214  1210A      1.253707  1211A      1.255463  
    1212A      1.256142  1213A      1.256731  1214A      1.258607  
    1215A      1.259541  1216A      1.260810  1217A      1.261252  
    1218A      1.263912  1219A      1.266375  1220A      1.267373  
    1221A      1.269274  1222A      1.270969  1223A      1.273173  
    1224A      1.274507  1225A      1.275002  1226A      1.275689  
    1227A      1.280345  1228A      1.280861  1229A      1.284126  
    1230A      1.288567  1231A      1.288740  1232A      1.293644  
    1233A      1.294443  1234A      1.298580  1235A      1.299808  
    1236A      1.301492  1237A      1.302403  1238A      1.304123  
    1239A      1.306909  1240A      1.309552  1241A      1.309937  
    1242A      1.312494  1243A      1.313184  1244A      1.313667  
    1245A      1.316145  1246A      1.321911  1247A      1.326154  
    1248A      1.327037  1249A      1.332405  1250A      1.334872  
    1251A      1.335197  1252A      1.336159  1253A      1.341706  
    1254A      1.344237  1255A      1.345279  1256A      1.347450  
    1257A      1.348332  1258A      1.349685  1259A      1.350551  
    1260A      1.351476  1261A      1.353171  1262A      1.359391  
    1263A      1.360788  1264A      1.363722  1265A      1.364971  
    1266A      1.365608  1267A      1.366200  1268A      1.367181  
    1269A      1.369388  1270A      1.371603  1271A      1.372909  
    1272A      1.374884  1273A      1.376183  1274A      1.377042  
    1275A      1.378685  1276A      1.381147  1277A      1.381789  
    1278A      1.382788  1279A      1.388194  1280A      1.389342  
    1281A      1.390117  1282A      1.391123  1283A      1.392426  
    1284A      1.396683  1285A      1.399180  1286A      1.401308  
    1287A      1.404100  1288A      1.406074  1289A      1.407151  
    1290A      1.409026  1291A      1.411490  1292A      1.418017  
    1293A      1.419017  1294A      1.422191  1295A      1.423332  
    1296A      1.424261  1297A      1.425241  1298A      1.429703  
    1299A      1.437586  1300A      1.438170  1301A      1.440313  
    1302A      1.440325  1303A      1.448213  1304A      1.450292  
    1305A      1.454932  1306A      1.457509  1307A      1.467084  
    1308A      1.470529  1309A      1.476400  1310A      1.476439  
    1311A      1.483888  1312A      1.485082  1313A      1.487824  
    1314A      1.498360  1315A      1.512191  1316A      1.514999  
    1317A      1.517778  1318A      1.521608  1319A      1.525482  
    1320A      1.531120  1321A      1.532509  1322A      1.535905  
    1323A      1.537333  1324A      1.540607  1325A      1.541232  
    1326A      1.541778  1327A      1.542575  1328A      1.543734  
    1329A      1.544737  1330A      1.547044  1331A      1.548237  
    1332A      1.549178  1333A      1.551039  1334A      1.551667  
    1335A      1.554773  1336A      1.556354  1337A      1.558107  
    1338A      1.558680  1339A      1.559355  1340A      1.560405  
    1341A      1.563927  1342A      1.565343  1343A      1.565854  
    1344A      1.566922  1345A      1.568418  1346A      1.568721  
    1347A      1.571533  1348A      1.572223  1349A      1.573819  
    1350A      1.574293  1351A      1.575517  1352A      1.577451  
    1353A      1.578014  1354A      1.581821  1355A      1.582262  
    1356A      1.587041  1357A      1.588182  1358A      1.590526  
    1359A      1.591776  1360A      1.592134  1361A      1.594064  
    1362A      1.596023  1363A      1.596785  1364A      1.598574  
    1365A      1.599045  1366A      1.601259  1367A      1.601808  
    1368A      1.602896  1369A      1.603646  1370A      1.605194  
    1371A      1.609990  1372A      1.610578  1373A      1.611662  
    1374A      1.613285  1375A      1.620153  1376A      1.622820  
    1377A      1.623843  1378A      1.624419  1379A      1.627877  
    1380A      1.629847  1381A      1.631593  1382A      1.632342  
    1383A      1.635532  1384A      1.637799  1385A      1.640721  
    1386A      1.642657  1387A      1.644102  1388A      1.646602  
    1389A      1.648903  1390A      1.649477  1391A      1.651253  
    1392A      1.651893  1393A      1.654719  1394A      1.656258  
    1395A      1.656814  1396A      1.658629  1397A      1.661322  
    1398A      1.667452  1399A      1.673591  1400A      1.674586  
    1401A      1.680995  1402A      1.682648  1403A      1.683443  
    1404A      1.684994  1405A      1.687525  1406A      1.692840  
    1407A      1.698499  1408A      1.699367  1409A      1.705029  
    1410A      1.707920  1411A      1.715084  1412A      1.720023  
    1413A      1.723664  1414A      1.723957  1415A      1.728533  
    1416A      1.731792  1417A      1.732253  1418A      1.733159  
    1419A      1.740200  1420A      1.743885  1421A      1.755593  
    1422A      1.759369  1423A      1.761323  1424A      1.763480  
    1425A      1.765476  1426A      1.766221  1427A      1.767168  
    1428A      1.768733  1429A      1.769733  1430A      1.771427  
    1431A      1.772248  1432A      1.773057  1433A      1.781700  
    1434A      1.781935  1435A      1.783366  1436A      1.785518  
    1437A      1.793031  1438A      1.793351  1439A      1.794973  
    1440A      1.795715  1441A      1.797174  1442A      1.798063  
    1443A      1.801780  1444A      1.803194  1445A      1.804998  
    1446A      1.805394  1447A      1.806832  1448A      1.808043  
    1449A      1.812640  1450A      1.813542  1451A      1.815453  
    1452A      1.816783  1453A      1.817821  1454A      1.819472  
    1455A      1.820712  1456A      1.821112  1457A      1.822232  
    1458A      1.822665  1459A      1.822870  1460A      1.825113  
    1461A      1.828670  1462A      1.830989  1463A      1.840003  
    1464A      1.841178  1465A      1.843232  1466A      1.844199  
    1467A      1.846727  1468A      1.846917  1469A      1.847773  
    1470A      1.852182  1471A      1.854119  1472A      1.854350  
    1473A      1.855604  1474A      1.856463  1475A      1.857884  
    1476A      1.860736  1477A      1.863091  1478A      1.863664  
    1479A      1.867851  1480A      1.870934  1481A      1.871856  
    1482A      1.873635  1483A      1.874763  1484A      1.876289  
    1485A      1.877056  1486A      1.880300  1487A      1.880999  
    1488A      1.883507  1489A      1.885295  1490A      1.885897  
    1491A      1.887914  1492A      1.888377  1493A      1.891885  
    1494A      1.893387  1495A      1.895720  1496A      1.896782  
    1497A      1.897986  1498A      1.898795  1499A      1.901862  
    1500A      1.902963  1501A      1.904334  1502A      1.905641  
    1503A      1.909233  1504A      1.910763  1505A      1.912096  
    1506A      1.914136  1507A      1.914721  1508A      1.916704  
    1509A      1.920223  1510A      1.923815  1511A      1.925220  
    1512A      1.927524  1513A      1.929126  1514A      1.930591  
    1515A      1.932393  1516A      1.934129  1517A      1.940390  
    1518A      1.942360  1519A      1.943406  1520A      1.944900  
    1521A      1.947233  1522A      1.947800  1523A      1.949414  
    1524A      1.951157  1525A      1.952548  1526A      1.954117  
    1527A      1.954630  1528A      1.957083  1529A      1.957788  
    1530A      1.958259  1531A      1.960045  1532A      1.962968  
    1533A      1.963240  1534A      1.968885  1535A      1.970256  
    1536A      1.971332  1537A      1.974684  1538A      1.975408  
    1539A      1.977692  1540A      1.979849  1541A      1.980600  
    1542A      1.983692  1543A      1.986562  1544A      1.988938  
    1545A      1.989319  1546A      1.990723  1547A      1.992706  
    1548A      1.995304  1549A      1.996886  1550A      1.998557  
    1551A      1.999632  1552A      2.002014  1553A      2.003169  
    1554A      2.004518  1555A      2.006283  1556A      2.008881  
    1557A      2.013407  1558A      2.014976  1559A      2.016086  
    1560A      2.016443  1561A      2.017780  1562A      2.018320  
    1563A      2.018501  1564A      2.021018  1565A      2.021391  
    1566A      2.022144  1567A      2.022568  1568A      2.023159  
    1569A      2.026145  1570A      2.026600  1571A      2.026959  
    1572A      2.027503  1573A      2.028840  1574A      2.029348  
    1575A      2.030427  1576A      2.032186  1577A      2.033335  
    1578A      2.034222  1579A      2.036432  1580A      2.037860  
    1581A      2.038455  1582A      2.042940  1583A      2.043566  
    1584A      2.047426  1585A      2.048197  1586A      2.048592  
    1587A      2.049400  1588A      2.050423  1589A      2.051924  
    1590A      2.054565  1591A      2.055299  1592A      2.057560  
    1593A      2.058548  1594A      2.059490  1595A      2.061373  
    1596A      2.062854  1597A      2.063273  1598A      2.063979  
    1599A      2.065359  1600A      2.065867  1601A      2.067639  
    1602A      2.070119  1603A      2.073600  1604A      2.074575  
    1605A      2.076406  1606A      2.079730  1607A      2.080695  
    1608A      2.081054  1609A      2.083343  1610A      2.084718  
    1611A      2.089108  1612A      2.090932  1613A      2.092342  
    1614A      2.093985  1615A      2.094430  1616A      2.095687  
    1617A      2.097795  1618A      2.099938  1619A      2.100632  
    1620A      2.102925  1621A      2.104703  1622A      2.110356  
    1623A      2.111187  1624A      2.113147  1625A      2.116527  
    1626A      2.118146  1627A      2.118760  1628A      2.120212  
    1629A      2.122348  1630A      2.124029  1631A      2.125190  
    1632A      2.125846  1633A      2.127788  1634A      2.128479  
    1635A      2.130277  1636A      2.133314  1637A      2.134361  
    1638A      2.136012  1639A      2.136784  1640A      2.138969  
    1641A      2.141827  1642A      2.147000  1643A      2.147427  
    1644A      2.148198  1645A      2.149363  1646A      2.151074  
    1647A      2.153000  1648A      2.154918  1649A      2.156740  
    1650A      2.158948  1651A      2.160221  1652A      2.162800  
    1653A      2.164475  1654A      2.165847  1655A      2.167180  
    1656A      2.168468  1657A      2.171039  1658A      2.171181  
    1659A      2.171886  1660A      2.173426  1661A      2.176545  
    1662A      2.179242  1663A      2.179600  1664A      2.186996  
    1665A      2.188041  1666A      2.189522  1667A      2.199274  
    1668A      2.200413  1669A      2.203858  1670A      2.205114  
    1671A      2.208805  1672A      2.212247  1673A      2.213631  
    1674A      2.214904  1675A      2.216732  1676A      2.218447  
    1677A      2.219004  1678A      2.227805  1679A      2.228506  
    1680A      2.229547  1681A      2.232678  1682A      2.234825  
    1683A      2.239606  1684A      2.243231  1685A      2.245270  
    1686A      2.247862  1687A      2.259846  1688A      2.260053  
    1689A      2.260582  1690A      2.264356  1691A      2.264787  
    1692A      2.265768  1693A      2.266241  1694A      2.266853  
    1695A      2.267497  1696A      2.270373  1697A      2.272540  
    1698A      2.273887  1699A      2.275939  1700A      2.276267  
    1701A      2.277410  1702A      2.278326  1703A      2.279490  
    1704A      2.280254  1705A      2.281262  1706A      2.282063  
    1707A      2.282857  1708A      2.288448  1709A      2.303326  
    1710A      2.308230  1711A      2.309905  1712A      2.316444  
    1713A      2.320018  1714A      2.323650  1715A      2.327882  
    1716A      2.329940  1717A      2.334151  1718A      2.344678  
    1719A      2.353235  1720A      2.354666  1721A      2.358241  
    1722A      2.360806  1723A      2.362314  1724A      2.365498  
    1725A      2.376976  1726A      2.380495  1727A      2.385285  
    1728A      2.388369  1729A      2.389806  1730A      2.399767  
    1731A      2.400575  1732A      2.403117  1733A      2.403514  
    1734A      2.407189  1735A      2.407602  1736A      2.421613  
    1737A      2.427762  1738A      2.428935  1739A      2.437479  
    1740A      2.438695  1741A      2.440704  1742A      2.445073  
    1743A      2.447000  1744A      2.448625  1745A      2.456793  
    1746A      2.472417  1747A      2.474124  1748A      2.475665  
    1749A      2.477040  1750A      2.479080  1751A      2.480913  
    1752A      2.482525  1753A      2.484367  1754A      2.485880  
    1755A      2.486658  1756A      2.487247  1757A      2.487916  
    1758A      2.498783  1759A      2.506851  1760A      2.509618  
    1761A      2.519106  1762A      2.521246  1763A      2.522772  
    1764A      2.523522  1765A      2.524343  1766A      2.525745  
    1767A      2.527592  1768A      2.528300  1769A      2.533973  
    1770A      2.536712  1771A      2.537713  1772A      2.539986  
    1773A      2.545927  1774A      2.549176  1775A      2.550379  
    1776A      2.550977  1777A      2.553854  1778A      2.555179  
    1779A      2.565710  1780A      2.567860  1781A      2.571600  
    1782A      2.576399  1783A      2.579036  1784A      2.579688  
    1785A      2.580891  1786A      2.583458  1787A      2.585377  
    1788A      2.586447  1789A      2.593681  1790A      2.594431  
    1791A      2.596108  1792A      2.596572  1793A      2.604274  
    1794A      2.607341  1795A      2.609045  1796A      2.610503  
    1797A      2.611671  1798A      2.616625  1799A      2.617636  
    1800A      2.620665  1801A      2.623257  1802A      2.624615  
    1803A      2.625901  1804A      2.626261  1805A      2.628240  
    1806A      2.628971  1807A      2.631556  1808A      2.632771  
    1809A      2.643630  1810A      2.652944  1811A      2.658907  
    1812A      2.662041  1813A      2.664989  1814A      2.666187  
    1815A      2.667694  1816A      2.669500  1817A      2.684738  
    1818A      2.691278  1819A      2.691360  1820A      2.694774  
    1821A      2.707618  1822A      2.711306  1823A      2.713281  
    1824A      2.715654  1825A      2.731357  1826A      2.732280  
    1827A      2.734049  1828A      2.734899  1829A      2.737634  
    1830A      2.740251  1831A      2.741146  1832A      2.743134  
    1833A      2.746048  1834A      2.746369  1835A      2.750903  
    1836A      2.753149  1837A      2.754837  1838A      2.762512  
    1839A      2.766936  1840A      2.771441  1841A      2.775489  
    1842A      2.776273  1843A      2.778999  1844A      2.780751  
    1845A      2.784618  1846A      2.791197  1847A      2.798169  
    1848A      2.798322  1849A      2.799363  1850A      2.803093  
    1851A      2.808844  1852A      2.811678  1853A      2.817697  
    1854A      2.822491  1855A      2.824396  1856A      2.825290  
    1857A      2.843914  1858A      2.855941  1859A      2.856502  
    1860A      2.867036  1861A      2.868072  1862A      2.869558  
    1863A      2.872293  1864A      2.883657  1865A      2.898106  
    1866A      2.904148  1867A      2.905184  1868A      2.907277  
    1869A      2.913621  1870A      2.931217  1871A      2.932993  
    1872A      2.960671  1873A      2.963192  1874A      2.964004  
    1875A      2.978083  1876A      2.979227  1877A      2.983655  
    1878A      2.984833  1879A      2.989156  1880A      2.991595  
    1881A      2.991871  1882A      2.995036  1883A      3.008023  
    1884A      3.008512  1885A      3.045413  1886A      3.048497  
    1887A      3.050579  1888A      3.054650  1889A      3.058777  
    1890A      3.065592  1891A      3.066688  1892A      3.072569  
    1893A      3.078751  1894A      3.079669  1895A      3.081532  
    1896A      3.088346  1897A      3.089834  1898A      3.090784  
    1899A      3.092104  1900A      3.093234  1901A      3.099017  
    1902A      3.100216  1903A      3.109460  1904A      3.112651  
    1905A      3.115295  1906A      3.115902  1907A      3.131545  
    1908A      3.132104  1909A      3.135968  1910A      3.158743  
    1911A      3.193860  1912A      3.196217  1913A      3.197416  
    1914A      3.199906  1915A      3.201462  1916A      3.205636  
    1917A      3.207246  1918A      3.211156  1919A      3.212382  
    1920A      3.214182  1921A      3.230660  1922A      3.237969  
    1923A      3.242503  1924A      3.256643  1925A      3.294709  
    1926A      3.296788  1927A      3.326587  1928A      3.350733  
    1929A      3.357080  1930A      3.376895  1931A      3.385436  
    1932A      3.388895  1933A      3.391229  1934A      3.399043  
    1935A      3.399905  1936A      3.406583  1937A      3.410139  
    1938A      3.417764  1939A      3.421417  1940A      3.425109  
    1941A      3.443253  1942A      3.447004  1943A      3.483867  
    1944A      3.512227  1945A      3.514894  1946A      3.520499  
    1947A      3.524926  1948A      3.536120  1949A      3.580602  
    1950A      3.589651  1951A      3.599905  1952A      3.607686  
    1953A      3.609537  1954A      3.640577  1955A      3.685687  
    1956A      3.692208  1957A      3.696512  1958A      3.710106  
    1959A      3.714593  1960A      3.721815  1961A      3.781170  
    1962A      3.782736  1963A      3.809065  1964A      3.812090  
    1965A      3.848573  1966A      3.860235  1967A      3.874789  
    1968A      3.882642  1969A      3.884919  1970A      3.892708  
    1971A      3.900336  1972A      3.908039  1973A      3.911075  
    1974A      3.955014  1975A      3.957211  1976A      4.010924  
    1977A      4.221488  1978A      4.329867  1979A      4.356481  

    Final Occupation by Irrep:
              A 
    DOCC [   326 ]
    NA   [   326 ]
    NB   [   326 ]

  @DF-RHF Final Energy: -3953.66044486479859

   => Energetics <=

    Nuclear Repulsion Energy =          18252.5053005156696599
    One-Electron Energy =              -41709.6629095162570593
    Two-Electron Energy =               19503.4971641357878980
    Total Energy =                      -3953.6604448647995014

Computation Completed


Properties will be evaluated at   0.000000,   0.000000,   0.000000 [a0]

Properties computed using the SCF density matrix


 Multipole Moments:

 ------------------------------------------------------------------------------------
     Multipole            Electronic (a.u.)      Nuclear  (a.u.)        Total (a.u.)
 ------------------------------------------------------------------------------------

 L = 1.  Multiply by 2.5417464519 to convert [e a0] to [Debye]
 Dipole X            :         -0.0020867            0.0004804           -0.0016063
 Dipole Y            :         -0.0516629            0.0561130            0.0044501
 Dipole Z            :         18.9844650          -24.2285913           -5.2441263
 Magnitude           :                                                    5.2441284

 ------------------------------------------------------------------------------------

*** tstop() called on n2cn0614.ab2021.local at Sat Feb 10 15:06:01 2024
Module time:
	user time   =   30929.34 seconds =     515.49 minutes
	system time =    6958.90 seconds =     115.98 minutes
	total time  =       5013 seconds =      83.55 minutes
Total time:
	user time   =   30929.34 seconds =     515.49 minutes
	system time =    6958.90 seconds =     115.98 minutes
	total time  =       5013 seconds =      83.55 minutes

  //>>>>>>>>>>>>>>>>>>>>>>>>>>>>>>>>>>>//
  //            Monomer A HF           //
  //<<<<<<<<<<<<<<<<<<<<<<<<<<<<<<<<<<<//

   => Libint2 <=

    Primary   basis highest AM E, G, H:  5, 4, 3
    Auxiliary basis highest AM E, G, H:  6, 5, 4
    Onebody   basis highest AM E, G, H:  6, 5, 4
    Solid Harmonics ordering:            gaussian

*** tstart() called on n2cn0614.ab2021.local
*** at Sat Feb 10 15:06:01 2024

   => Loading Basis Set <=

    Name: JUN-CC-PVDZ
    Role: ORBITAL
    Keyword: BASIS
    atoms 1-2, 4-5, 10, 17-34, 41-53, 56-70, 73-89, 92-104, 109-119, 122-130 entry C          line   164 file /opt/software/pc2/EB-SW/software/PSI4/1.9-foss-2022a/share/psi4/basis/jun-cc-pvdz.gbs 
    atoms 3, 6                                                               entry N          line   198 file /opt/software/pc2/EB-SW/software/PSI4/1.9-foss-2022a/share/psi4/basis/jun-cc-pvdz.gbs 
    atoms 7-9, 11-16, 35-40, 54-55, 71-72, 90-91, 105-108, 120-121, 131-136  entry H          line    36 file /opt/software/pc2/EB-SW/software/PSI4/1.9-foss-2022a/share/psi4/basis/jun-cc-pvdz.gbs 


         ---------------------------------------------------------
                                   SCF
               by Justin Turney, Rob Parrish, Andy Simmonett
                          and Daniel G. A. Smith
                              RHF Reference
                       16 Threads,  76293 MiB Core
         ---------------------------------------------------------

  ==> Geometry <==

    Molecular point group: c1
    Full point group: C1

    Geometry (in Angstrom), charge = 1, multiplicity = 1:

       Center              X                  Y                   Z               Mass       
    ------------   -----------------  -----------------  -----------------  -----------------
         C            0.680062820275    -0.008027535675    -5.188092992773    12.000000000000
         C           -0.680508179725    -0.005999535675    -5.187708992773    12.000000000000
         N           -1.085639179725    -0.005001535675    -3.869384992773    14.003074004430
[...]
    1588A      2.201975  1589A      2.203421  1590A      2.204223  
    1591A      2.204992  1592A      2.208390  1593A      2.210775  
    1594A      2.211197  1595A      2.214000  1596A      2.216245  
    1597A      2.217770  1598A      2.221446  1599A      2.222757  
    1600A      2.224283  1601A      2.224885  1602A      2.225740  
    1603A      2.227831  1604A      2.229864  1605A      2.232117  
    1606A      2.232215  1607A      2.236442  1608A      2.238932  
    1609A      2.239383  1610A      2.240540  1611A      2.241849  
    1612A      2.242195  1613A      2.244052  1614A      2.245588  
    1615A      2.247416  1616A      2.248958  1617A      2.254015  
    1618A      2.256136  1619A      2.259407  1620A      2.263347  
    1621A      2.266422  1622A      2.268210  1623A      2.268927  
    1624A      2.275346  1625A      2.279715  1626A      2.280979  
    1627A      2.282322  1628A      2.283168  1629A      2.284475  
    1630A      2.289027  1631A      2.291600  1632A      2.294962  
    1633A      2.295953  1634A      2.297369  1635A      2.301857  
    1636A      2.303147  1637A      2.306981  1638A      2.314707  
    1639A      2.317582  1640A      2.324257  1641A      2.325830  
    1642A      2.327181  1643A      2.330159  1644A      2.330440  
    1645A      2.331639  1646A      2.332593  1647A      2.333250  
    1648A      2.334405  1649A      2.336233  1650A      2.339094  
    1651A      2.340054  1652A      2.342253  1653A      2.343121  
    1654A      2.344636  1655A      2.345187  1656A      2.346182  
    1657A      2.346624  1658A      2.348888  1659A      2.351375  
    1660A      2.359226  1661A      2.362438  1662A      2.369913  
    1663A      2.378869  1664A      2.383077  1665A      2.385783  
    1666A      2.389583  1667A      2.391373  1668A      2.395286  
    1669A      2.399174  1670A      2.401376  1671A      2.408228  
    1672A      2.412882  1673A      2.418945  1674A      2.423829  
    1675A      2.426577  1676A      2.427754  1677A      2.432460  
    1678A      2.434807  1679A      2.439982  1680A      2.442104  
    1681A      2.448113  1682A      2.448966  1683A      2.453333  
    1684A      2.453665  1685A      2.464747  1686A      2.466360  
    1687A      2.468615  1688A      2.470088  1689A      2.472151  
    1690A      2.472389  1691A      2.480470  1692A      2.491604  
    1693A      2.492804  1694A      2.499328  1695A      2.502421  
    1696A      2.506556  1697A      2.508550  1698A      2.512320  
    1699A      2.515052  1700A      2.520508  1701A      2.522481  
    1702A      2.538661  1703A      2.539620  1704A      2.540724  
    1705A      2.540960  1706A      2.541940  1707A      2.546166  
    1708A      2.548630  1709A      2.549482  1710A      2.550754  
    1711A      2.551835  1712A      2.556983  1713A      2.557296  
    1714A      2.560850  1715A      2.564021  1716A      2.567454  
    1717A      2.572000  1718A      2.572704  1719A      2.581222  
    1720A      2.584959  1721A      2.585560  1722A      2.586119  
    1723A      2.586368  1724A      2.587600  1725A      2.589780  
    1726A      2.592154  1727A      2.593381  1728A      2.594569  
    1729A      2.599817  1730A      2.601417  1731A      2.610362  
    1732A      2.612075  1733A      2.615140  1734A      2.615282  
    1735A      2.615918  1736A      2.617574  1737A      2.621233  
    1738A      2.622816  1739A      2.634491  1740A      2.638117  
    1741A      2.642680  1742A      2.644060  1743A      2.645603  
    1744A      2.646935  1745A      2.649318  1746A      2.650659  
    1747A      2.652209  1748A      2.657825  1749A      2.658375  
    1750A      2.662131  1751A      2.666428  1752A      2.671244  
    1753A      2.671837  1754A      2.674272  1755A      2.675559  
    1756A      2.678429  1757A      2.679022  1758A      2.681638  
    1759A      2.686274  1760A      2.688004  1761A      2.690564  
    1762A      2.691535  1763A      2.692425  1764A      2.693142  
    1765A      2.694517  1766A      2.697224  1767A      2.697708  
    1768A      2.706742  1769A      2.710211  1770A      2.721098  
    1771A      2.722122  1772A      2.724246  1773A      2.728381  
    1774A      2.729059  1775A      2.731745  1776A      2.732596  
    1777A      2.734151  1778A      2.740100  1779A      2.754790  
    1780A      2.758716  1781A      2.761673  1782A      2.767813  
    1783A      2.779595  1784A      2.780485  1785A      2.784508  
    1786A      2.790633  1787A      2.793035  1788A      2.800125  
    1789A      2.800428  1790A      2.801503  1791A      2.802610  
    1792A      2.802847  1793A      2.806990  1794A      2.813535  
    1795A      2.816332  1796A      2.816601  1797A      2.817225  
    1798A      2.818424  1799A      2.824991  1800A      2.826803  
    1801A      2.834359  1802A      2.835150  1803A      2.843416  
    1804A      2.844516  1805A      2.845594  1806A      2.848818  
    1807A      2.850787  1808A      2.866536  1809A      2.867204  
    1810A      2.872814  1811A      2.874267  1812A      2.878043  
    1813A      2.896220  1814A      2.896995  1815A      2.902552  
    1816A      2.917255  1817A      2.919011  1818A      2.922313  
    1819A      2.926417  1820A      2.933991  1821A      2.935118  
    1822A      2.935392  1823A      2.941122  1824A      2.944528  
    1825A      2.951176  1826A      2.964087  1827A      2.968644  
    1828A      2.974344  1829A      2.976251  1830A      2.977515  
    1831A      2.990864  1832A      2.996502  1833A      2.999244  
    1834A      3.020411  1835A      3.029627  1836A      3.031373  
    1837A      3.035537  1838A      3.043320  1839A      3.043969  
    1840A      3.049415  1841A      3.053329  1842A      3.055329  
    1843A      3.058389  1844A      3.059974  1845A      3.068034  
    1846A      3.072417  1847A      3.082509  1848A      3.095642  
    1849A      3.108628  1850A      3.110661  1851A      3.115272  
    1852A      3.119117  1853A      3.124378  1854A      3.131144  
    1855A      3.132314  1856A      3.141437  1857A      3.143402  
    1858A      3.144482  1859A      3.147167  1860A      3.147284  
    1861A      3.152947  1862A      3.154804  1863A      3.155742  
    1864A      3.162724  1865A      3.163290  1866A      3.166948  
    1867A      3.169235  1868A      3.174954  1869A      3.180267  
    1870A      3.180675  1871A      3.195314  1872A      3.196695  
    1873A      3.207921  1874A      3.221048  1875A      3.258730  
    1876A      3.263539  1877A      3.263710  1878A      3.265894  
    1879A      3.267631  1880A      3.269022  1881A      3.273292  
    1882A      3.275457  1883A      3.276932  1884A      3.279212  
    1885A      3.297890  1886A      3.303983  1887A      3.306266  
    1888A      3.309158  1889A      3.315315  1890A      3.359912  
    1891A      3.363564  1892A      3.365693  1893A      3.394539  
    1894A      3.408284  1895A      3.421936  1896A      3.435877  
    1897A      3.451408  1898A      3.452581  1899A      3.458330  
    1900A      3.461080  1901A      3.469441  1902A      3.473085  
    1903A      3.475603  1904A      3.478969  1905A      3.487874  
    1906A      3.491957  1907A      3.492954  1908A      3.510100  
    1909A      3.516484  1910A      3.521155  1911A      3.550603  
    1912A      3.558096  1913A      3.581401  1914A      3.584208  
    1915A      3.590333  1916A      3.591850  1917A      3.643854  
    1918A      3.651276  1919A      3.654941  1920A      3.667402  
    1921A      3.677155  1922A      3.682199  1923A      3.708872  
    1924A      3.752558  1925A      3.759389  1926A      3.765694  
    1927A      3.768270  1928A      3.778873  1929A      3.781788  
    1930A      3.793377  1931A      3.835889  1932A      3.847553  
    1933A      3.849846  1934A      3.875330  1935A      3.878664  
    1936A      3.885114  1937A      3.916355  1938A      3.927988  
    1939A      3.946656  1940A      3.949851  1941A      3.952024  
    1942A      3.962978  1943A      3.969427  1944A      3.978097  
    1945A      3.984770  1946A      4.019852  1947A      4.025043  
    1948A      4.027950  1949A      4.083186  1950A      4.232760  
    1951A      4.235493  1952A      4.302763  1953A      4.410497  
    1954A      4.425314  1955A      4.442686  1956A      4.452210  
    1957A      4.518169  1958A      4.800244  1959A      4.854235  
    1960A      4.888098  1961A      4.896967  1962A      4.977005  
    1963A      5.087905  1964A      5.091509  1965A      5.100590  
    1966A      5.137326  1967A      5.215220  1968A      5.413829  
    1969A      5.442580  1970A      5.770491  1971A      5.790634  
    1972A      6.082495  1973A     18.206673  1974A     18.486465  
    1975A     18.509147  1976A     18.597184  1977A     18.859368  
    1978A     25.357897  1979A     25.393131  

    Final Occupation by Irrep:
              A 
    DOCC [   300 ]
    NA   [   300 ]
    NB   [   300 ]

  @DF-RHF Final Energy: -3650.34125404317865

   => Energetics <=

    Nuclear Repulsion Energy =          15611.4211649754306563
    One-Electron Energy =              -36072.1850899700875743
    Two-Electron Energy =               16810.4226709514805407
    Total Energy =                      -3650.3412540431781963

Computation Completed


Properties will be evaluated at   0.000000,   0.000000,   0.000000 [a0]

Properties computed using the SCF density matrix


 Multipole Moments:

 ------------------------------------------------------------------------------------
     Multipole            Electronic (a.u.)      Nuclear  (a.u.)        Total (a.u.)
 ------------------------------------------------------------------------------------

 L = 1.  Multiply by 2.5417464519 to convert [e a0] to [Debye]
 Dipole X            :         -0.0006762            0.0002112           -0.0004651
 Dipole Y            :          0.0013189           -0.0013774           -0.0000585
 Dipole Z            :       -371.7097835          371.7155525            0.0057690
 Magnitude           :                                                    0.0057880

 ------------------------------------------------------------------------------------

*** tstop() called on n2cn0614.ab2021.local at Sat Feb 10 16:19:13 2024
Module time:
	user time   =   20784.24 seconds =     346.40 minutes
	system time =    4574.10 seconds =      76.23 minutes
	total time  =       2948 seconds =      49.13 minutes
Total time:
	user time   =   58851.24 seconds =     980.85 minutes
	system time =   12461.11 seconds =     207.69 minutes
	total time  =       9405 seconds =     156.75 minutes
  Constructing Basis Sets for SAPT...

   => Loading Basis Set <=

    Name: (JUN-CC-PVDZ AUX)
    Role: RIFIT
    Keyword: DF_BASIS_SAPT
    atoms 1-2, 4-5, 10, 17-34, 41-53, 56-70, 73-89, 92-104, 109-119, 122-130 entry C          line   100 file /opt/software/pc2/EB-SW/software/PSI4/1.9-foss-2022a/share/psi4/basis/jun-cc-pvdz-ri.gbs 
    atoms 3, 6                                                               entry N          line   144 file /opt/software/pc2/EB-SW/software/PSI4/1.9-foss-2022a/share/psi4/basis/jun-cc-pvdz-ri.gbs 
    atoms 7-9, 11-16, 35-40, 54-55, 71-72, 90-91, 105-108, 120-121, 131-136  entry H          line    30 file /opt/software/pc2/EB-SW/software/PSI4/1.9-foss-2022a/share/psi4/basis/jun-cc-pvdz-ri.gbs 

   => Loading Basis Set <=

    Name: (JUN-CC-PVDZ AUX)
    Role: JKFIT
    Keyword: DF_BASIS_ELST
    atoms 1-2, 4-5, 10, 17-34, 41-53, 56-70, 73-89, 92-104, 109-119, 122-130 entry C          line   146 file /opt/software/pc2/EB-SW/software/PSI4/1.9-foss-2022a/share/psi4/basis/jun-cc-pvdz-jkfit.gbs 
    atoms 3, 6                                                               entry N          line   202 file /opt/software/pc2/EB-SW/software/PSI4/1.9-foss-2022a/share/psi4/basis/jun-cc-pvdz-jkfit.gbs 
    atoms 7-9, 11-16, 35-40, 54-55, 71-72, 90-91, 105-108, 120-121, 131-136  entry H          line    70 file /opt/software/pc2/EB-SW/software/PSI4/1.9-foss-2022a/share/psi4/basis/jun-cc-pvdz-jkfit.gbs 


  //>>>>>>>>>>>>>>>>>>>>>>>>>>>>>>>>>>>//
  //               SSAPT0              //
  //<<<<<<<<<<<<<<<<<<<<<<<<<<<<<<<<<<<//


*** tstart() called on n2cn0614.ab2021.local
*** at Sat Feb 10 16:19:17 2024

        SAPT0  
    Ed Hohenstein
     6 June 2009

      Orbital Information
  --------------------------
    NSO        =      2019
    NMO        =      1979
    NRI        =      7157
    NRI (Elst) =      8896
    NOCC A     =        26
    NOCC B     =       300
    FOCC A     =         7
    FOCC B     =        96
    NVIR A     =      1953
    NVIR B     =      1679

    Elst10,r            =    -0.015034768049 [Eh]
    Exch10              =     0.012338541207 [Eh]
    Exch10 (S^2)        =     0.012290718868 [Eh]

    Iter     Energy [mEh]          dE [mEh]         Residual      Time [s]
       1      -0.84423821       0.844238209       4.119411622           169
       2      -1.00221882       0.157980606       1.472962298           308
       3      -1.02721053       0.024991719       0.205961138           452
       4      -1.02553987      -0.001670665       0.061189061           590
       5      -1.02521827      -0.000321599       0.012567619           737
       6      -1.02531319       0.000094919       0.002599647           850
       7      -1.02531284      -0.000000346       0.001046042           993
       8      -1.02530944      -0.000003402       0.000330411          1113
       9      -1.02530909      -0.000000356       0.000115029          1250
      10      -1.02530936       0.000000273       0.000051390          1387
      11      -1.02530946       0.000000102       0.000020120          1537
      12      -1.02530940      -0.000000058       0.000006258          1707
      13      -1.02530939      -0.000000008       0.000001652          1846
      14      -1.02530940       0.000000004       0.000000486          1995

    CHF Iterations converged


    Iter     Energy [mEh]          dE [mEh]         Residual      Time [s]
       1     -25.05146843      25.051468431      84.441232282           222
       2     -16.71725654      -8.334211888      11.001618486           405
       3     -16.80685183       0.089595282       4.191316294           599
       4     -17.22377152       0.416919699       1.226610455           774
       5     -17.26761123       0.043839706       0.419963789           958
       6     -17.25524118      -0.012370047       0.270122447          1187
       7     -17.24763844      -0.007602748       0.109458987          1411
       8     -17.24904923       0.001410793       0.048779042          1598
       9     -17.25049872       0.001449496       0.018888598          1784
      10     -17.25041498      -0.000083745       0.016514542          1977
      11     -17.25009822      -0.000316764       0.010179944          2156
      12     -17.25008310      -0.000015113       0.005799248          2323
      13     -17.25018835       0.000105252       0.002888262          2480
      14     -17.25020758       0.000019229       0.001973157          2647
      15     -17.25018556      -0.000022020       0.001275129          2830
      16     -17.25016970      -0.000015865       0.000541736          3051
      17     -17.25018039       0.000010696       0.000226303          3223
      18     -17.25018228       0.000001885       0.000094252          3405
      19     -17.25018090      -0.000001379       0.000052819          3576
      20     -17.25018023      -0.000000665       0.000023622          3783
      21     -17.25018048       0.000000246       0.000012267          3976
      22     -17.25018063       0.000000149       0.000006085          4124
      23     -17.25018059      -0.000000035       0.000003184          4283
      24     -17.25018056      -0.000000040       0.000001745          4442
      25     -17.25018056       0.000000005       0.000000964          4614

    CHF Iterations converged

    Ind20,r (A<-B)      =    -0.001025309398 [Eh]
    Ind20,r (B<-A)      =    -0.017250180560 [Eh]
    Ind20,r             =    -0.018275489959 [Eh]
    Exch-Ind20,r (A<-B) =     0.000965322118 [Eh]
    Exch-Ind20,r (B<-A) =     0.001873797023 [Eh]
    Exch-Ind20,r        =     0.002839119141 [Eh]
    Disp20              =    -0.023449434673 [Eh]
    Disp20 (SS)         =    -0.011724717336 [Eh]
    Disp20 (OS)         =    -0.011724717336 [Eh]
    Exch-Disp20         =     0.001163539850 [Eh]
    Exch-Disp20 (SS)    =     0.000703789905 [Eh]
    Exch-Disp20 (OS)    =     0.000459749945 [Eh]

    SAPT Results 
  --------------------------------------------------------------------------------------------------------
    Electrostatics                -15.03476805 [mEh]      -9.43445939 [kcal/mol]     -39.47377807 [kJ/mol]
      Elst10,r                    -15.03476805 [mEh]      -9.43445939 [kcal/mol]     -39.47377807 [kJ/mol]

    Exchange                       12.33854121 [mEh]       7.74255150 [kcal/mol]      32.39483548 [kJ/mol]
      Exch10                       12.33854121 [mEh]       7.74255150 [kcal/mol]      32.39483548 [kJ/mol]
      Exch10(S^2)                  12.29071887 [mEh]       7.71254253 [kcal/mol]      32.26927794 [kJ/mol]

    Induction                     -18.19305917 [mEh]     -11.41631699 [kcal/mol]     -47.76587027 [kJ/mol]
      Ind20,r                     -18.27548996 [mEh]     -11.46804309 [kcal/mol]     -47.98229228 [kJ/mol]
      Exch-Ind20,r                  2.83911914 [mEh]       1.78157416 [kcal/mol]       7.45410628 [kJ/mol]
      delta HF,r (2)               -2.75668835 [mEh]      -1.72984806 [kcal/mol]      -7.23768428 [kJ/mol]

    Dispersion                    -22.28589482 [mEh]     -13.98461013 [kcal/mol]     -58.51160880 [kJ/mol]
      Disp20                      -23.44943467 [mEh]     -14.71474241 [kcal/mol]     -61.56648225 [kJ/mol]
      Exch-Disp20                   1.16353985 [mEh]       0.73013228 [kcal/mol]       3.05487346 [kJ/mol]
      Disp20 (SS)                 -11.72471734 [mEh]      -7.35737121 [kcal/mol]     -30.78324113 [kJ/mol]
      Disp20 (OS)                 -11.72471734 [mEh]      -7.35737121 [kcal/mol]     -30.78324113 [kJ/mol]
      Exch-Disp20 (SS)              0.70378990 [mEh]       0.44163483 [kcal/mol]       1.84780014 [kJ/mol]
      Exch-Disp20 (OS)              0.45974995 [mEh]       0.28849745 [kcal/mol]       1.20707331 [kJ/mol]

  Total HF                        -20.88928601 [mEh]     -13.10822487 [kcal/mol]     -54.84481287 [kJ/mol]
  Total SAPT0                     -43.17518084 [mEh]     -27.09283501 [kcal/mol]    -113.35642167 [kJ/mol]

  Special recipe for scaled SAPT0 (see Manual):
    Electrostatics sSAPT0         -15.03476805 [mEh]      -9.43445939 [kcal/mol]     -39.47377807 [kJ/mol]
    Exchange sSAPT0                12.33854121 [mEh]       7.74255150 [kcal/mol]      32.39483548 [kJ/mol]
    Induction sSAPT0              -18.15978961 [mEh]     -11.39544002 [kcal/mol]     -47.67852104 [kJ/mol]
    Dispersion sSAPT0             -22.27226015 [mEh]     -13.97605425 [kcal/mol]     -58.47581096 [kJ/mol]
  Total sSAPT0                    -43.12827660 [mEh]     -27.06340215 [kcal/mol]    -113.23327460 [kJ/mol]
  --------------------------------------------------------------------------------------------------------

*** tstop() called on n2cn0614.ab2021.local at Sat Feb 10 21:02:44 2024
Module time:
	user time   =   90983.28 seconds =    1516.39 minutes
	system time =    9795.21 seconds =     163.25 minutes
	total time  =      17007 seconds =     283.45 minutes
Total time:
	user time   =  149838.17 seconds =    2497.30 minutes
	system time =   22256.35 seconds =     370.94 minutes
	total time  =      26416 seconds =     440.27 minutes

    Psi4 stopped on: Saturday, 10 February 2024 09:02PM
    Psi4 wall time for execution: 7:20:18.03

*** Psi4 exiting successfully. Buy a developer a beer!
