
    -----------------------------------------------------------------------
          Psi4: An Open-Source Ab Initio Electronic Structure Package
                               Psi4 1.9 release

                         Git: Rev {} zzzzzzz 


    D. G. A. Smith, L. A. Burns, A. C. Simmonett, R. M. Parrish,
    M. C. Schieber, R. Galvelis, P. Kraus, H. Kruse, R. Di Remigio,
    A. Alenaizan, A. M. James, S. Lehtola, J. P. Misiewicz, M. Scheurer,
    R. A. Shaw, J. B. Schriber, Y. Xie, Z. L. Glick, D. A. Sirianni,
    J. S. O'Brien, J. M. Waldrop, A. Kumar, E. G. Hohenstein,
    B. P. Pritchard, B. R. Brooks, H. F. Schaefer III, A. Yu. Sokolov,
    K. Patkowski, A. E. DePrince III, U. Bozkaya, R. A. King,
    F. A. Evangelista, J. M. Turney, T. D. Crawford, C. D. Sherrill,
    J. Chem. Phys. 152(18) 184108 (2020). https://doi.org/10.1063/5.0006002

                            Additional Code Authors
    E. T. Seidl, C. L. Janssen, E. F. Valeev, M. L. Leininger,
    J. F. Gonthier, R. M. Richard, H. R. McAlexander, M. Saitow, X. Wang,
    P. Verma, M. H. Lechner, A. Jiang, S. Behnle, A. G. Heide,
    M. F. Herbst, and D. L. Poole

             Previous Authors, Complete List of Code Contributors,
                       and Citations for Specific Modules
    https://github.com/psi4/psi4/blob/master/codemeta.json
    https://github.com/psi4/psi4/graphs/contributors
    http://psicode.org/psi4manual/master/introduction.html#citing-psifour

    -----------------------------------------------------------------------


    Psi4 started on: Monday, 22 January 2024 10:22PM

    Process ID: 2854659
    Host:       d-18-8-4
    PSIDATADIR: /home/gridsan/tfroembgen/.conda/envs/psi4test/share/psi4
    Memory:     500.0 MiB
    Threads:    12
    
  ==> Input File <==

--------------------------------------------------------------------------
memory 32 GB # how much memory is available ! Depends on the nodes/cores !

molecule dimer {
# monomer A
+1 1    # Charge and multiplicity
C  0.680067 1.417258  -9.615929
C -0.680504 1.419286  -9.615545
N -1.085635 1.420284  -8.297221
C  0.000108 1.423560  -7.515820
C -2.477365 1.469690  -7.829242
N  1.085222 1.420284  -8.297221
H  1.385146 1.409430 -10.433368
H -1.385302 1.419096 -10.433214
H -0.000009 1.425307  -6.434731
C  2.478117 1.403392  -7.832123
H  2.490592 1.430737  -6.741870
H  2.967028 0.489946  -8.179299
H  3.001428 2.278875  -8.223595
H -2.857359 2.491761  -7.909201
H -3.082679 0.799606  -8.442306
H -2.518128 1.142706  -6.789294
--
# monomer B
0 1     # Charge and multiplicity
C   1.22531237526482      0.70753866091955      0.00613762728373
C   1.22532433589282     -0.70753852257020     -0.00619318228664
C   -0.00000567409046      1.41496628609039     -0.00672680580738
C   2.45644923379077      1.41832825917820      0.00902448468363
C   0.00001130712078     -1.41497612663474      0.00347275151708
C   -1.22530046906674      0.70754574598412      0.00838914760619
C   2.45643823516184     -1.41832293188077     -0.00843833914343
C   -0.00000085313587      2.83680140328112     -0.00913035594137
C   3.68182717731192      0.70931832800114     -0.00808954934571
C   2.45512052870677      2.83422403348893     -0.00819210630633
C   3.68182158506039     -0.70933346742900      0.00798293467272
C   -1.22531311884624     -0.70752714354401     -0.00512042085974
C   1.22670006104402      3.54346985599427      0.00816696660346
C   0.00000526469929     -2.83678176723568      0.00832091913869
C   -2.45643555300670      1.41831729028492      0.00842454345199
C   2.45512389762097     -2.83422965658853      0.00783102630520
C   -1.22671388474763      3.54346943575023      0.00827029982280
C   4.91451777504333      1.42717324448953     -0.00160886631602
C   3.69315067131765      3.54279566454522     -0.00155906667985
C   -2.45643712022637     -1.41831290883911     -0.00846337726810
C   1.22670532178455     -3.54347386990643     -0.00780316414624
C   -2.45512491866593      2.83421703463423     -0.00818572995999
C   4.91452486062398     -1.42718653794377      0.00136387641845
C   1.22142509354026      4.97013443726031      0.00150231067809
C   4.89300870916237      2.82518837202648     -0.00039219795739
C   -1.22669652864725     -3.54347062507680     -0.00753595973677
C   -3.68181849668397      0.70932533873199     -0.00807686886569
C   3.69314758099218     -3.54280096939050      0.00148176697923
C   -1.22143177215231      4.97012866986289      0.00168580605083
C   6.13477145276790      0.68054831910577     -0.00083909176631
C   3.65678936045204      4.97295361556775     -0.00065042889723
C   -2.45512642789169     -2.83421472106065      0.00758666850712
C   -3.68181869921921     -0.70932533146830      0.00810055625144
C   4.89301309775526     -2.82519973363176      0.00021895393805
C   -0.00000059327114      5.65044773803267      0.00045449734393
C   6.13477559217374     -0.68055448207492      0.00042622874941
C   2.47813196269732      5.65357712333155      0.00063835075260
C   1.22142288457925     -4.97012668293268     -0.00129718634452
C   -3.69316190412301      3.54279732619245     -0.00139355922051
C   -1.22142804110313     -4.97011793159564     -0.00140994817719
C   -4.91452132810043      1.42717581899491     -0.00153192130862
C   3.65678749952045     -4.97295485423912      0.00080007163680
C   -2.47813805026426      5.65357479452875      0.00092287576113
C   -3.69314125872231     -3.54278984697859      0.00136564082345
C   -4.91451200321153     -1.42718062802730      0.00139857359209
C   -0.00000552908399     -5.65043791501335      0.00005899322272
C   -4.89302000425900      2.82518897091939     -0.00040227981744
C   2.47812647313991     -5.65357317188818     -0.00029052915548
C   -3.65679823041642      4.97295655404175     -0.00047374852278
C   -4.89299899901461     -2.82519139505969      0.00006491824035
C   -2.47812801824129     -5.65356579800621     -0.00056571680280
C   -6.13477002348955      0.68054913825639     -0.00086464346868
C   -3.65678835334731     -4.97294365097028      0.00058578382008
C   -6.13476456307132     -0.68055354348201      0.00040575295444
H   5.83528897565761      3.36927626695423      0.00396712770529
H   7.07385965258860      1.22821762089947     -0.00037744837300
H   4.60066374401555      5.51238117445323     -0.00014522814529
H   5.83528386714679     -3.36930568472863     -0.00423551337640
H   -0.00001167146422      6.73853104613662     -0.00389474766392
H   7.07386165167227     -1.22822657074368     -0.00008250934481
H   2.47331421164041      6.74068466339473      0.00017162982210
H   4.60066897122302     -5.51237575717576      0.00039007446835
H   -2.47331820069565      6.74068209160650      0.00047297644710
H   -0.00000978838621     -6.73852780445195      0.00458867820736
H   -5.83530143450167      3.36927132229595      0.00410314985360
H   2.47330840367253     -6.74068500242887      0.00027980126949
H   -4.60067436136587      5.51237839860371      0.00002010017831
H   -5.83527902699321     -3.36928859177951     -0.00451481925734
H   -2.47329986759855     -6.74067870613986     -0.00016951527498
H   -7.07385728692578      1.22822084484047     -0.00046143985387
H   -4.60067330624313     -5.51236229778631      0.00021776644566
H   -7.07385645456741     -1.22822025997701     -0.00017736581114

    units angstrom      # Angstroms are the default
    no_reorient         # Geometry fixed, default
    symmetry c1         # C1 symmetry, default
}

set {
    scf_type DF         # Density fitting, faster than exact integrals
    freeze_core True    # Freeze core electrons
    basis jun-cc-pVDZ   # Jun-cc-pVDZ basis set, recommended for sSAPT0 in https://doi.org/10.1063/1.4867135
}

energy('ssapt0')        # Compute sSAPT0 energy, includes also SAPT0
--------------------------------------------------------------------------

  Memory set to  29.802 GiB by Python driver.

Scratch directory: /state/partition1/slurm_tmp/24798315.4294967291.0/
   => Loading Basis Set <=

    Name: JUN-CC-PVDZ
    Role: ORBITAL
    Keyword: BASIS
    atoms 1-2, 4-5, 10, 17-70 entry C          line   164 file /home/gridsan/tfroembgen/.conda/envs/psi4test/share/psi4/basis/jun-cc-pvdz.gbs 
    atoms 3, 6                entry N          line   198 file /home/gridsan/tfroembgen/.conda/envs/psi4test/share/psi4/basis/jun-cc-pvdz.gbs 
    atoms 7-9, 11-16, 71-88   entry H          line    36 file /home/gridsan/tfroembgen/.conda/envs/psi4test/share/psi4/basis/jun-cc-pvdz.gbs 

   => Loading Basis Set <=

    Name: JUN-CC-PVDZ
    Role: ORBITAL
    Keyword: BASIS
    atoms 1-2, 4-5, 10, 17-70 entry C          line   164 file /home/gridsan/tfroembgen/.conda/envs/psi4test/share/psi4/basis/jun-cc-pvdz.gbs 
    atoms 3, 6                entry N          line   198 file /home/gridsan/tfroembgen/.conda/envs/psi4test/share/psi4/basis/jun-cc-pvdz.gbs 
    atoms 7-9, 11-16, 71-88   entry H          line    36 file /home/gridsan/tfroembgen/.conda/envs/psi4test/share/psi4/basis/jun-cc-pvdz.gbs 


  //>>>>>>>>>>>>>>>>>>>>>>>>>>>>>>>>>>>//
  //              Dimer HF             //
  //<<<<<<<<<<<<<<<<<<<<<<<<<<<<<<<<<<<//

   => Libint2 <=

    Primary   basis highest AM E, G, H:  7, 7, 4
    Auxiliary basis highest AM E, G, H:  7, 7, 5
    Onebody   basis highest AM E, G, H:  7, 7, 5
    Solid Harmonics ordering:            gaussian

*** tstart() called on d-18-8-4
*** at Mon Jan 22 22:22:22 2024

   => Loading Basis Set <=

    Name: JUN-CC-PVDZ
    Role: ORBITAL
    Keyword: BASIS
    atoms 1-2, 4-5, 10, 17-70 entry C          line   164 file /home/gridsan/tfroembgen/.conda/envs/psi4test/share/psi4/basis/jun-cc-pvdz.gbs 
    atoms 3, 6                entry N          line   198 file /home/gridsan/tfroembgen/.conda/envs/psi4test/share/psi4/basis/jun-cc-pvdz.gbs 
    atoms 7-9, 11-16, 71-88   entry H          line    36 file /home/gridsan/tfroembgen/.conda/envs/psi4test/share/psi4/basis/jun-cc-pvdz.gbs 


         ---------------------------------------------------------
                                   SCF
               by Justin Turney, Rob Parrish, Andy Simmonett
                          and Daniel G. A. Smith
                              RHF Reference
                       12 Threads,  30517 MiB Core
         ---------------------------------------------------------

  ==> Geometry <==

    Molecular point group: c1
    Full point group: C1

    Geometry (in Angstrom), charge = 1, multiplicity = 1:

       Center              X                  Y                   Z               Mass       
    ------------   -----------------  -----------------  -----------------  -----------------
         C            0.680066520158     1.235968212970    -8.547502810735    12.000000000000
         C           -0.680504479842     1.237996212970    -8.547118810735    12.000000000000
         N           -1.085635479842     1.238994212970    -7.228794810735    14.003074004430
         C            0.000107520158     1.242270212970    -6.447393810735    12.000000000000
         C           -2.477365479842     1.288400212970    -6.760815810735    12.000000000000
         N            1.085221520158     1.238994212970    -7.228794810735    14.003074004430
         H            1.385145520158     1.228140212970    -9.364941810735     1.007825032230
         H           -1.385302479842     1.237806212970    -9.364787810735     1.007825032230
         H           -0.000009479842     1.244017212970    -5.366304810735     1.007825032230
         C            2.478116520158     1.222102212970    -6.763696810735    12.000000000000
         H            2.490591520158     1.249447212970    -5.673443810735     1.007825032230
         H            2.967027520158     0.308656212970    -7.110872810735     1.007825032230
         H            3.001427520158     2.097585212970    -7.155168810735     1.007825032230
         H           -2.857359479842     2.310471212970    -6.840774810735     1.007825032230
         H           -3.082679479842     0.618316212970    -7.373879810735     1.007825032230
         H           -2.518128479842     0.961416212970    -5.720867810735     1.007825032230
         C            1.225311895423     0.526248873889     1.074563816548    12.000000000000
         C            1.225323856051    -0.888828309601     1.062233006978    12.000000000000
         C           -0.000006153932     1.233676499060     1.061699383457    12.000000000000
         C            2.456448753949     1.237038472148     1.077450673948    12.000000000000
         C            0.000010827279    -1.596265913665     1.071898940782    12.000000000000
         C           -1.225300948908     0.526255958954     1.076815336871    12.000000000000
         C            2.456437755320    -1.599612718911     1.059987850121    12.000000000000
         C           -0.000001332978     2.655511616251     1.059295833323    12.000000000000
         C            3.681826697470     0.528028540971     1.060336639919    12.000000000000
         C            2.455120048865     2.652934246459     1.060234082958    12.000000000000
         C            3.681821105219    -0.890623254459     1.076409123937    12.000000000000
         C           -1.225313598688    -0.888816930574     1.063305768405    12.000000000000
         C            1.226699581202     3.362180068964     1.076593155868    12.000000000000
         C            0.000004784858    -3.018071554266     1.076747108403    12.000000000000
         C           -2.456436032848     1.237027503255     1.076850732717    12.000000000000
         C            2.455123417779    -3.015519443619     1.076257215570    12.000000000000
         C           -1.226714364589     3.362179648720     1.076696489087    12.000000000000
         C            4.914517295202     1.245883457459     1.066817322949    12.000000000000
         C            3.693150191476     3.361505877515     1.066867122585    12.000000000000
         C           -2.456437600068    -1.599602695869     1.059962811997    12.000000000000
         C            1.226704841943    -3.724763656937     1.060623025118    12.000000000000
         C           -2.455125398508     2.652927247604     1.060240459305    12.000000000000
         C            4.914524380782    -1.608476324974     1.069790065683    12.000000000000
         C            1.221424613699     4.788844650230     1.069928499943    12.000000000000
         C            4.893008229321     2.643898584996     1.068033991307    12.000000000000
         C           -1.226697008489    -3.724760412107     1.060890229528    12.000000000000
         C           -3.681818976526     0.528035551702     1.060349320399    12.000000000000
         C            3.693147101150    -3.724090756421     1.069907956244    12.000000000000
         C           -1.221432251994     4.788838882833     1.070111995316    12.000000000000
         C            6.134770972926     0.499258532075     1.067587097498    12.000000000000
         C            3.656788880610     4.791663828537     1.067775760367    12.000000000000
         C           -2.455126907733    -3.015504508091     1.076012857772    12.000000000000
         C           -3.681819179061    -0.890615118499     1.076526745516    12.000000000000
         C            4.893012617914    -3.006489520662     1.068645143203    12.000000000000
         C           -0.000001073113     5.469157951002     1.068880686609    12.000000000000
         C            6.134775112332    -0.861844269105     1.068852418014    12.000000000000
         C            2.478131482856     5.472287336301     1.069064540017    12.000000000000
         C            1.221422404738    -5.151416469963     1.067129002920    12.000000000000
         C           -3.693162383965     3.361507539162     1.067032630044    12.000000000000
         C           -1.221428520945    -5.151407718626     1.067016241087    12.000000000000
         C           -4.914521807942     1.245886031965     1.066894267956    12.000000000000
         C            3.656787019679    -5.154244641269     1.069226260901    12.000000000000
         C           -2.478138530106     5.472285007498     1.069349065026    12.000000000000
         C           -3.693141738564    -3.724079634009     1.069791830088    12.000000000000
         C           -4.914512483053    -1.608470415058     1.069824762857    12.000000000000
         C           -0.000006008926    -5.831727702044     1.068485182487    12.000000000000
         C           -4.893020484101     2.643899183889     1.068023909447    12.000000000000
         C            2.478125993298    -5.834862958919     1.068135660109    12.000000000000
         C           -3.656798710258     4.791666767011     1.067952440742    12.000000000000
         C           -4.892999478856    -3.006481182090     1.068491107505    12.000000000000
         C           -2.478128498083    -5.834855585037     1.067860472462    12.000000000000
         C           -6.134770503331     0.499259351226     1.067561545796    12.000000000000
         C           -3.656788833189    -5.154233438001     1.069011973085    12.000000000000
         C           -6.134765042913    -0.861843330512     1.068831942219    12.000000000000
         H            5.835288495816     3.187986479924     1.072393316970     1.007825032230
         H            7.073859172747     1.046927833869     1.068048740892     1.007825032230
         H            4.600663264174     5.331091387423     1.068280961119     1.007825032230
         H            5.835283387305    -3.550595471759     1.064190675888     1.007825032230
         H           -0.000012151306     6.557241259106     1.064531441601     1.007825032230
         H            7.073861171831    -1.409516357774     1.068343679920     1.007825032230
         H            2.473313731799     6.559394876364     1.068597819087     1.007825032230
         H            4.600668491381    -5.693665544206     1.068816263733     1.007825032230
         H           -2.473318680537     6.559392304576     1.068899165712     1.007825032230
         H           -0.000010268228    -6.919817591482     1.073014867472     1.007825032230
         H           -5.835301914343     3.187981535266     1.072529339118     1.007825032230
         H            2.473307923831    -6.921974789459     1.068705990534     1.007825032230
         H           -4.600674841208     5.331088611573     1.068446289443     1.007825032230
         H           -5.835279506835    -3.550578378810     1.063911370007     1.007825032230
         H           -2.473300347440    -6.921968493170     1.068256673990     1.007825032230
         H           -7.073857766768     1.046931057810     1.067964749411     1.007825032230
         H           -4.600673786085    -5.693652084817     1.068643955710     1.007825032230
         H           -7.073856934409    -1.409510047007     1.068248823454     1.007825032230

  Running in c1 symmetry.

  Rotational constants: A =      0.00126  B =      0.00122  C =      0.00105 [cm^-1]
  Rotational constants: A =     37.64254  B =     36.55075  C =     31.40919 [MHz]
  Nuclear repulsion = 7744.891477882223626

  Charge       = 1
  Multiplicity = 1
  Electrons    = 394
  Nalpha       = 197
  Nbeta        = 197

  ==> Algorithm <==

  SCF Algorithm Type is DF.
  DIIS enabled.
  MOM disabled.
  Fractional occupation disabled.
  Guess Type is SAD.
  Energy threshold   = 1.00e-08
  Density threshold  = 1.00e-08
  Integral threshold = 1.00e-12

  ==> Primary Basis <==

  Basis Set: JUN-CC-PVDZ
    Blend: JUN-CC-PVDZ
    Number of shells: 569
    Number of basis functions: 1233
    Number of Cartesian functions: 1294
    Spherical Harmonics?: true
    Max angular momentum: 2

   => Loading Basis Set <=

    Name: (JUN-CC-PVDZ AUX)
    Role: JKFIT
    Keyword: DF_BASIS_SCF
    atoms 1-2, 4-5, 10, 17-70 entry C          line   146 file /home/gridsan/tfroembgen/.conda/envs/psi4test/share/psi4/basis/jun-cc-pvdz-jkfit.gbs 
    atoms 3, 6                entry N          line   202 file /home/gridsan/tfroembgen/.conda/envs/psi4test/share/psi4/basis/jun-cc-pvdz-jkfit.gbs 
    atoms 7-9, 11-16, 71-88   entry H          line    70 file /home/gridsan/tfroembgen/.conda/envs/psi4test/share/psi4/basis/jun-cc-pvdz-jkfit.gbs 

  ==> Integral Setup <==

  ==> DiskDFJK: Density-Fitted J/K Matrices <==

    J tasked:                  Yes
    K tasked:                  Yes
    wK tasked:                  No
    OpenMP threads:             12
    Integrals threads:          12
    Memory [MiB]:            22888
    Algorithm:                Core
    Integral Cache:           SAVE
    Schwarz Cutoff:          1E-12
    Fitting Condition:       1E-10

   => Auxiliary Basis Set <=

  Basis Set: (JUN-CC-PVDZ AUX)
    Blend: JUN-CC-PVDZ-JKFIT
    Number of shells: 1890
    Number of basis functions: 5440
    Number of Cartesian functions: 6226
    Spherical Harmonics?: true
    Max angular momentum: 3

  Minimum eigenvalue in the overlap matrix is 8.3994381856E-10.
  Reciprocal condition number of the overlap matrix is 3.7575046333E-11.
    Using canonical orthogonalization.
  Overall, 14 of 1233 possible MOs eliminated.


  ==> Pre-Iterations <==

  SCF Guess: Superposition of Atomic Densities via on-the-fly atomic UHF (no occupation information).

   -------------------------
    Irrep   Nso     Nmo    
   -------------------------
     A       1233    1219 
   -------------------------
    Total    1233    1219
   -------------------------

  ==> Iterations <==

                           Total Energy        Delta E     RMS |[F,P]|

   @DF-RHF iter SAD: -2365.39388062981379   -2.36539e+03   0.00000e+00 
   @DF-RHF iter   1: -2358.18638117533192    7.20750e+00   9.48614e-04 ADIIS/DIIS
   @DF-RHF iter   2: -2359.08767072523233   -9.01290e-01   3.24620e-04 ADIIS/DIIS
   @DF-RHF iter   3: -2359.18039639727613   -9.27257e-02   1.19364e-04 ADIIS/DIIS
   @DF-RHF iter   4: -2359.19375983286454   -1.33634e-02   4.54032e-05 DIIS
   @DF-RHF iter   5: -2359.19576780572243   -2.00797e-03   1.04425e-05 DIIS
   @DF-RHF iter   6: -2359.19594955815955   -1.81752e-04   5.23337e-06 DIIS
   @DF-RHF iter   7: -2359.19602069913617   -7.11410e-05   2.26260e-06 DIIS
   @DF-RHF iter   8: -2359.19604145822723   -2.07591e-05   1.12926e-06 DIIS
   @DF-RHF iter   9: -2359.19604658540356   -5.12718e-06   2.59308e-07 DIIS
   @DF-RHF iter  10: -2359.19604682729232   -2.41889e-07   8.64929e-08 DIIS
   @DF-RHF iter  11: -2359.19604684503156   -1.77392e-08   3.26531e-08 DIIS
   @DF-RHF iter  12: -2359.19604684864498   -3.61342e-09   1.38367e-08 DIIS
   @DF-RHF iter  13: -2359.19604684906653   -4.21551e-10   6.62867e-09 DIIS
  Energy and wave function converged.


  ==> Post-Iterations <==

    Orbital Energies [Eh]
    ---------------------

    Doubly Occupied:                                                      

       1A    -15.826444     2A    -15.825921     3A    -11.521161  
       4A    -11.452469     5A    -11.450914     6A    -11.441299  
       7A    -11.441202     8A    -11.315761     9A    -11.315169  
      10A    -11.315012    11A    -11.314492    12A    -11.314155  
      13A    -11.314037    14A    -11.313638    15A    -11.313584  
      16A    -11.313303    17A    -11.312968    18A    -11.312877  
      19A    -11.312536    20A    -11.312527    21A    -11.312455  
      22A    -11.312431    23A    -11.312149    24A    -11.312145  
      25A    -11.311925    26A    -11.311839    27A    -11.311838  
      28A    -11.311298    29A    -11.311292    30A    -11.311090  
      31A    -11.311044    32A    -11.310827    33A    -11.310823  
      34A    -11.310710    35A    -11.310670    36A    -11.310197  
      37A    -11.310116    38A    -11.309911    39A    -11.309908  
      40A    -11.309626    41A    -11.309602    42A    -11.308895  
      43A    -11.308800    44A    -11.305466    45A    -11.305420  
      46A    -11.305378    47A    -11.304826    48A    -11.304821  
      49A    -11.304069    50A    -11.304064    51A    -11.303982  
      52A    -11.303979    53A    -11.303435    54A    -11.303431  
      55A    -11.302619    56A    -11.302606    57A    -11.302601  
      58A    -11.302335    59A    -11.302326    60A    -11.300898  
      61A    -11.300893    62A     -1.570184    63A     -1.425708  
      64A     -1.298633    65A     -1.273735    66A     -1.273645  
      67A     -1.242983    68A     -1.242978    69A     -1.234928  
      70A     -1.230790    71A     -1.210525    72A     -1.202320  
      73A     -1.189275    74A     -1.189209    75A     -1.181104  
      76A     -1.166092    77A     -1.166078    78A     -1.135981  
      79A     -1.135974    80A     -1.132158    81A     -1.118747  
      82A     -1.118730    83A     -1.110652    84A     -1.092452  
      85A     -1.078170    86A     -1.075648    87A     -1.075616  
      88A     -1.070548    89A     -1.065399    90A     -1.040389  
      91A     -1.040388    92A     -1.014754    93A     -1.014734  
      94A     -1.014678    95A     -0.988773    96A     -0.947275  
      97A     -0.947224    98A     -0.941789    99A     -0.939993  
     100A     -0.939906   101A     -0.934796   102A     -0.934770  
     103A     -0.914728   104A     -0.908894   105A     -0.889646  
     106A     -0.871224   107A     -0.870180   108A     -0.865431  
     109A     -0.865430   110A     -0.847259   111A     -0.847243  
     112A     -0.842431   113A     -0.808464   114A     -0.804714  
     115A     -0.800219   116A     -0.798282   117A     -0.786829  
     118A     -0.786772   119A     -0.784781   120A     -0.784717  
     121A     -0.782232   122A     -0.778086   123A     -0.774184  
     124A     -0.769569   125A     -0.751848   126A     -0.751789  
     127A     -0.746661   128A     -0.746606   129A     -0.721252  
     130A     -0.717395   131A     -0.713761   132A     -0.709003  
     133A     -0.706215   134A     -0.704575   135A     -0.702700  
     136A     -0.702697   137A     -0.692100   138A     -0.692086  
     139A     -0.682853   140A     -0.680639   141A     -0.680622  
     142A     -0.661284   143A     -0.657363   144A     -0.654993  
     145A     -0.652411   146A     -0.652355   147A     -0.646925  
     148A     -0.644747   149A     -0.644713   150A     -0.637299  
     151A     -0.630437   152A     -0.630319   153A     -0.619703  
     154A     -0.619677   155A     -0.619185   156A     -0.619106  
     157A     -0.611926   158A     -0.607255   159A     -0.607190  
     160A     -0.591709   161A     -0.591706   162A     -0.591083  
     163A     -0.591027   164A     -0.588353   165A     -0.582518  
     166A     -0.582271   167A     -0.575717   168A     -0.575668  
     169A     -0.552880   170A     -0.548529   171A     -0.545783  
     172A     -0.541180   173A     -0.538284   174A     -0.534679  
     175A     -0.534626   176A     -0.524250   177A     -0.524173  
     178A     -0.516263   179A     -0.504615   180A     -0.504492  
     181A     -0.491871   182A     -0.491855   183A     -0.458444  
     184A     -0.458440   185A     -0.457098   186A     -0.428034  
     187A     -0.428028   188A     -0.402289   189A     -0.392052  
     190A     -0.390944   191A     -0.390934   192A     -0.364088  
     193A     -0.350339   194A     -0.338128   195A     -0.338126  
     196A     -0.278011   197A     -0.278006  

    Virtual:                                                              

     198A     -0.060627   199A     -0.055003   200A     -0.047460  
     201A     -0.041524   202A     -0.039167   203A     -0.039063  
     204A     -0.024764   205A     -0.022554   206A     -0.021874  
     207A     -0.018300   208A     -0.000276   209A      0.001971  
     210A      0.002905   211A      0.004067   212A      0.004493  
     213A      0.005426   214A      0.007342   215A      0.010506  
     216A      0.010947   217A      0.011036   218A      0.011138  
     219A      0.012344   220A      0.014988   221A      0.019119  
     222A      0.023777   223A      0.029277   224A      0.030022  
     225A      0.030263   226A      0.031117   227A      0.033334  
     228A      0.033350   229A      0.035844   230A      0.037549  
     231A      0.037777   232A      0.041978   233A      0.045373  
     234A      0.045599   235A      0.045643   236A      0.046385  
     237A      0.047630   238A      0.048061   239A      0.055250  
     240A      0.056369   241A      0.056867   242A      0.063139  
     243A      0.065345   244A      0.065559   245A      0.065635  
     246A      0.069907   247A      0.070996   248A      0.072778  
     249A      0.073306   250A      0.073845   251A      0.077997  
     252A      0.079925   253A      0.084683   254A      0.085539  
     255A      0.085814   256A      0.086586   257A      0.088453  
     258A      0.088736   259A      0.090071   260A      0.091246  
     261A      0.093162   262A      0.093337   263A      0.095919  
     264A      0.103638   265A      0.103881   266A      0.107115  
     267A      0.107139   268A      0.108529   269A      0.111578  
     270A      0.112575   271A      0.115284   272A      0.116838  
     273A      0.118563   274A      0.121092   275A      0.123623  
     276A      0.126279   277A      0.130722   278A      0.131235  
     279A      0.133556   280A      0.134027   281A      0.136088  
     282A      0.136690   283A      0.137036   284A      0.138538  
     285A      0.139045   286A      0.141053   287A      0.141113  
     288A      0.142625   289A      0.143053   290A      0.145949  
     291A      0.147247   292A      0.148687   293A      0.151018  
     294A      0.155198   295A      0.156087   296A      0.157160  
     297A      0.158514   298A      0.163228   299A      0.163465  
     300A      0.163514   301A      0.164365   302A      0.164833  
     303A      0.165885   304A      0.167790   305A      0.168141  
     306A      0.169826   307A      0.169927   308A      0.174853  
     309A      0.175690   310A      0.176952   311A      0.179155  
     312A      0.179688   313A      0.179873   314A      0.182051  
     315A      0.182583   316A      0.183010   317A      0.183232  
     318A      0.185294   319A      0.185588   320A      0.190046  
     321A      0.192668   322A      0.193912   323A      0.195080  
     324A      0.196623   325A      0.198104   326A      0.198574  
     327A      0.200933   328A      0.202719   329A      0.203217  
     330A      0.204597   331A      0.205217   332A      0.207100  
     333A      0.208343   334A      0.208425   335A      0.209989  
     336A      0.216041   337A      0.217139   338A      0.217345  
     339A      0.217754   340A      0.218561   341A      0.219446  
     342A      0.219500   343A      0.219925   344A      0.224149  
     345A      0.224337   346A      0.226919   347A      0.228693  
     348A      0.232999   349A      0.236850   350A      0.237225  
     351A      0.237739   352A      0.240267   353A      0.241737  
     354A      0.247162   355A      0.247395   356A      0.252274  
     357A      0.252435   358A      0.252842   359A      0.253823  
     360A      0.254825   361A      0.258124   362A      0.258460  
     363A      0.259062   364A      0.260144   365A      0.260612  
     366A      0.261703   367A      0.261839   368A      0.264458  
     369A      0.265812   370A      0.266693   371A      0.267259  
     372A      0.271252   373A      0.271500   374A      0.271720  
     375A      0.272401   376A      0.272759   377A      0.274378  
     378A      0.275099   379A      0.277496   380A      0.279028  
     381A      0.280223   382A      0.280705   383A      0.283179  
     384A      0.289300   385A      0.292483   386A      0.293153  
     387A      0.294130   388A      0.295494   389A      0.296328  
     390A      0.296928   391A      0.298850   392A      0.300042  
     393A      0.300667   394A      0.303078   395A      0.303943  
     396A      0.305137   397A      0.306802   398A      0.310724  
     399A      0.313136   400A      0.315965   401A      0.318679  
     402A      0.320421   403A      0.321784   404A      0.322565  
     405A      0.322639   406A      0.325623   407A      0.326407  
     408A      0.331781   409A      0.333209   410A      0.333502  
     411A      0.338038   412A      0.338808   413A      0.339833  
     414A      0.339971   415A      0.340448   416A      0.341363  
     417A      0.344122   418A      0.345345   419A      0.346066  
     420A      0.347099   421A      0.347424   422A      0.349300  
     423A      0.351407   424A      0.351503   425A      0.354430  
     426A      0.354541   427A      0.354619   428A      0.355795  
     429A      0.356452   430A      0.356807   431A      0.359038  
     432A      0.360048   433A      0.362015   434A      0.368767  
     435A      0.368954   436A      0.369949   437A      0.371922  
     438A      0.371982   439A      0.375940   440A      0.381905  
     441A      0.384630   442A      0.384889   443A      0.387446  
     444A      0.391881   445A      0.392016   446A      0.393339  
     447A      0.393580   448A      0.396192   449A      0.397963  
     450A      0.398888   451A      0.399440   452A      0.400784  
     453A      0.406232   454A      0.406536   455A      0.408277  
     456A      0.408420   457A      0.408734   458A      0.410820  
     459A      0.412500   460A      0.413629   461A      0.414391  
     462A      0.416228   463A      0.419620   464A      0.420475  
     465A      0.425623   466A      0.430198   467A      0.430405  
     468A      0.431484   469A      0.431991   470A      0.441054  
     471A      0.441547   472A      0.441877   473A      0.442595  
     474A      0.443280   475A      0.445998   476A      0.446274  
     477A      0.449979   478A      0.450113   479A      0.453785  
     480A      0.454795   481A      0.454889   482A      0.460785  
     483A      0.460911   484A      0.461933   485A      0.462970  
     486A      0.466816   487A      0.467350   488A      0.472876  
     489A      0.473996   490A      0.474140   491A      0.478575  
     492A      0.486366   493A      0.487611   494A      0.489822  
     495A      0.491888   496A      0.495702   497A      0.495997  
     498A      0.496324   499A      0.500453   500A      0.500742  
     501A      0.501307   502A      0.503068   503A      0.503314  
     504A      0.506097   505A      0.508619   506A      0.509410  
     507A      0.509768   508A      0.513740   509A      0.517236  
     510A      0.517725   511A      0.533952   512A      0.534439  
     513A      0.544110   514A      0.544791   515A      0.545584  
     516A      0.552452   517A      0.561639   518A      0.561765  
     519A      0.567994   520A      0.569183   521A      0.570772  
     522A      0.574330   523A      0.574453   524A      0.591970  
     525A      0.596796   526A      0.597115   527A      0.601925  
     528A      0.613369   529A      0.614823   530A      0.615415  
     531A      0.617329   532A      0.624796   533A      0.625128  
     534A      0.627270   535A      0.634154   536A      0.654148  
     537A      0.659014   538A      0.663647   539A      0.663771  
     540A      0.669585   541A      0.680082   542A      0.683237  
     543A      0.688315   544A      0.690409   545A      0.690733  
     546A      0.691038   547A      0.691328   548A      0.693068  
     549A      0.699976   550A      0.704722   551A      0.704861  
     552A      0.706822   553A      0.709809   554A      0.715176  
     555A      0.717767   556A      0.725892   557A      0.738717  
     558A      0.741647   559A      0.744414   560A      0.746112  
     561A      0.748012   562A      0.753018   563A      0.754498  
     564A      0.755675   565A      0.759115   566A      0.760196  
     567A      0.762294   568A      0.764904   569A      0.771703  
     570A      0.774130   571A      0.775792   572A      0.776161  
     573A      0.777769   574A      0.782917   575A      0.785517  
     576A      0.785723   577A      0.786378   578A      0.792785  
     579A      0.802390   580A      0.803531   581A      0.806253  
     582A      0.807209   583A      0.812578   584A      0.813105  
     585A      0.818970   586A      0.820104   587A      0.820346  
     588A      0.821918   589A      0.822422   590A      0.824566  
     591A      0.825752   592A      0.826673   593A      0.832478  
     594A      0.836679   595A      0.836895   596A      0.838774  
     597A      0.843787   598A      0.845630   599A      0.846419  
     600A      0.849399   601A      0.855708   602A      0.856004  
     603A      0.857109   604A      0.857308   605A      0.859645  
     606A      0.862393   607A      0.863089   608A      0.864299  
     609A      0.868023   610A      0.869795   611A      0.870351  
     612A      0.876087   613A      0.879321   614A      0.879993  
     615A      0.880667   616A      0.883547   617A      0.884032  
     618A      0.889407   619A      0.889885   620A      0.891920  
     621A      0.893577   622A      0.894394   623A      0.902469  
     624A      0.904909   625A      0.905059   626A      0.909701  
     627A      0.918117   628A      0.918285   629A      0.919207  
     630A      0.919560   631A      0.921055   632A      0.921321  
     633A      0.924719   634A      0.926476   635A      0.928124  
     636A      0.935380   637A      0.935509   638A      0.941491  
     639A      0.945784   640A      0.946088   641A      0.952352  
     642A      0.953058   643A      0.958271   644A      0.963206  
     645A      0.963669   646A      0.964091   647A      0.966649  
     648A      0.966782   649A      0.973140   650A      0.978682  
     651A      0.980072   652A      0.981271   653A      0.982591  
     654A      0.983071   655A      0.985216   656A      0.985889  
     657A      0.987359   658A      0.987745   659A      0.988700  
     660A      0.992264   661A      0.992325   662A      0.993093  
     663A      0.993850   664A      0.994592   665A      0.996653  
     666A      1.001624   667A      1.001705   668A      1.007868  
     669A      1.007995   670A      1.008634   671A      1.009140  
     672A      1.014989   673A      1.016919   674A      1.017548  
     675A      1.019740   676A      1.019907   677A      1.024301  
     678A      1.025386   679A      1.026407   680A      1.029357  
     681A      1.029629   682A      1.031585   683A      1.032084  
     684A      1.036058   685A      1.036554   686A      1.038748  
     687A      1.046002   688A      1.051851   689A      1.051965  
     690A      1.055583   691A      1.056650   692A      1.063431  
     693A      1.063734   694A      1.063846   695A      1.064026  
     696A      1.067680   697A      1.069042   698A      1.072908  
     699A      1.073330   700A      1.073506   701A      1.080079  
     702A      1.082028   703A      1.082254   704A      1.087981  
     705A      1.088045   706A      1.088696   707A      1.090889  
     708A      1.092275   709A      1.101735   710A      1.104962  
     711A      1.111358   712A      1.114699   713A      1.121247  
     714A      1.121419   715A      1.124641   716A      1.124838  
     717A      1.129915   718A      1.130297   719A      1.131698  
     720A      1.133550   721A      1.143238   722A      1.144023  
     723A      1.146485   724A      1.146591   725A      1.147825  
     726A      1.157327   727A      1.157934   728A      1.165511  
     729A      1.165533   730A      1.168211   731A      1.170551  
     732A      1.170586   733A      1.171096   734A      1.184812  
     735A      1.187113   736A      1.187570   737A      1.204600  
     738A      1.206565   739A      1.209700   740A      1.209795  
     741A      1.210504   742A      1.210898   743A      1.212903  
     744A      1.213362   745A      1.216505   746A      1.224930  
     747A      1.225458   748A      1.241930   749A      1.242388  
     750A      1.244627   751A      1.244729   752A      1.245539  
     753A      1.246176   754A      1.255755   755A      1.255926  
     756A      1.256999   757A      1.257459   758A      1.266464  
     759A      1.266634   760A      1.267613   761A      1.268538  
     762A      1.273616   763A      1.277115   764A      1.277252  
     765A      1.280106   766A      1.280388   767A      1.287698  
     768A      1.287844   769A      1.289143   770A      1.292254  
     771A      1.294087   772A      1.301386   773A      1.301395  
     774A      1.305391   775A      1.305597   776A      1.306770  
     777A      1.306927   778A      1.312406   779A      1.312726  
     780A      1.326863   781A      1.328437   782A      1.338546  
     783A      1.345820   784A      1.350912   785A      1.351348  
     786A      1.353314   787A      1.354743   788A      1.354977  
     789A      1.360012   790A      1.360164   791A      1.366682  
     792A      1.370500   793A      1.372531   794A      1.373245  
     795A      1.375850   796A      1.376949   797A      1.382045  
     798A      1.384128   799A      1.384263   800A      1.386726  
     801A      1.387559   802A      1.387651   803A      1.395814  
     804A      1.395970   805A      1.397752   806A      1.409804  
     807A      1.409856   808A      1.419244   809A      1.419857  
     810A      1.430480   811A      1.463947   812A      1.464115  
     813A      1.467891   814A      1.467918   815A      1.472469  
     816A      1.478410   817A      1.485734   818A      1.498983  
     819A      1.511033   820A      1.520798   821A      1.525615  
     822A      1.544210   823A      1.546137   824A      1.546596  
     825A      1.554632   826A      1.554651   827A      1.555772  
     828A      1.558321   829A      1.558461   830A      1.561939  
     831A      1.568366   832A      1.568640   833A      1.571210  
     834A      1.575825   835A      1.576169   836A      1.586912  
     837A      1.586938   838A      1.589907   839A      1.589948  
     840A      1.590173   841A      1.590335   842A      1.596960  
     843A      1.608027   844A      1.608048   845A      1.613218  
     846A      1.614428   847A      1.622189   848A      1.622267  
     849A      1.623524   850A      1.624155   851A      1.624244  
     852A      1.627081   853A      1.629857   854A      1.633363  
     855A      1.633435   856A      1.643218   857A      1.644401  
     858A      1.646698   859A      1.646747   860A      1.647388  
     861A      1.650819   862A      1.650892   863A      1.663162  
     864A      1.663290   865A      1.669118   866A      1.677514  
     867A      1.688253   868A      1.688982   869A      1.697804  
     870A      1.698445   871A      1.707701   872A      1.708248  
     873A      1.709051   874A      1.710317   875A      1.723891  
     876A      1.723927   877A      1.738629   878A      1.738703  
     879A      1.740356   880A      1.754055   881A      1.756607  
     882A      1.763058   883A      1.763892   884A      1.763994  
     885A      1.764305   886A      1.766374   887A      1.771034  
     888A      1.771185   889A      1.777812   890A      1.777916  
     891A      1.784116   892A      1.788944   893A      1.789154  
     894A      1.789668   895A      1.807853   896A      1.808021  
     897A      1.808441   898A      1.808693   899A      1.811866  
     900A      1.815055   901A      1.815895   902A      1.818037  
     903A      1.819409   904A      1.824626   905A      1.826781  
     906A      1.826874   907A      1.843191   908A      1.843278  
     909A      1.847228   910A      1.851095   911A      1.851431  
     912A      1.852094   913A      1.855286   914A      1.855490  
     915A      1.861478   916A      1.862318   917A      1.864455  
     918A      1.864703   919A      1.864827   920A      1.866067  
     921A      1.868925   922A      1.869052   923A      1.875720  
     924A      1.887337   925A      1.888987   926A      1.889285  
     927A      1.889468   928A      1.895039   929A      1.895408  
     930A      1.900132   931A      1.900347   932A      1.901097  
     933A      1.901271   934A      1.902890   935A      1.904979  
     936A      1.905619   937A      1.918161   938A      1.929181  
     939A      1.929234   940A      1.937061   941A      1.944344  
     942A      1.946031   943A      1.946075   944A      1.951710  
     945A      1.953475   946A      1.956147   947A      1.959840  
     948A      1.959992   949A      1.973671   950A      1.974472  
     951A      1.974635   952A      1.977250   953A      1.977292  
     954A      1.977816   955A      1.978460   956A      1.978588  
     957A      1.995311   958A      1.999245   959A      1.999536  
     960A      2.004295   961A      2.005055   962A      2.006164  
     963A      2.007641   964A      2.011997   965A      2.015089  
     966A      2.016950   967A      2.017938   968A      2.018354  
     969A      2.022185   970A      2.022829   971A      2.027480  
     972A      2.030850   973A      2.031228   974A      2.040261  
     975A      2.041534   976A      2.043895   977A      2.044365  
     978A      2.047193   979A      2.047851   980A      2.048372  
     981A      2.054175   982A      2.055158   983A      2.055367  
     984A      2.055834   985A      2.056135   986A      2.056736  
     987A      2.061701   988A      2.066490   989A      2.066627  
     990A      2.067323   991A      2.067500   992A      2.073037  
     993A      2.073554   994A      2.074625   995A      2.080497  
     996A      2.081738   997A      2.083494   998A      2.083672  
     999A      2.090684  1000A      2.090693  1001A      2.095202  
    1002A      2.102970  1003A      2.106093  1004A      2.106357  
    1005A      2.109751  1006A      2.109775  1007A      2.117543  
    1008A      2.125582  1009A      2.125663  1010A      2.138431  
    1011A      2.138934  1012A      2.139198  1013A      2.141691  
    1014A      2.141721  1015A      2.142370  1016A      2.142980  
    1017A      2.144501  1018A      2.150163  1019A      2.164811  
    1020A      2.166663  1021A      2.166822  1022A      2.166874  
    1023A      2.174021  1024A      2.175014  1025A      2.175207  
    1026A      2.175943  1027A      2.191299  1028A      2.191643  
    1029A      2.192365  1030A      2.192531  1031A      2.195508  
    1032A      2.206305  1033A      2.208282  1034A      2.208348  
    1035A      2.217530  1036A      2.217563  1037A      2.219849  
    1038A      2.219877  1039A      2.229662  1040A      2.230439  
    1041A      2.247935  1042A      2.254103  1043A      2.254274  
    1044A      2.257147  1045A      2.259132  1046A      2.266945  
    1047A      2.268844  1048A      2.277007  1049A      2.277098  
    1050A      2.277621  1051A      2.280256  1052A      2.297291  
    1053A      2.297952  1054A      2.299583  1055A      2.299617  
    1056A      2.301050  1057A      2.312912  1058A      2.313045  
    1059A      2.320484  1060A      2.326553  1061A      2.330237  
    1062A      2.340089  1063A      2.363570  1064A      2.370918  
    1065A      2.371622  1066A      2.371629  1067A      2.384082  
    1068A      2.387860  1069A      2.387910  1070A      2.416907  
    1071A      2.420058  1072A      2.420489  1073A      2.432703  
    1074A      2.432801  1075A      2.448683  1076A      2.449463  
    1077A      2.465437  1078A      2.467209  1079A      2.476838  
    1080A      2.477101  1081A      2.491086  1082A      2.493006  
    1083A      2.493185  1084A      2.501091  1085A      2.502377  
    1086A      2.502602  1087A      2.503201  1088A      2.507013  
    1089A      2.507065  1090A      2.519969  1091A      2.520005  
    1092A      2.522882  1093A      2.523388  1094A      2.533586  
    1095A      2.533864  1096A      2.534395  1097A      2.537067  
    1098A      2.539801  1099A      2.553603  1100A      2.571260  
    1101A      2.571332  1102A      2.571970  1103A      2.576561  
    1104A      2.578548  1105A      2.578755  1106A      2.588916  
    1107A      2.588955  1108A      2.598814  1109A      2.599188  
    1110A      2.604523  1111A      2.608762  1112A      2.628679  
    1113A      2.629819  1114A      2.631473  1115A      2.635004  
    1116A      2.639966  1117A      2.648006  1118A      2.648449  
    1119A      2.659619  1120A      2.659692  1121A      2.664674  
    1122A      2.665420  1123A      2.665652  1124A      2.669611  
    1125A      2.670096  1126A      2.677806  1127A      2.682320  
    1128A      2.684439  1129A      2.691924  1130A      2.699834  
    1131A      2.700163  1132A      2.709700  1133A      2.723427  
    1134A      2.740763  1135A      2.741201  1136A      2.741384  
    1137A      2.751368  1138A      2.762556  1139A      2.773560  
    1140A      2.774762  1141A      2.794134  1142A      2.798685  
    1143A      2.799280  1144A      2.802010  1145A      2.804338  
    1146A      2.806024  1147A      2.806220  1148A      2.814407  
    1149A      2.864693  1150A      2.865036  1151A      2.871240  
    1152A      2.881369  1153A      2.881405  1154A      2.897009  
    1155A      2.897032  1156A      2.910500  1157A      2.921258  
    1158A      2.953445  1159A      2.953683  1160A      2.960143  
    1161A      2.977309  1162A      2.979668  1163A      3.010492  
    1164A      3.010601  1165A      3.017484  1166A      3.017501  
    1167A      3.050103  1168A      3.057009  1169A      3.057749  
    1170A      3.068393  1171A      3.075711  1172A      3.076925  
    1173A      3.077147  1174A      3.085022  1175A      3.092879  
    1176A      3.093857  1177A      3.094729  1178A      3.096637  
    1179A      3.096692  1180A      3.105154  1181A      3.105664  
    1182A      3.113282  1183A      3.113777  1184A      3.139657  
    1185A      3.159188  1186A      3.165121  1187A      3.184716  
    1188A      3.218922  1189A      3.223690  1190A      3.223866  
    1191A      3.228981  1192A      3.229262  1193A      3.362715  
    1194A      3.363297  1195A      3.387203  1196A      3.427566  
    1197A      3.430157  1198A      3.443100  1199A      3.495108  
    1200A      3.522943  1201A      3.524818  1202A      3.531836  
    1203A      3.539887  1204A      3.573387  1205A      3.575371  
    1206A      3.609799  1207A      3.614901  1208A      3.715897  
    1209A      3.728964  1210A      3.729906  1211A      3.818200  
    1212A      3.818214  1213A      3.860222  1214A      3.860369  
    1215A      3.923367  1216A      3.957227  1217A      3.977952  
    1218A      3.989773  1219A      4.025974  

    Final Occupation by Irrep:
              A 
    DOCC [   197 ]
    NA   [   197 ]
    NB   [   197 ]

  @DF-RHF Final Energy: -2359.19604684906653

   => Energetics <=

    Nuclear Repulsion Energy =           7744.8914778822236258
    One-Electron Energy =              -18596.7001495505282946
    Two-Electron Energy =                8492.6126248192376806
    Total Energy =                      -2359.1960468490669882

Computation Completed


Properties will be evaluated at   0.000000,   0.000000,   0.000000 [a0]

Properties computed using the SCF density matrix


 Multipole Moments:

 ------------------------------------------------------------------------------------
     Multipole            Electronic (a.u.)      Nuclear  (a.u.)        Total (a.u.)
 ------------------------------------------------------------------------------------

 L = 1.  Multiply by 2.5417464519 to convert [e a0] to [Debye]
 Dipole X            :         -0.0012567            0.0006313           -0.0006254
 Dipole Y            :         -5.4821526            7.4856329            2.0034804
 Dipole Z            :         29.1943932          -41.8996593          -12.7052661
 Magnitude           :                                                   12.8622596

 ------------------------------------------------------------------------------------

*** tstop() called on d-18-8-4 at Mon Jan 22 22:30:36 2024
Module time:
	user time   =    4372.55 seconds =      72.88 minutes
	system time =     129.85 seconds =       2.16 minutes
	total time  =        494 seconds =       8.23 minutes
Total time:
	user time   =    4372.55 seconds =      72.88 minutes
	system time =     129.85 seconds =       2.16 minutes
	total time  =        494 seconds =       8.23 minutes

  //>>>>>>>>>>>>>>>>>>>>>>>>>>>>>>>>>>>//
  //            Monomer A HF           //
  //<<<<<<<<<<<<<<<<<<<<<<<<<<<<<<<<<<<//

   => Libint2 <=

    Primary   basis highest AM E, G, H:  7, 7, 4
    Auxiliary basis highest AM E, G, H:  7, 7, 5
    Onebody   basis highest AM E, G, H:  7, 7, 5
    Solid Harmonics ordering:            gaussian

*** tstart() called on d-18-8-4
*** at Mon Jan 22 22:30:36 2024

   => Loading Basis Set <=

    Name: JUN-CC-PVDZ
    Role: ORBITAL
    Keyword: BASIS
    atoms 1-2, 4-5, 10, 17-70 entry C          line   164 file /home/gridsan/tfroembgen/.conda/envs/psi4test/share/psi4/basis/jun-cc-pvdz.gbs 
    atoms 3, 6                entry N          line   198 file /home/gridsan/tfroembgen/.conda/envs/psi4test/share/psi4/basis/jun-cc-pvdz.gbs 
    atoms 7-9, 11-16, 71-88   entry H          line    36 file /home/gridsan/tfroembgen/.conda/envs/psi4test/share/psi4/basis/jun-cc-pvdz.gbs 


         ---------------------------------------------------------
                                   SCF
               by Justin Turney, Rob Parrish, Andy Simmonett
                          and Daniel G. A. Smith
                              RHF Reference
                       12 Threads,  30517 MiB Core
         ---------------------------------------------------------

  ==> Geometry <==

    Molecular point group: c1
    Full point group: C1

    Geometry (in Angstrom), charge = 1, multiplicity = 1:

       Center              X                  Y                   Z               Mass       
    ------------   -----------------  -----------------  -----------------  -----------------
         C            0.680066520158     1.235968212970    -8.547502810735    12.000000000000
         C           -0.680504479842     1.237996212970    -8.547118810735    12.000000000000
         N           -1.085635479842     1.238994212970    -7.228794810735    14.003074004430
         C            0.000107520158     1.242270212970    -6.447393810735    12.000000000000
         C           -2.477365479842     1.288400212970    -6.760815810735    12.000000000000
         N            1.085221520158     1.238994212970    -7.228794810735    14.003074004430
         H            1.385145520158     1.228140212970    -9.364941810735     1.007825032230
         H           -1.385302479842     1.237806212970    -9.364787810735     1.007825032230
         H           -0.000009479842     1.244017212970    -5.366304810735     1.007825032230
         C            2.478116520158     1.222102212970    -6.763696810735    12.000000000000
         H            2.490591520158     1.249447212970    -5.673443810735     1.007825032230
         H            2.967027520158     0.308656212970    -7.110872810735     1.007825032230
         H            3.001427520158     2.097585212970    -7.155168810735     1.007825032230
         H           -2.857359479842     2.310471212970    -6.840774810735     1.007825032230
         H           -3.082679479842     0.618316212970    -7.373879810735     1.007825032230
         H           -2.518128479842     0.961416212970    -5.720867810735     1.007825032230
      Gh(C)           1.225311895423     0.526248873889     1.074563816548    12.000000000000
      Gh(C)           1.225323856051    -0.888828309601     1.062233006978    12.000000000000
      Gh(C)          -0.000006153932     1.233676499060     1.061699383457    12.000000000000
      Gh(C)           2.456448753949     1.237038472148     1.077450673948    12.000000000000
      Gh(C)           0.000010827279    -1.596265913665     1.071898940782    12.000000000000
      Gh(C)          -1.225300948908     0.526255958954     1.076815336871    12.000000000000
      Gh(C)           2.456437755320    -1.599612718911     1.059987850121    12.000000000000
      Gh(C)          -0.000001332978     2.655511616251     1.059295833323    12.000000000000
      Gh(C)           3.681826697470     0.528028540971     1.060336639919    12.000000000000
      Gh(C)           2.455120048865     2.652934246459     1.060234082958    12.000000000000
      Gh(C)           3.681821105219    -0.890623254459     1.076409123937    12.000000000000
      Gh(C)          -1.225313598688    -0.888816930574     1.063305768405    12.000000000000
      Gh(C)           1.226699581202     3.362180068964     1.076593155868    12.000000000000
      Gh(C)           0.000004784858    -3.018071554266     1.076747108403    12.000000000000
      Gh(C)          -2.456436032848     1.237027503255     1.076850732717    12.000000000000
      Gh(C)           2.455123417779    -3.015519443619     1.076257215570    12.000000000000
      Gh(C)          -1.226714364589     3.362179648720     1.076696489087    12.000000000000
      Gh(C)           4.914517295202     1.245883457459     1.066817322949    12.000000000000
      Gh(C)           3.693150191476     3.361505877515     1.066867122585    12.000000000000
      Gh(C)          -2.456437600068    -1.599602695869     1.059962811997    12.000000000000
      Gh(C)           1.226704841943    -3.724763656937     1.060623025118    12.000000000000
      Gh(C)          -2.455125398508     2.652927247604     1.060240459305    12.000000000000
      Gh(C)           4.914524380782    -1.608476324974     1.069790065683    12.000000000000
      Gh(C)           1.221424613699     4.788844650230     1.069928499943    12.000000000000
      Gh(C)           4.893008229321     2.643898584996     1.068033991307    12.000000000000
      Gh(C)          -1.226697008489    -3.724760412107     1.060890229528    12.000000000000
      Gh(C)          -3.681818976526     0.528035551702     1.060349320399    12.000000000000
      Gh(C)           3.693147101150    -3.724090756421     1.069907956244    12.000000000000
      Gh(C)          -1.221432251994     4.788838882833     1.070111995316    12.000000000000
      Gh(C)           6.134770972926     0.499258532075     1.067587097498    12.000000000000
      Gh(C)           3.656788880610     4.791663828537     1.067775760367    12.000000000000
      Gh(C)          -2.455126907733    -3.015504508091     1.076012857772    12.000000000000
      Gh(C)          -3.681819179061    -0.890615118499     1.076526745516    12.000000000000
      Gh(C)           4.893012617914    -3.006489520662     1.068645143203    12.000000000000
      Gh(C)          -0.000001073113     5.469157951002     1.068880686609    12.000000000000
      Gh(C)           6.134775112332    -0.861844269105     1.068852418014    12.000000000000
      Gh(C)           2.478131482856     5.472287336301     1.069064540017    12.000000000000
      Gh(C)           1.221422404738    -5.151416469963     1.067129002920    12.000000000000
      Gh(C)          -3.693162383965     3.361507539162     1.067032630044    12.000000000000
      Gh(C)          -1.221428520945    -5.151407718626     1.067016241087    12.000000000000
      Gh(C)          -4.914521807942     1.245886031965     1.066894267956    12.000000000000
      Gh(C)           3.656787019679    -5.154244641269     1.069226260901    12.000000000000
      Gh(C)          -2.478138530106     5.472285007498     1.069349065026    12.000000000000
      Gh(C)          -3.693141738564    -3.724079634009     1.069791830088    12.000000000000
      Gh(C)          -4.914512483053    -1.608470415058     1.069824762857    12.000000000000
      Gh(C)          -0.000006008926    -5.831727702044     1.068485182487    12.000000000000
      Gh(C)          -4.893020484101     2.643899183889     1.068023909447    12.000000000000
      Gh(C)           2.478125993298    -5.834862958919     1.068135660109    12.000000000000
      Gh(C)          -3.656798710258     4.791666767011     1.067952440742    12.000000000000
      Gh(C)          -4.892999478856    -3.006481182090     1.068491107505    12.000000000000
      Gh(C)          -2.478128498083    -5.834855585037     1.067860472462    12.000000000000
      Gh(C)          -6.134770503331     0.499259351226     1.067561545796    12.000000000000
      Gh(C)          -3.656788833189    -5.154233438001     1.069011973085    12.000000000000
      Gh(C)          -6.134765042913    -0.861843330512     1.068831942219    12.000000000000
      Gh(H)           5.835288495816     3.187986479924     1.072393316970     1.007825032230
      Gh(H)           7.073859172747     1.046927833869     1.068048740892     1.007825032230
      Gh(H)           4.600663264174     5.331091387423     1.068280961119     1.007825032230
      Gh(H)           5.835283387305    -3.550595471759     1.064190675888     1.007825032230
      Gh(H)          -0.000012151306     6.557241259106     1.064531441601     1.007825032230
      Gh(H)           7.073861171831    -1.409516357774     1.068343679920     1.007825032230
      Gh(H)           2.473313731799     6.559394876364     1.068597819087     1.007825032230
      Gh(H)           4.600668491381    -5.693665544206     1.068816263733     1.007825032230
      Gh(H)          -2.473318680537     6.559392304576     1.068899165712     1.007825032230
      Gh(H)          -0.000010268228    -6.919817591482     1.073014867472     1.007825032230
      Gh(H)          -5.835301914343     3.187981535266     1.072529339118     1.007825032230
      Gh(H)           2.473307923831    -6.921974789459     1.068705990534     1.007825032230
      Gh(H)          -4.600674841208     5.331088611573     1.068446289443     1.007825032230
      Gh(H)          -5.835279506835    -3.550578378810     1.063911370007     1.007825032230
      Gh(H)          -2.473300347440    -6.921968493170     1.068256673990     1.007825032230
      Gh(H)          -7.073857766768     1.046931057810     1.067964749411     1.007825032230
      Gh(H)          -4.600673786085    -5.693652084817     1.068643955710     1.007825032230
      Gh(H)          -7.073856934409    -1.409510047007     1.068248823454     1.007825032230

  Running in c1 symmetry.

  Rotational constants: A =      0.00126  B =      0.00122  C =      0.00105 [cm^-1]
  Rotational constants: A =     37.64254  B =     36.55075  C =     31.40919 [MHz]
  Nuclear repulsion =  306.774908447733083

  Charge       = 1
  Multiplicity = 1
  Electrons    = 52
  Nalpha       = 26
  Nbeta        = 26

  ==> Algorithm <==

  SCF Algorithm Type is DF.
  DIIS enabled.
  MOM disabled.
  Fractional occupation disabled.
  Guess Type is SAD.
  Energy threshold   = 1.00e-08
  Density threshold  = 1.00e-08
  Integral threshold = 1.00e-12

  ==> Primary Basis <==

  Basis Set: JUN-CC-PVDZ
    Blend: JUN-CC-PVDZ
    Number of shells: 569
    Number of basis functions: 1233
    Number of Cartesian functions: 1294
    Spherical Harmonics?: true
    Max angular momentum: 2

   => Loading Basis Set <=

    Name: (JUN-CC-PVDZ AUX)
    Role: JKFIT
    Keyword: DF_BASIS_SCF
    atoms 1-2, 4-5, 10, 17-70 entry C          line   146 file /home/gridsan/tfroembgen/.conda/envs/psi4test/share/psi4/basis/jun-cc-pvdz-jkfit.gbs 
    atoms 3, 6                entry N          line   202 file /home/gridsan/tfroembgen/.conda/envs/psi4test/share/psi4/basis/jun-cc-pvdz-jkfit.gbs 
    atoms 7-9, 11-16, 71-88   entry H          line    70 file /home/gridsan/tfroembgen/.conda/envs/psi4test/share/psi4/basis/jun-cc-pvdz-jkfit.gbs 

  ==> Integral Setup <==

  ==> DiskDFJK: Density-Fitted J/K Matrices <==

    J tasked:                  Yes
    K tasked:                  Yes
    wK tasked:                  No
    OpenMP threads:             12
    Integrals threads:          12
    Memory [MiB]:            22888
    Algorithm:                Core
    Integral Cache:           LOAD
    Schwarz Cutoff:          1E-12
    Fitting Condition:       1E-10

   => Auxiliary Basis Set <=

  Basis Set: (JUN-CC-PVDZ AUX)
    Blend: JUN-CC-PVDZ-JKFIT
    Number of shells: 1890
    Number of basis functions: 5440
    Number of Cartesian functions: 6226
    Spherical Harmonics?: true
    Max angular momentum: 3

  Minimum eigenvalue in the overlap matrix is 8.3994381856E-10.
  Reciprocal condition number of the overlap matrix is 3.7575046333E-11.
    Using canonical orthogonalization.
  Overall, 14 of 1233 possible MOs eliminated.


  ==> Pre-Iterations <==

  SCF Guess: Superposition of Atomic Densities via on-the-fly atomic UHF (no occupation information).

   -------------------------
    Irrep   Nso     Nmo    
   -------------------------
     A       1233    1219 
   -------------------------
    Total    1233    1219
   -------------------------

  ==> Iterations <==

                           Total Energy        Delta E     RMS |[F,P]|

   @DF-RHF iter SAD:  -303.36533922328096   -3.03365e+02   0.00000e+00 
   @DF-RHF iter   1:  -303.16939901950161    1.95940e-01   3.44023e-04 ADIIS/DIIS
   @DF-RHF iter   2:  -303.28372600525205   -1.14327e-01   1.15854e-04 ADIIS/DIIS
   @DF-RHF iter   3:  -303.29516963744589   -1.14436e-02   4.53121e-05 DIIS
   @DF-RHF iter   4:  -303.29707025423193   -1.90062e-03   9.88759e-06 DIIS
   @DF-RHF iter   5:  -303.29717563227535   -1.05378e-04   2.41015e-06 DIIS
   @DF-RHF iter   6:  -303.29718487514617   -9.24287e-06   6.54126e-07 DIIS
   @DF-RHF iter   7:  -303.29718594694191   -1.07180e-06   3.31978e-07 DIIS
   @DF-RHF iter   8:  -303.29718619904145   -2.52100e-07   1.33553e-07 DIIS
   @DF-RHF iter   9:  -303.29718624740610   -4.83647e-08   3.37098e-08 DIIS
   @DF-RHF iter  10:  -303.29718625023281   -2.82671e-09   1.26770e-08 DIIS
   @DF-RHF iter  11:  -303.29718625047940   -2.46587e-10   2.99160e-09 DIIS
  Energy and wave function converged.


  ==> Post-Iterations <==

    Orbital Energies [Eh]
    ---------------------

    Doubly Occupied:                                                      

       1A    -15.834668     2A    -15.834136     3A    -11.529556  
       4A    -11.459860     5A    -11.458306     6A    -11.449669  
       7A    -11.449555     8A     -1.578237     9A     -1.433827  
      10A     -1.238668    11A     -1.189310    12A     -1.118867  
      13A     -1.022537    14A     -0.996968    15A     -0.917047  
      16A     -0.850523    17A     -0.816259    18A     -0.813206  
      19A     -0.790132    20A     -0.786227    21A     -0.781775  
      22A     -0.729705    23A     -0.725783    24A     -0.717096  
      25A     -0.596304    26A     -0.523859  

    Virtual:                                                              

      27A     -0.070441    28A     -0.069901    29A     -0.056768  
      30A     -0.050715    31A     -0.035187    32A     -0.034016  
      33A     -0.031476    34A     -0.031143    35A     -0.028970  
      36A     -0.023237    37A     -0.019544    38A     -0.014803  
      39A     -0.013505    40A     -0.009074    41A     -0.005428  
      42A     -0.005084    43A     -0.000360    44A     -0.000160  
      45A      0.002507    46A      0.004233    47A      0.004666  
      48A      0.010559    49A      0.010830    50A      0.012188  
      51A      0.016205    52A      0.021485    53A      0.021742  
      54A      0.023882    55A      0.027938    56A      0.028422  
      57A      0.031324    58A      0.033456    59A      0.035160  
      60A      0.037681    61A      0.039173    62A      0.042104  
      63A      0.042125    64A      0.042895    65A      0.050837  
      66A      0.051080    67A      0.055805    68A      0.056545  
      69A      0.058304    70A      0.060399    71A      0.060624  
      72A      0.065007    73A      0.066853    74A      0.067753  
      75A      0.070564    76A      0.072136    77A      0.073518  
      78A      0.073565    79A      0.074123    80A      0.076237  
      81A      0.076978    82A      0.078215    83A      0.079615  
      84A      0.084621    85A      0.084825    86A      0.086917  
      87A      0.087107    88A      0.088616    89A      0.092322  
      90A      0.092887    91A      0.093392    92A      0.094028  
      93A      0.096522    94A      0.097217    95A      0.097568  
      96A      0.101530    97A      0.103014    98A      0.104067  
      99A      0.104422   100A      0.105546   101A      0.110156  
     102A      0.112513   103A      0.115712   104A      0.118236  
     105A      0.119734   106A      0.119911   107A      0.122719  
     108A      0.123099   109A      0.124159   110A      0.125234  
     111A      0.127653   112A      0.128349   113A      0.128511  
     114A      0.130031   115A      0.130583   116A      0.132237  
     117A      0.132631   118A      0.135650   119A      0.136657  
     120A      0.138920   121A      0.142023   122A      0.143260  
     123A      0.145063   124A      0.145939   125A      0.146050  
     126A      0.147589   127A      0.148185   128A      0.150975  
     129A      0.151608   130A      0.153105   131A      0.153762  
     132A      0.157290   133A      0.157460   134A      0.157496  
     135A      0.158798   136A      0.160052   137A      0.168849  
     138A      0.169513   139A      0.170973   140A      0.172625  
     141A      0.172771   142A      0.174609   143A      0.174927  
     144A      0.175002   145A      0.178113   146A      0.179444  
     147A      0.180176   148A      0.183968   149A      0.184457  
     150A      0.185123   151A      0.187666   152A      0.188862  
     153A      0.189065   154A      0.190261   155A      0.190699  
     156A      0.191357   157A      0.191635   158A      0.193857  
     159A      0.198205   160A      0.199633   161A      0.200121  
     162A      0.201531   163A      0.201625   164A      0.202751  
     165A      0.203344   166A      0.206726   167A      0.218083  
     168A      0.218196   169A      0.220608   170A      0.222478  
     171A      0.224505   172A      0.225242   173A      0.225370  
     174A      0.225454   175A      0.226471   176A      0.226708  
     177A      0.229988   178A      0.230780   179A      0.232888  
     180A      0.233443   181A      0.234708   182A      0.235802  
     183A      0.236176   184A      0.236207   185A      0.237935  
     186A      0.242419   187A      0.244618   188A      0.246293  
     189A      0.246815   190A      0.247982   191A      0.250647  
     192A      0.253026   193A      0.258908   194A      0.259039  
     195A      0.260063   196A      0.263377   197A      0.263748  
     198A      0.269488   199A      0.270715   200A      0.272720  
     201A      0.274208   202A      0.274442   203A      0.278158  
     204A      0.278194   205A      0.280523   206A      0.281855  
     207A      0.284271   208A      0.292145   209A      0.292567  
     210A      0.293649   211A      0.294545   212A      0.295177  
     213A      0.296717   214A      0.299591   215A      0.302409  
     216A      0.302924   217A      0.303746   218A      0.303917  
     219A      0.308675   220A      0.311394   221A      0.311953  
     222A      0.312737   223A      0.314637   224A      0.315076  
     225A      0.316790   226A      0.317513   227A      0.319826  
     228A      0.322180   229A      0.322556   230A      0.327216  
     231A      0.327809   232A      0.330164   233A      0.331366  
     234A      0.335332   235A      0.336689   236A      0.341700  
     237A      0.345239   238A      0.347827   239A      0.349257  
     240A      0.351764   241A      0.352670   242A      0.353142  
     243A      0.359620   244A      0.363881   245A      0.366603  
     246A      0.366696   247A      0.370570   248A      0.372082  
     249A      0.374364   250A      0.376343   251A      0.377984  
     252A      0.378206   253A      0.378507   254A      0.378793  
     255A      0.380986   256A      0.381352   257A      0.384240  
     258A      0.386719   259A      0.387961   260A      0.392725  
     261A      0.393615   262A      0.394201   263A      0.396506  
     264A      0.396916   265A      0.401446   266A      0.401484  
     267A      0.402880   268A      0.404128   269A      0.404504  
     270A      0.405892   271A      0.410274   272A      0.412267  
     273A      0.414710   274A      0.415707   275A      0.415720  
     276A      0.419564   277A      0.420601   278A      0.422745  
     279A      0.424271   280A      0.425529   281A      0.428854  
     282A      0.430527   283A      0.431503   284A      0.433833  
     285A      0.434336   286A      0.435061   287A      0.435559  
     288A      0.438385   289A      0.440277   290A      0.441824  
     291A      0.442135   292A      0.448778   293A      0.452468  
     294A      0.453272   295A      0.454805   296A      0.457109  
     297A      0.461657   298A      0.464435   299A      0.465633  
     300A      0.470879   301A      0.471879   302A      0.473114  
     303A      0.474455   304A      0.476000   305A      0.476724  
     306A      0.477481   307A      0.478468   308A      0.481129  
     309A      0.489065   310A      0.489945   311A      0.489988  
     312A      0.492386   313A      0.492871   314A      0.492911  
     315A      0.494570   316A      0.505121   317A      0.508939  
     318A      0.511568   319A      0.511965   320A      0.515460  
     321A      0.520473   322A      0.520657   323A      0.521472  
     324A      0.522335   325A      0.522907   326A      0.525996  
     327A      0.527129   328A      0.527767   329A      0.531740  
     330A      0.544631   331A      0.544726   332A      0.545158  
     333A      0.545664   334A      0.547124   335A      0.547347  
     336A      0.556755   337A      0.556829   338A      0.561675  
     339A      0.562081   340A      0.563358   341A      0.566194  
     342A      0.566632   343A      0.567087   344A      0.567214  
     345A      0.578194   346A      0.578386   347A      0.579498  
     348A      0.585382   349A      0.585782   350A      0.592289  
     351A      0.592347   352A      0.592471   353A      0.596284  
     354A      0.603324   355A      0.608121   356A      0.609097  
     357A      0.610376   358A      0.617990   359A      0.622497  
     360A      0.623435   361A      0.623822   362A      0.626511  
     363A      0.626952   364A      0.627430   365A      0.629253  
     366A      0.635523   367A      0.636278   368A      0.637492  
     369A      0.637635   370A      0.643813   371A      0.646422  
     372A      0.647958   373A      0.648420   374A      0.649503  
     375A      0.651598   376A      0.653019   377A      0.653105  
     378A      0.654782   379A      0.655150   380A      0.658086  
     381A      0.663364   382A      0.668721   383A      0.669043  
     384A      0.670324   385A      0.670485   386A      0.680743  
     387A      0.686824   388A      0.687627   389A      0.694078  
     390A      0.694845   391A      0.695046   392A      0.701889  
     393A      0.706890   394A      0.706912   395A      0.708115  
     396A      0.710582   397A      0.711243   398A      0.711996  
     399A      0.712744   400A      0.713610   401A      0.714404  
     402A      0.714635   403A      0.718673   404A      0.719835  
     405A      0.720420   406A      0.722150   407A      0.723721  
     408A      0.724804   409A      0.729791   410A      0.733970  
     411A      0.734135   412A      0.737019   413A      0.738079  
     414A      0.742100   415A      0.742180   416A      0.743475  
     417A      0.746365   418A      0.749999   419A      0.751118  
     420A      0.751968   421A      0.752583   422A      0.753980  
     423A      0.762643   424A      0.779381   425A      0.788514  
     426A      0.791042   427A      0.791138   428A      0.795657  
     429A      0.795704   430A      0.806364   431A      0.806450  
     432A      0.815927   433A      0.816463   434A      0.819247  
     435A      0.827091   436A      0.827104   437A      0.832183  
     438A      0.832371   439A      0.836123   440A      0.837349  
     441A      0.844920   442A      0.844946   443A      0.851920  
     444A      0.853329   445A      0.863195   446A      0.870750  
     447A      0.870827   448A      0.885235   449A      0.894246  
     450A      0.901448   451A      0.905929   452A      0.906037  
     453A      0.914754   454A      0.914771   455A      0.923708  
     456A      0.936710   457A      0.945549   458A      0.945681  
     459A      0.945998   460A      0.949842   461A      0.952683  
     462A      0.955492   463A      0.966343   464A      0.973813  
     465A      0.973838   466A      0.976593   467A      0.989236  
     468A      0.989355   469A      1.005095   470A      1.011450  
     471A      1.011549   472A      1.014552   473A      1.014601  
     474A      1.031457   475A      1.033186   476A      1.043846  
     477A      1.048744   478A      1.048940   479A      1.051612  
     480A      1.065257   481A      1.096297   482A      1.100749  
     483A      1.100847   484A      1.103087   485A      1.107244  
     486A      1.107379   487A      1.121234   488A      1.122716  
     489A      1.125283   490A      1.128941   491A      1.128988  
     492A      1.138644   493A      1.142677   494A      1.142722  
     495A      1.148148   496A      1.149649   497A      1.162326  
     498A      1.166066   499A      1.166107   500A      1.174094  
     501A      1.175544   502A      1.233865   503A      1.241841  
     504A      1.241906   505A      1.248446   506A      1.252075  
     507A      1.252176   508A      1.262346   509A      1.267905  
     510A      1.268008   511A      1.273239   512A      1.274577  
     513A      1.275320   514A      1.310086   515A      1.316524  
     516A      1.316560   517A      1.318413   518A      1.346385  
     519A      1.366611   520A      1.388772   521A      1.389163  
     522A      1.406804   523A      1.407703   524A      1.409901  
     525A      1.412589   526A      1.412979   527A      1.415621  
     528A      1.421921   529A      1.428632   530A      1.429097  
     531A      1.463643   532A      1.477649   533A      1.489555  
     534A      1.500569   535A      1.500931   536A      1.502790  
     537A      1.503054   538A      1.504253   539A      1.514411  
     540A      1.516961   541A      1.562577   542A      1.568269  
     543A      1.580788   544A      1.584138   545A      1.592904  
     546A      1.596238   547A      1.604382   548A      1.605793  
     549A      1.606900   550A      1.607723   551A      1.618746  
     552A      1.628392   553A      1.629440   554A      1.633770  
     555A      1.637582   556A      1.646198   557A      1.660166  
     558A      1.668803   559A      1.680139   560A      1.685928  
     561A      1.690603   562A      1.691763   563A      1.693067  
     564A      1.695130   565A      1.695601   566A      1.697764  
     567A      1.703629   568A      1.707572   569A      1.708786  
     570A      1.712624   571A      1.723638   572A      1.731832  
     573A      1.733671   574A      1.737247   575A      1.737655  
     576A      1.738830   577A      1.743220   578A      1.745242  
     579A      1.747293   580A      1.750731   581A      1.756323  
     582A      1.756611   583A      1.757997   584A      1.770074  
     585A      1.770477   586A      1.774823   587A      1.775352  
     588A      1.776621   589A      1.779173   590A      1.779609  
     591A      1.781142   592A      1.787124   593A      1.787390  
     594A      1.787530   595A      1.789445   596A      1.792214  
     597A      1.802393   598A      1.806428   599A      1.807032  
     600A      1.807233   601A      1.809865   602A      1.816788  
     603A      1.821666   604A      1.823543   605A      1.824511  
     606A      1.827083   607A      1.831063   608A      1.832934  
     609A      1.834152   610A      1.838471   611A      1.839823  
     612A      1.843402   613A      1.850189   614A      1.852020  
[...]
     793A      1.643928   794A      1.649728   795A      1.660966  
     796A      1.661029   797A      1.664225   798A      1.667429  
     799A      1.676266   800A      1.676350   801A      1.676756  
     802A      1.676783   803A      1.677018   804A      1.679122  
     805A      1.686615   806A      1.686657   807A      1.690039  
     808A      1.696046   809A      1.697938   810A      1.699324  
     811A      1.699385   812A      1.700900   813A      1.704753  
     814A      1.704824   815A      1.715760   816A      1.715764  
     817A      1.741686   818A      1.751394   819A      1.755270  
     820A      1.760291   821A      1.760315   822A      1.761066  
     823A      1.761740   824A      1.776716   825A      1.776761  
     826A      1.789361   827A      1.791493   828A      1.791546  
     829A      1.798552   830A      1.802514   831A      1.804417  
     832A      1.816572   833A      1.816625   834A      1.816666  
     835A      1.818087   836A      1.824659   837A      1.824770  
     838A      1.830916   839A      1.830975   840A      1.834791  
     841A      1.837006   842A      1.842405   843A      1.842699  
     844A      1.855379   845A      1.860806   846A      1.860880  
     847A      1.861076   848A      1.862102   849A      1.864086  
     850A      1.868659   851A      1.872303   852A      1.880162  
     853A      1.880244   854A      1.890119   855A      1.896095  
     856A      1.896298   857A      1.896624   858A      1.899482  
     859A      1.902976   860A      1.903095   861A      1.908621  
     862A      1.908770   863A      1.913709   864A      1.914286  
     865A      1.915022   866A      1.917662   867A      1.917802  
     868A      1.919278   869A      1.922008   870A      1.922095  
     871A      1.940572   872A      1.941181   873A      1.941812  
     874A      1.942068   875A      1.942625   876A      1.946547  
     877A      1.946600   878A      1.954088   879A      1.954218  
     880A      1.954471   881A      1.954565   882A      1.957997  
     883A      1.969999   884A      1.982864   885A      1.982935  
     886A      1.989451   887A      1.994720   888A      1.997112  
     889A      1.998617   890A      1.998624   891A      2.004350  
     892A      2.008034   893A      2.012313   894A      2.012470  
     895A      2.015502   896A      2.027535   897A      2.027839  
     898A      2.029906   899A      2.030165   900A      2.030574  
     901A      2.031249   902A      2.031377   903A      2.032152  
     904A      2.037306   905A      2.047392   906A      2.048164  
     907A      2.052037   908A      2.052207   909A      2.056310  
     910A      2.057410   911A      2.058318   912A      2.059322  
     913A      2.061227   914A      2.068294   915A      2.070243  
     916A      2.071197   917A      2.071519   918A      2.075522  
     919A      2.076136   920A      2.080588   921A      2.082911  
     922A      2.084392   923A      2.084634   924A      2.086341  
     925A      2.092885   926A      2.094656   927A      2.095870  
     928A      2.096849   929A      2.100540   930A      2.100574  
     931A      2.106204   932A      2.107931   933A      2.108352  
     934A      2.109018   935A      2.109367   936A      2.110449  
     937A      2.110904   938A      2.114275   939A      2.119126  
     940A      2.119267   941A      2.120199   942A      2.120511  
     943A      2.123754   944A      2.126078   945A      2.126134  
     946A      2.132601   947A      2.133482   948A      2.134581  
     949A      2.135752   950A      2.135854   951A      2.143081  
     952A      2.143186   953A      2.146410   954A      2.155549  
     955A      2.159439   956A      2.159740   957A      2.162553  
     958A      2.162776   959A      2.163365   960A      2.171321  
     961A      2.178278   962A      2.178360   963A      2.186307  
     964A      2.190383   965A      2.190737   966A      2.192384  
     967A      2.192579   968A      2.193915   969A      2.195833  
     970A      2.195930   971A      2.198427   972A      2.212364  
     973A      2.219658   974A      2.220258   975A      2.220405  
     976A      2.227789   977A      2.228147   978A      2.228493  
     979A      2.228807   980A      2.234870   981A      2.243230  
     982A      2.243562   983A      2.243874   984A      2.244198  
     985A      2.247072   986A      2.260086   987A      2.260162  
     988A      2.266918   989A      2.270131   990A      2.270143  
     991A      2.272020   992A      2.272074   993A      2.275821  
     994A      2.281058   995A      2.296281   996A      2.300260  
     997A      2.306664   998A      2.310381   999A      2.312181  
    1000A      2.314415  1001A      2.320357  1002A      2.322268  
    1003A      2.330923  1004A      2.330987  1005A      2.331084  
    1006A      2.333837  1007A      2.338928  1008A      2.340075  
    1009A      2.350704  1010A      2.351367  1011A      2.352348  
    1012A      2.352452  1013A      2.366299  1014A      2.366437  
    1015A      2.374673  1016A      2.379363  1017A      2.384934  
    1018A      2.415831  1019A      2.423998  1020A      2.424366  
    1021A      2.424396  1022A      2.436444  1023A      2.441087  
    1024A      2.441113  1025A      2.442499  1026A      2.446890  
    1027A      2.455149  1028A      2.468070  1029A      2.469995  
    1030A      2.472622  1031A      2.472875  1032A      2.475474  
    1033A      2.485387  1034A      2.485458  1035A      2.502290  
    1036A      2.505977  1037A      2.519249  1038A      2.529755  
    1039A      2.529913  1040A      2.543279  1041A      2.545328  
    1042A      2.545375  1043A      2.554256  1044A      2.554284  
    1045A      2.554788  1046A      2.559815  1047A      2.559822  
    1048A      2.572958  1049A      2.572985  1050A      2.574666  
    1051A      2.575191  1052A      2.576083  1053A      2.586244  
    1054A      2.586350  1055A      2.587264  1056A      2.589726  
    1057A      2.591385  1058A      2.605976  1059A      2.623410  
    1060A      2.623462  1061A      2.624966  1062A      2.631259  
    1063A      2.631820  1064A      2.632449  1065A      2.641145  
    1066A      2.641196  1067A      2.644051  1068A      2.649518  
    1069A      2.650813  1070A      2.651311  1071A      2.656838  
    1072A      2.657750  1073A      2.672956  1074A      2.681957  
    1075A      2.683135  1076A      2.683969  1077A      2.686894  
    1078A      2.701903  1079A      2.702335  1080A      2.712997  
    1081A      2.713003  1082A      2.718644  1083A      2.718666  
    1084A      2.722528  1085A      2.722728  1086A      2.736049  
    1087A      2.737333  1088A      2.746780  1089A      2.752265  
    1090A      2.752566  1091A      2.766055  1092A      2.777067  
    1093A      2.794480  1094A      2.794585  1095A      2.803438  
    1096A      2.815575  1097A      2.827087  1098A      2.827646  
    1099A      2.834760  1100A      2.851321  1101A      2.851681  
    1102A      2.856009  1103A      2.858303  1104A      2.859270  
    1105A      2.859626  1106A      2.866919  1107A      2.873810  
    1108A      2.888696  1109A      2.907743  1110A      2.916868  
    1111A      2.917261  1112A      2.922213  1113A      2.923635  
    1114A      2.933545  1115A      2.933634  1116A      2.946141  
    1117A      2.949579  1118A      2.949612  1119A      2.962743  
    1120A      2.970238  1121A      2.993805  1122A      3.005682  
    1123A      3.006648  1124A      3.007948  1125A      3.011856  
    1126A      3.029389  1127A      3.037085  1128A      3.064113  
    1129A      3.064165  1130A      3.070544  1131A      3.070597  
    1132A      3.109335  1133A      3.110144  1134A      3.127746  
    1135A      3.129512  1136A      3.129733  1137A      3.137442  
    1138A      3.139882  1139A      3.146250  1140A      3.146266  
    1141A      3.146310  1142A      3.148921  1143A      3.148945  
    1144A      3.157618  1145A      3.158059  1146A      3.165689  
    1147A      3.166158  1148A      3.191638  1149A      3.211138  
    1150A      3.218391  1151A      3.237390  1152A      3.272450  
    1153A      3.276922  1154A      3.277150  1155A      3.281859  
    1156A      3.281960  1157A      3.284456  1158A      3.304607  
    1159A      3.316921  1160A      3.397593  1161A      3.416230  
    1162A      3.416838  1163A      3.442880  1164A      3.481353  
    1165A      3.483962  1166A      3.521813  1167A      3.549117  
    1168A      3.566284  1169A      3.577033  1170A      3.579026  
    1171A      3.593819  1172A      3.626462  1173A      3.628447  
    1174A      3.642900  1175A      3.662798  1176A      3.667855  
    1177A      3.755654  1178A      3.769212  1179A      3.782643  
    1180A      3.783655  1181A      3.813869  1182A      3.866061  
    1183A      3.870701  1184A      3.870745  1185A      3.913057  
    1186A      3.913175  1187A      3.957287  1188A      3.976895  
    1189A      4.010854  1190A      4.032700  1191A      4.044541  
    1192A      4.080773  1193A      4.203098  1194A      4.206632  
    1195A      4.339949  1196A      4.358084  1197A      4.482870  
    1198A      4.733405  1199A      4.771343  1200A      4.827681  
    1201A      4.844123  1202A      4.933504  1203A      5.047917  
    1204A      5.054348  1205A      5.063696  1206A      5.108352  
    1207A      5.127219  1208A      5.389425  1209A      5.419576  
    1210A      5.729950  1211A      5.752113  1212A      6.065265  
    1213A     18.196611  1214A     18.451555  1215A     18.468668  
    1216A     18.556804  1217A     18.828965  1218A     25.336917  
    1219A     25.372847  

    Final Occupation by Irrep:
              A 
    DOCC [   171 ]
    NA   [   171 ]
    NB   [   171 ]

  @DF-RHF Final Energy: -2055.89167145896226

   => Energetics <=

    Nuclear Repulsion Energy =           6452.5568002797781446
    One-Electron Energy =              -15636.4268414290690998
    Two-Electron Energy =                7127.9783696903277814
    Total Energy =                      -2055.8916714589622643

Computation Completed


Properties will be evaluated at   0.000000,   0.000000,   0.000000 [a0]

Properties computed using the SCF density matrix


 Multipole Moments:

 ------------------------------------------------------------------------------------
     Multipole            Electronic (a.u.)      Nuclear  (a.u.)        Total (a.u.)
 ------------------------------------------------------------------------------------

 L = 1.  Multiply by 2.5417464519 to convert [e a0] to [Debye]
 Dipole X            :          0.0001074           -0.0000085            0.0000989
 Dipole Y            :        117.1651133         -117.1648546            0.0002588
 Dipole Z            :       -690.5063720          690.5078030            0.0014310
 Magnitude           :                                                    0.0014575

 ------------------------------------------------------------------------------------

*** tstop() called on d-18-8-4 at Mon Jan 22 22:39:53 2024
Module time:
	user time   =    2734.67 seconds =      45.58 minutes
	system time =      64.51 seconds =       1.08 minutes
	total time  =        322 seconds =       5.37 minutes
Total time:
	user time   =    8774.60 seconds =     146.24 minutes
	system time =     235.91 seconds =       3.93 minutes
	total time  =       1051 seconds =      17.52 minutes
  Constructing Basis Sets for SAPT...

   => Loading Basis Set <=

    Name: (JUN-CC-PVDZ AUX)
    Role: RIFIT
    Keyword: DF_BASIS_SAPT
    atoms 1-2, 4-5, 10, 17-70 entry C          line   100 file /home/gridsan/tfroembgen/.conda/envs/psi4test/share/psi4/basis/jun-cc-pvdz-ri.gbs 
    atoms 3, 6                entry N          line   144 file /home/gridsan/tfroembgen/.conda/envs/psi4test/share/psi4/basis/jun-cc-pvdz-ri.gbs 
    atoms 7-9, 11-16, 71-88   entry H          line    30 file /home/gridsan/tfroembgen/.conda/envs/psi4test/share/psi4/basis/jun-cc-pvdz-ri.gbs 

   => Loading Basis Set <=

    Name: (JUN-CC-PVDZ AUX)
    Role: JKFIT
    Keyword: DF_BASIS_ELST
    atoms 1-2, 4-5, 10, 17-70 entry C          line   146 file /home/gridsan/tfroembgen/.conda/envs/psi4test/share/psi4/basis/jun-cc-pvdz-jkfit.gbs 
    atoms 3, 6                entry N          line   202 file /home/gridsan/tfroembgen/.conda/envs/psi4test/share/psi4/basis/jun-cc-pvdz-jkfit.gbs 
    atoms 7-9, 11-16, 71-88   entry H          line    70 file /home/gridsan/tfroembgen/.conda/envs/psi4test/share/psi4/basis/jun-cc-pvdz-jkfit.gbs 


  //>>>>>>>>>>>>>>>>>>>>>>>>>>>>>>>>>>>//
  //               SSAPT0              //
  //<<<<<<<<<<<<<<<<<<<<<<<<<<<<<<<<<<<//


*** tstart() called on d-18-8-4
*** at Mon Jan 22 22:39:54 2024

        SAPT0  
    Ed Hohenstein
     6 June 2009

      Orbital Information
  --------------------------
    NSO        =      1233
    NMO        =      1219
    NRI        =      4343
    NRI (Elst) =      5440
    NOCC A     =        26
    NOCC B     =       171
    FOCC A     =         7
    FOCC B     =        54
    NVIR A     =      1193
    NVIR B     =      1048

    Elst10,r            =    -0.005719154436 [Eh]
    Exch10              =    -0.000000138471 [Eh]
    Exch10 (S^2)        =    -0.000000138471 [Eh]

    Iter     Energy [mEh]          dE [mEh]         Residual      Time [s]
       1      -0.01230760       0.012307602       1.045570023           244
       2      -0.01169772      -0.000609887       0.277655882           600
       3      -0.01289290       0.001195184       0.078668542          1240
       4      -0.01296891       0.000076014       0.036320435          1641
       5      -0.01291312      -0.000055795       0.011391878          1944
       6      -0.01291175      -0.000001368       0.003434030          2254
       7      -0.01291528       0.000003530       0.001147313          2524
       8      -0.01291612       0.000000844       0.000282106          2798
       9      -0.01291600      -0.000000129       0.000100435          3151
      10      -0.01291591      -0.000000084       0.000026237          3546
      11      -0.01291592       0.000000005       0.000007338          3935
      12      -0.01291592       0.000000005       0.000002494          4333
      13      -0.01291592       0.000000000       0.000000829          4638

    CHF Iterations converged


    Iter     Energy [mEh]          dE [mEh]         Residual      Time [s]
       1      -2.03214515       2.032145147      23.175653196           199
       2      -1.39827907      -0.633866079       2.871828148           425
       3      -1.40324533       0.004966262       1.106500626           508
       4      -1.43778908       0.034543753       0.273517455           548
       5      -1.43952110       0.001732014       0.094889799           574
       6      -1.43845985      -0.001061246       0.053550520           601
       7      -1.43816975      -0.000290096       0.026492318           628
       8      -1.43840179       0.000232035       0.016614275           680
       9      -1.43848036       0.000078573       0.010432113           731
      10      -1.43843116      -0.000049206       0.007035187           761
      11      -1.43840187      -0.000029286       0.002997044           791
      12      -1.43841026       0.000008391       0.001246081           851
      13      -1.43841502       0.000004761       0.000482050           904
      14      -1.43841466      -0.000000365       0.000221619           961
      15      -1.43841370      -0.000000952       0.000114481           991
      16      -1.43841353      -0.000000177       0.000052857          1020
      17      -1.43841381       0.000000283       0.000022922          1049
      18      -1.43841383       0.000000017       0.000011351          1071
      19      -1.43841379      -0.000000039       0.000005896          1173
      20      -1.43841378      -0.000000009       0.000002093          1201
      21      -1.43841378       0.000000006       0.000000954          1246

    CHF Iterations converged

    Ind20,r (A<-B)      =    -0.000012915922 [Eh]
    Ind20,r (B<-A)      =    -0.001438413785 [Eh]
    Ind20,r             =    -0.001451329707 [Eh]
    Exch-Ind20,r (A<-B) =     0.000000007061 [Eh]
    Exch-Ind20,r (B<-A) =     0.000000038956 [Eh]
    Exch-Ind20,r        =     0.000000046017 [Eh]
    Disp20              =    -0.000589719313 [Eh]
    Disp20 (SS)         =    -0.000294859656 [Eh]
    Disp20 (OS)         =    -0.000294859656 [Eh]
    Exch-Disp20         =     0.000000023937 [Eh]
    Exch-Disp20 (SS)    =     0.000000017498 [Eh]
    Exch-Disp20 (OS)    =     0.000000006439 [Eh]

    SAPT Results 
  --------------------------------------------------------------------------------------------------------
    Electrostatics                 -5.71915444 [mEh]      -3.58882359 [kcal/mol]     -15.01563790 [kJ/mol]
      Elst10,r                     -5.71915444 [mEh]      -3.58882359 [kcal/mol]     -15.01563790 [kJ/mol]

    Exchange                       -0.00013847 [mEh]      -0.00008689 [kcal/mol]      -0.00036356 [kJ/mol]
      Exch10                       -0.00013847 [mEh]      -0.00008689 [kcal/mol]      -0.00036356 [kJ/mol]
      Exch10(S^2)                  -0.00013847 [mEh]      -0.00008689 [kcal/mol]      -0.00036356 [kJ/mol]

    Induction                      -1.46984672 [mEh]      -0.92234274 [kcal/mol]      -3.85908203 [kJ/mol]
      Ind20,r                      -1.45132971 [mEh]      -0.91072314 [kcal/mol]      -3.81046562 [kJ/mol]
      Exch-Ind20,r                  0.00004602 [mEh]       0.00002888 [kcal/mol]       0.00012082 [kJ/mol]
      delta HF,r (2)               -0.01856303 [mEh]      -0.01164848 [kcal/mol]      -0.04873722 [kJ/mol]

    Dispersion                     -0.58969538 [mEh]      -0.37003943 [kcal/mol]      -1.54824500 [kJ/mol]
      Disp20                       -0.58971931 [mEh]      -0.37005446 [kcal/mol]      -1.54830784 [kJ/mol]
      Exch-Disp20                   0.00002394 [mEh]       0.00001502 [kcal/mol]       0.00006285 [kJ/mol]
      Disp20 (SS)                  -0.29485966 [mEh]      -0.18502723 [kcal/mol]      -0.77415392 [kJ/mol]
      Disp20 (OS)                  -0.29485966 [mEh]      -0.18502723 [kcal/mol]      -0.77415392 [kJ/mol]
      Exch-Disp20 (SS)              0.00001750 [mEh]       0.00001098 [kcal/mol]       0.00004594 [kJ/mol]
      Exch-Disp20 (OS)              0.00000644 [mEh]       0.00000404 [kcal/mol]       0.00001690 [kJ/mol]

  Total HF                         -7.18913962 [mEh]      -4.51125322 [kcal/mol]     -18.87508348 [kJ/mol]
  Total SAPT0                      -7.77883500 [mEh]      -4.88129266 [kcal/mol]     -20.42332848 [kJ/mol]

  Special recipe for scaled SAPT0 (see Manual):
    Electrostatics sSAPT0          -5.71915444 [mEh]      -3.58882359 [kcal/mol]     -15.01563790 [kJ/mol]
    Exchange sSAPT0                -0.00013847 [mEh]      -0.00008689 [kcal/mol]      -0.00036356 [kJ/mol]
    Induction sSAPT0               -1.46984672 [mEh]      -0.92234274 [kcal/mol]      -3.85908203 [kJ/mol]
    Dispersion sSAPT0              -0.58969538 [mEh]      -0.37003943 [kcal/mol]      -1.54824500 [kJ/mol]
  Total sSAPT0                     -7.77883500 [mEh]      -4.88129266 [kcal/mol]     -20.42332848 [kJ/mol]
  --------------------------------------------------------------------------------------------------------

*** tstop() called on d-18-8-4 at Tue Jan 23 01:05:45 2024
Module time:
	user time   =    8823.35 seconds =     147.06 minutes
	system time =    1097.63 seconds =      18.29 minutes
	total time  =       8751 seconds =     145.85 minutes
Total time:
	user time   =   17599.00 seconds =     293.32 minutes
	system time =    1333.54 seconds =      22.23 minutes
	total time  =       9803 seconds =     163.38 minutes

    Psi4 stopped on: Tuesday, 23 January 2024 01:05AM
    Psi4 wall time for execution: 2:43:23.77

*** Psi4 exiting successfully. Buy a developer a beer!
