
    -----------------------------------------------------------------------
          Psi4: An Open-Source Ab Initio Electronic Structure Package
                               Psi4 1.9 release

                         Git: Rev {} zzzzzzz 


    D. G. A. Smith, L. A. Burns, A. C. Simmonett, R. M. Parrish,
    M. C. Schieber, R. Galvelis, P. Kraus, H. Kruse, R. Di Remigio,
    A. Alenaizan, A. M. James, S. Lehtola, J. P. Misiewicz, M. Scheurer,
    R. A. Shaw, J. B. Schriber, Y. Xie, Z. L. Glick, D. A. Sirianni,
    J. S. O'Brien, J. M. Waldrop, A. Kumar, E. G. Hohenstein,
    B. P. Pritchard, B. R. Brooks, H. F. Schaefer III, A. Yu. Sokolov,
    K. Patkowski, A. E. DePrince III, U. Bozkaya, R. A. King,
    F. A. Evangelista, J. M. Turney, T. D. Crawford, C. D. Sherrill,
    J. Chem. Phys. 152(18) 184108 (2020). https://doi.org/10.1063/5.0006002

                            Additional Code Authors
    E. T. Seidl, C. L. Janssen, E. F. Valeev, M. L. Leininger,
    J. F. Gonthier, R. M. Richard, H. R. McAlexander, M. Saitow, X. Wang,
    P. Verma, M. H. Lechner, A. Jiang, S. Behnle, A. G. Heide,
    M. F. Herbst, and D. L. Poole

             Previous Authors, Complete List of Code Contributors,
                       and Citations for Specific Modules
    https://github.com/psi4/psi4/blob/master/codemeta.json
    https://github.com/psi4/psi4/graphs/contributors
    http://psicode.org/psi4manual/master/introduction.html#citing-psifour

    -----------------------------------------------------------------------


    Psi4 started on: Friday, 26 January 2024 11:55PM

    Process ID: 247472
    Host:       n2cn0374
    PSIDATADIR: /opt/software/pc2/EB-SW/software/PSI4/1.9-foss-2022a/share/psi4
    Memory:     500.0 MiB
    Threads:    16
    
  ==> Input File <==

--------------------------------------------------------------------------
memory 64 GB # how much memory is available ! Depends on the nodes/cores !

molecule dimer {
# monomer A
+1 1    # Charge and multiplicity
C  0.680067 -0.008042 -6.015929
C -0.680504 -0.006014 -6.015545
N -1.085635 -0.005016 -4.697221
C  0.000108 -0.001740 -3.915820
C -2.477365  0.044390 -4.229242
N  1.085222 -0.005016 -4.697221
H  1.385146 -0.015870 -6.833368
H -1.385302 -0.006204 -6.833214
H -0.000009  0.000007 -2.834731
C  2.478117 -0.021908 -4.232123
H  2.490592  0.005437 -3.141870
H  2.967028 -0.935354 -4.579299
H  3.001428  0.853575 -4.623595
H -2.857359  1.066461 -4.309201
H -3.082679 -0.625694 -4.842306
H -2.518128 -0.282594 -3.189294
--
# monomer B
0 1     # Charge and multiplicity
C   -3.66844126402057      7.80375217008252      0.00190004133558
C   -4.84759871934653      7.13124183134024     -0.00046653359696
C   -4.89495929917518      5.69633040353158     -0.00103944469517
C   -3.65374067877320      4.98073034095895      0.00662099703436
C   -2.40942512149445      7.11398103667468      0.00209438359570
C   -2.42547734410473      5.68112195090346     -0.00491050527438
C   -1.19474401643570      7.78614419430947      0.00356656413763
C   0.03795902893699      7.09942164575698      0.00139585983271
C   0.03033258741920      5.66948955970466     -0.00408752508301
C   -1.20098450790502      4.96927034791531      0.00488220885047
C   1.27795782581485      7.77285944319479      0.00277170839332
C   2.48535808472416      7.08769688523756      0.00049722048857
C   2.48612868491717      5.65477081024076     -0.00644052849921
C   1.25408291964399      4.95607811366431      0.00518741308898
C   3.75171459140595      7.76391215098033      0.00062407186893
C   4.92356605618520      7.07878077698995     -0.00143240883900
C   4.95560727132542      5.64344746336949     -0.00159282164606
C   3.70680153420475      4.94121020833308      0.00349873852374
H   -3.65852113775815      8.89082741913536      0.00358502958574
H   -1.18921332975660      8.87412108735996      0.00753844057883
H   1.28429423888630      8.86083343548850      0.00693053253426
H   3.75354208679975      8.85103527897216      0.00214659618464
H   5.86995870320703      7.61379483465560     -0.00235777588134
H   -5.78823170750226      7.67630221293400     -0.00202638095293
C   -6.09197395869619      4.99326001364347     -0.00291168518608
C   -6.12866148031747      3.58258016879823     -0.00171050815740
C   -3.66457974004527      3.56418217974434     -0.00463560277484
C   -4.89429820469869      2.86108077590057      0.00453338221034
C   -2.43733499489796      2.84761165708481      0.00719617576166
C   -1.20922785759670      3.54788693497833     -0.00648285103018
C   1.24714157216223      3.53468075142962     -0.00729145743546
C   0.01517603956900      2.83311183930540      0.00439272578912
C   2.46764517244071      2.82128997725533      0.00449278391269
C   3.70254947457969      3.52466015442405     -0.00899517692985
C   6.14498038638375      4.92757236613191     -0.00282626685777
C   6.16658835886151      3.51658447594213     -0.00065971342101
C   4.92460995845939      2.80840792535402      0.00587903281610
H   7.08990550964105      5.46688776622306     -0.00658814770723
H   -7.03104175110130      5.54268795285765     -0.00714490013730
C   -7.33969804112295      2.85841153457957     -0.00333767559888
C   -7.36488195805880      1.47032337158330     -0.00157213747140
C   -4.90350460894690      1.44442681216000     -0.00628840166334
C   -6.13225715261081      0.73993935705394      0.00600164231964
C   -3.67687480051673      0.72669714267312      0.00433931473643
C   -2.44565658606518      1.42964113326212     -0.00597039546461
C   -1.22360068130162      0.71532450163492      0.00545886906656
C   0.00763786931376      1.41738314923765      0.00392452278437
C   1.23121980774686      0.70211669058719     -0.01490206287210
C   2.46082110053113      1.40329203612573      0.00460244601878
C   3.68443025419614      0.68719842821222      0.00377365974158
C   4.91870890153864      1.39173456118907     -0.00862816189375
C   7.36980207796101      2.77948220318441     -0.00242013321349
C   7.38016266612146      1.39121750785509     -0.00087345036788
C   6.13979953912259      0.67411862320065      0.00545489144369
H   -8.27919079934664      3.40711804112415     -0.00763522772059
H   8.31511347147953      3.31811809662368     -0.00663070901292
C   -8.59175593758115      0.72483255304480     -0.00123170985383
C   -8.59902460370342     -0.63263980622873      0.00089141472904
C   -6.13981313911873     -0.67413663715361     -0.00609792660607
C   -7.38018411213749     -1.39126618958160      0.00131813493501
C   -4.91868448025621     -1.39175501803000      0.00624257154343
C   -3.68443829568458     -0.68723731573599     -0.00478966852105
C   -2.46081704024768     -1.40334517882457      0.00575341766833
C   -1.23116201232071     -0.70217386488055     -0.00636696112346
C   -0.00756962538737     -1.41741884941102      0.00108956317991
C   1.22364771588843     -0.71527537726392      0.01109518512883
C   2.44567064933149     -1.42964328900682     -0.00065482763106
C   3.67686670284649     -0.72670743155550     -0.00479541202602
C   6.13224884641929     -0.73997883984993     -0.00632338623858
C   4.90351914550401     -1.44445752054090      0.00751768830159
C   8.59901484869081      0.63260386666793     -0.00101133422380
C   8.59174548810050     -0.72485086719319      0.00072504603735
C   7.36486276438985     -1.47033266560598      0.00049486934466
H   -9.52830597181814      1.27684744919284     -0.00270163681798
H   9.54141097460619      1.17457248844457     -0.00206336648518
C   -7.36983790976868     -2.77954514593389      0.00312634335708
C   -4.92459910905015     -2.80843725734101     -0.00460528907921
C   -6.16662249566744     -3.51665219282533      0.00169655107992
C   -3.70251035970491     -3.52468154912026      0.00571878010666
C   -2.46764698511392     -2.82132596280400     -0.00632585824990
C   -0.01513347410770     -2.83314164539971     -0.00604426974092
C   -1.24712184122656     -3.53473217556300      0.00551968366725
C   1.20924506964357     -3.54791467864352      0.00805871345849
C   2.43733602215464     -2.84764173817541     -0.00608104485234
C   4.89430234377080     -2.86112296828604     -0.00526030478103
C   3.66461525504104     -3.56421984553201      0.00761911515957
C   6.12863901474565     -3.58258405771778      0.00096495711699
C   7.33967266469532     -2.85841330737039      0.00248018319869
H   -9.54144911125902     -1.17456346666430      0.00226083090216
H   9.52826186807155     -1.27691907390448      0.00197485379837
H   -8.31516504384864     -3.31814985321231      0.00729857188773
H   8.27915514249207     -3.40714078989363      0.00681973918158
C   -6.14499418870218     -4.92764727278338      0.00302254913999
C   -3.70678334799751     -4.94126171411716     -0.00679841894792
C   -4.95559005800169     -5.64349397349412      0.00116871569699
C   -2.48612132622665     -5.65478557440947      0.00614125209662
C   -1.25405833548005     -4.95612205000132     -0.00503435388927
C   1.20101257386816     -4.96928038819302     -0.00385322963129
C   -0.03033667441341     -5.66952030313900      0.00398997003238
C   3.65375010132847     -4.98074377541453     -0.00309522988330
C   2.42549269587528     -5.68117463552727      0.00628170066869
C   6.09196561781097     -4.99325796338655      0.00325918379042
C   4.89497644461045     -5.69634842095790      0.00202298796027
H   -7.08989238804069     -5.46699984223871      0.00742531082125
H   7.03105520920009     -5.54265853633254      0.00683896355417
C   -4.92354532219813     -7.07882109967734      0.00061394679214
C   -2.48534208823777     -7.08772807792913     -0.00189594564379
C   -3.75168589177895     -7.76394715763627     -0.00170126671874
C   -0.03794895698805     -7.09946487446944     -0.00168022049625
C   -1.27795610040136     -7.77290438466689     -0.00366491325785
C   2.40944432072629     -7.11402201200282     -0.00081701968533
C   1.19474993715296     -7.78618536556242     -0.00296931056689
C   4.84762105249800     -7.13126211057943      0.00168979497423
C   3.66847160587561     -7.80378799294376     -0.00065863938960
H   -5.86994035041618     -7.61383059804164      0.00215798365757
H   5.78824962538815     -7.67633218931421      0.00281691445618
H   -3.75352693944918     -8.85107156923607     -0.00353718114765
H   -1.28430440589466     -8.86087539249706     -0.00809229711623
H   1.18922157469537     -8.87416062058945     -0.00706194725726
H   3.65854661482387     -8.89086063405326     -0.00231318081200

    units angstrom      # Angstroms are the default
    no_reorient         # Geometry fixed, default
    symmetry c1         # C1 symmetry, default
}

set {
    scf_type DF         # Density fitting, faster than exact integrals
    freeze_core True    # Freeze core electrons
    basis jun-cc-pVDZ   # Jun-cc-pVDZ basis set, recommended for sSAPT0 in https://doi.org/10.1063/1.4867135
}

energy('ssapt0')        # Compute sSAPT0 energy, includes also SAPT0
--------------------------------------------------------------------------

  Memory set to  59.605 GiB by Python driver.

Scratch directory: /tmp/
   => Loading Basis Set <=

    Name: JUN-CC-PVDZ
    Role: ORBITAL
    Keyword: BASIS
    atoms 1-2, 4-5, 10, 17-34, 41-53, 56-70, 73-89, 92-104, 109-119, 122-130 entry C          line   164 file /opt/software/pc2/EB-SW/software/PSI4/1.9-foss-2022a/share/psi4/basis/jun-cc-pvdz.gbs 
    atoms 3, 6                                                               entry N          line   198 file /opt/software/pc2/EB-SW/software/PSI4/1.9-foss-2022a/share/psi4/basis/jun-cc-pvdz.gbs 
    atoms 7-9, 11-16, 35-40, 54-55, 71-72, 90-91, 105-108, 120-121, 131-136  entry H          line    36 file /opt/software/pc2/EB-SW/software/PSI4/1.9-foss-2022a/share/psi4/basis/jun-cc-pvdz.gbs 

   => Loading Basis Set <=

    Name: JUN-CC-PVDZ
    Role: ORBITAL
    Keyword: BASIS
    atoms 1-2, 4-5, 10, 17-34, 41-53, 56-70, 73-89, 92-104, 109-119, 122-130 entry C          line   164 file /opt/software/pc2/EB-SW/software/PSI4/1.9-foss-2022a/share/psi4/basis/jun-cc-pvdz.gbs 
    atoms 3, 6                                                               entry N          line   198 file /opt/software/pc2/EB-SW/software/PSI4/1.9-foss-2022a/share/psi4/basis/jun-cc-pvdz.gbs 
    atoms 7-9, 11-16, 35-40, 54-55, 71-72, 90-91, 105-108, 120-121, 131-136  entry H          line    36 file /opt/software/pc2/EB-SW/software/PSI4/1.9-foss-2022a/share/psi4/basis/jun-cc-pvdz.gbs 


  //>>>>>>>>>>>>>>>>>>>>>>>>>>>>>>>>>>>//
  //              Dimer HF             //
  //<<<<<<<<<<<<<<<<<<<<<<<<<<<<<<<<<<<//

   => Libint2 <=

    Primary   basis highest AM E, G, H:  5, 4, 3
    Auxiliary basis highest AM E, G, H:  6, 5, 4
    Onebody   basis highest AM E, G, H:  6, 5, 4
    Solid Harmonics ordering:            gaussian

*** tstart() called on n2cn0374
*** at Fri Jan 26 23:55:57 2024

   => Loading Basis Set <=

    Name: JUN-CC-PVDZ
    Role: ORBITAL
    Keyword: BASIS
    atoms 1-2, 4-5, 10, 17-34, 41-53, 56-70, 73-89, 92-104, 109-119, 122-130 entry C          line   164 file /opt/software/pc2/EB-SW/software/PSI4/1.9-foss-2022a/share/psi4/basis/jun-cc-pvdz.gbs 
    atoms 3, 6                                                               entry N          line   198 file /opt/software/pc2/EB-SW/software/PSI4/1.9-foss-2022a/share/psi4/basis/jun-cc-pvdz.gbs 
    atoms 7-9, 11-16, 35-40, 54-55, 71-72, 90-91, 105-108, 120-121, 131-136  entry H          line    36 file /opt/software/pc2/EB-SW/software/PSI4/1.9-foss-2022a/share/psi4/basis/jun-cc-pvdz.gbs 


         ---------------------------------------------------------
                                   SCF
               by Justin Turney, Rob Parrish, Andy Simmonett
                          and Daniel G. A. Smith
                              RHF Reference
                       16 Threads,  61035 MiB Core
         ---------------------------------------------------------

  ==> Geometry <==

    Molecular point group: c1
    Full point group: C1

    Geometry (in Angstrom), charge = 1, multiplicity = 1:

       Center              X                  Y                   Z               Mass       
    ------------   -----------------  -----------------  -----------------  -----------------
         C            0.680062820275    -0.008027535675    -5.649971854981    12.000000000000
         C           -0.680508179725    -0.005999535675    -5.649587854981    12.000000000000
         N           -1.085639179725    -0.005001535675    -4.331263854981    14.003074004430
         C            0.000103820275    -0.001725535675    -3.549862854981    12.000000000000
         C           -2.477369179725     0.044404464325    -3.863284854981    12.000000000000
         N            1.085217820275    -0.005001535675    -4.331263854981    14.003074004430
         H            1.385141820275    -0.015855535675    -6.467410854981     1.007825032230
         H           -1.385306179725    -0.006189535675    -6.467256854981     1.007825032230
         H           -0.000013179725     0.000021464325    -2.468773854981     1.007825032230
         C            2.478112820275    -0.021893535675    -3.866165854981    12.000000000000
         H            2.490587820275     0.005451464325    -2.775912854981     1.007825032230
         H            2.967023820275    -0.935339535675    -4.213341854981     1.007825032230
         H            3.001423820275     0.853589464325    -4.257637854981     1.007825032230
         H           -2.857363179725     1.066475464325    -3.943243854981     1.007825032230
         H           -3.082683179725    -0.625679535675    -4.476348854981     1.007825032230
         H           -2.518132179725    -0.282579535675    -2.823336854981     1.007825032230
         C           -3.668445443746     7.803766634408     0.367857186355    12.000000000000
         C           -4.847602899072     7.131256295665     0.365490611422    12.000000000000
         C           -4.894963478901     5.696344867857     0.364917700324    12.000000000000
         C           -3.653744858499     4.980744805284     0.372578142054    12.000000000000
         C           -2.409429301220     7.113995501000     0.368051528615    12.000000000000
         C           -2.425481523830     5.681136415228     0.361046639745    12.000000000000
         C           -1.194748196161     7.786158658634     0.369523709157    12.000000000000
         C            0.037954849212     7.099436110082     0.367353004852    12.000000000000
         C            0.030328407694     5.669504024030     0.361869619936    12.000000000000
         C           -1.200988687630     4.969284812240     0.370839353870    12.000000000000
         C            1.277953646089     7.772873907520     0.368728853413    12.000000000000
         C            2.485353904999     7.087711349563     0.366454365508    12.000000000000
         C            2.486124505192     5.654785274566     0.359516616520    12.000000000000
         C            1.254078739919     4.956092577989     0.371144558108    12.000000000000
         C            3.751710411681     7.763926615305     0.366581216888    12.000000000000
         C            4.923561876460     7.078795241315     0.364524736180    12.000000000000
         C            4.955603091600     5.643461927694     0.364364323373    12.000000000000
         C            3.706797354479     4.941224672658     0.369455883543    12.000000000000
         H           -3.658525317484     8.890841883460     0.369542174605     1.007825032230
         H           -1.189217509482     8.874135551685     0.373495585598     1.007825032230
         H            1.284290059161     8.860847899813     0.372887677553     1.007825032230
         H            3.753537907074     8.851049743297     0.368103741204     1.007825032230
         H            5.869954523482     7.613809298981     0.363599369138     1.007825032230
         H           -5.788235887228     7.676316677259     0.363930764066     1.007825032230
         C           -6.091978138422     4.993274477968     0.363045459833    12.000000000000
         C           -6.128665660043     3.582594633123     0.364246636862    12.000000000000
         C           -3.664583919771     3.564196644069     0.361321542244    12.000000000000
         C           -4.894302384424     2.861095240226     0.370490527230    12.000000000000
         C           -2.437339174623     2.847626121410     0.373153320781    12.000000000000
         C           -1.209232037322     3.547901399303     0.359474293989    12.000000000000
         C            1.247137392437     3.534695215755     0.358665687584    12.000000000000
         C            0.015171859844     2.833126303630     0.370349870808    12.000000000000
         C            2.467640992715     2.821304441580     0.370449928932    12.000000000000
         C            3.702545294854     3.524674618749     0.356961968089    12.000000000000
         C            6.144976206658     4.927586830457     0.363130878161    12.000000000000
         C            6.166584179136     3.516598940267     0.365297431598    12.000000000000
         C            4.924605778734     2.808422389679     0.371836177835    12.000000000000
         H            7.089901329916     5.466902230548     0.359368997312     1.007825032230
         H           -7.031045930827     5.542702417183     0.358812244882     1.007825032230
         C           -7.339702220848     2.858425998905     0.362619469420    12.000000000000
         C           -7.364886137784     1.470337835908     0.364385007548    12.000000000000
         C           -4.903508788672     1.444441276485     0.359668743356    12.000000000000
         C           -6.132261332336     0.739953821379     0.371958787339    12.000000000000
         C           -3.676878980242     0.726711606998     0.370296459756    12.000000000000
         C           -2.445660765791     1.429655597587     0.359986749555    12.000000000000
         C           -1.223604861027     0.715338965960     0.371416014086    12.000000000000
         C            0.007633689588     1.417397613563     0.369881667804    12.000000000000
         C            1.231215628021     0.702131154912     0.351055082147    12.000000000000
         C            2.460816920806     1.403306500451     0.370559591038    12.000000000000
         C            3.684426074471     0.687212892537     0.369730804761    12.000000000000
         C            4.918704721813     1.391749025514     0.357328983125    12.000000000000
         C            7.369797898236     2.779496667509     0.363537011806    12.000000000000
         C            7.380158486396     1.391231972180     0.365083694651    12.000000000000
         C            6.139795359397     0.674133087526     0.371412036463    12.000000000000
         H           -8.279194979072     3.407132505449     0.358321917299     1.007825032230
         H            8.315109291754     3.318132560949     0.359326436006     1.007825032230
         C           -8.591760117307     0.724847017370     0.364725435165    12.000000000000
         C           -8.599028783429    -0.632625341904     0.366848559748    12.000000000000
         C           -6.139817318844    -0.674122172829     0.359859218413    12.000000000000
         C           -7.380188291863    -1.391251725257     0.367275279954    12.000000000000
         C           -4.918688659982    -1.391740553705     0.372199716563    12.000000000000
         C           -3.684442475410    -0.687222851411     0.361167476498    12.000000000000
         C           -2.460821219973    -1.403330714500     0.371710562688    12.000000000000
         C           -1.231166192046    -0.702159400556     0.359590183896    12.000000000000
         C           -0.007573805113    -1.417404385086     0.367046708199    12.000000000000
         C            1.223643536163    -0.715260912939     0.377052330148    12.000000000000
         C            2.445666469606    -1.429628824682     0.365302317388    12.000000000000
         C            3.676862523121    -0.726692967231     0.361161732993    12.000000000000
         C            6.132244666694    -0.739964375525     0.359633758781    12.000000000000
         C            4.903514965779    -1.444443056216     0.373474833321    12.000000000000
         C            8.599010668965     0.632618330993     0.364945810795    12.000000000000
         C            8.591741308375    -0.724836402868     0.366682191057    12.000000000000
         C            7.364858584664    -1.470318201281     0.366452014364    12.000000000000
         H           -9.528310151544     1.276861913518     0.363255508201     1.007825032230
         H            9.541406794881     1.174586952770     0.363893778534     1.007825032230
         C           -7.369842089494    -2.779530681609     0.369083488376    12.000000000000
         C           -4.924603288776    -2.808422793016     0.361351855940    12.000000000000
         C           -6.166626675393    -3.516637728500     0.367653696099    12.000000000000
         C           -3.702514539430    -3.524667084795     0.371675925126    12.000000000000
         C           -2.467651164839    -2.821311498479     0.359631286769    12.000000000000
         C           -0.015137653833    -2.833127181075     0.359912875278    12.000000000000
         C           -1.247126020952    -3.534717711238     0.371476828686    12.000000000000
         C            1.209240889918    -3.547900214319     0.374015858478    12.000000000000
         C            2.437331842429    -2.847627273850     0.359876100167    12.000000000000
         C            4.894298164045    -2.861108503961     0.360696840238    12.000000000000
         C            3.664611075316    -3.564205381207     0.373576260179    12.000000000000
         C            6.128634835020    -3.582569593393     0.366922102136    12.000000000000
         C            7.339668484970    -2.858398843045     0.368437328218    12.000000000000
         H           -9.541453290984    -1.174549002339     0.368217975921     1.007825032230
         H            9.528257688346    -1.276904609579     0.367931998818     1.007825032230
         H           -8.315169223574    -3.318135388887     0.373255716907     1.007825032230
         H            8.279150962767    -3.407126325569     0.372776884201     1.007825032230
         C           -6.144998368428    -4.927632808458     0.368979694159    12.000000000000
         C           -3.706787527723    -4.941247249792     0.359158726071    12.000000000000
         C           -4.955594237727    -5.643479509169     0.367125860716    12.000000000000
         C           -2.486125505952    -5.654771110084     0.372098397116    12.000000000000
         C           -1.254062515205    -4.956107585676     0.360922791130    12.000000000000
         C            1.201008394143    -4.969265923868     0.362103915388    12.000000000000
         C           -0.030340854139    -5.669505838814     0.369947115052    12.000000000000
         C            3.653745921603    -4.980729311090     0.362861915136    12.000000000000
         C            2.425488516150    -5.681160171202     0.372238845688    12.000000000000
         C            6.091961438086    -4.993243499062     0.369216328810    12.000000000000
         C            4.894972264885    -5.696333956633     0.367980132979    12.000000000000
         H           -7.089896567766    -5.466985377914     0.373382455840     1.007825032230
         H            7.031051029475    -5.542644072008     0.372796108573     1.007825032230
         C           -4.923549501924    -7.078806635352     0.366571091811    12.000000000000
         C           -2.485346267963    -7.087713613604     0.364061199375    12.000000000000
         C           -3.751690071504    -7.763932693311     0.364255878300    12.000000000000
         C           -0.037953136713    -7.099450410144     0.364276924523    12.000000000000
         C           -1.277960280127    -7.772889920342     0.362292231761    12.000000000000
         C            2.409440141001    -7.114007547678     0.365140125334    12.000000000000
         C            1.194745757428    -7.786170901237     0.362987834452    12.000000000000
         C            4.847616872773    -7.131247646254     0.367646939993    12.000000000000
         C            3.668467426150    -7.803773528619     0.365298505630    12.000000000000
         H           -5.869944530142    -7.613816133717     0.368115128677     1.007825032230
         H            5.788245445663    -7.676317724989     0.368774059475     1.007825032230
         H           -3.753531119175    -8.851057104911     0.362419963872     1.007825032230
         H           -1.284308585620    -8.860860928172     0.357864847903     1.007825032230
         H            1.189217394970    -8.874146156264     0.358895197762     1.007825032230
         H            3.658542435098    -8.890846169728     0.363643964207     1.007825032230

  Running in c1 symmetry.

  Rotational constants: A =      0.00065  B =      0.00064  C =      0.00035 [cm^-1]
  Rotational constants: A =     19.40727  B =     19.23275  C =     10.51914 [MHz]
  Nuclear repulsion = 18140.721542626568407

  Charge       = 1
  Multiplicity = 1
  Electrons    = 652
  Nalpha       = 326
  Nbeta        = 326

  ==> Algorithm <==

  SCF Algorithm Type is DF.
  DIIS enabled.
  MOM disabled.
  Fractional occupation disabled.
  Guess Type is SAD.
  Energy threshold   = 1.00e-08
  Density threshold  = 1.00e-08
  Integral threshold = 1.00e-12

  ==> Primary Basis <==

  Basis Set: JUN-CC-PVDZ
    Blend: JUN-CC-PVDZ
    Number of shells: 923
    Number of basis functions: 2019
    Number of Cartesian functions: 2122
    Spherical Harmonics?: true
    Max angular momentum: 2

   => Loading Basis Set <=

    Name: (JUN-CC-PVDZ AUX)
    Role: JKFIT
    Keyword: DF_BASIS_SCF
    atoms 1-2, 4-5, 10, 17-34, 41-53, 56-70, 73-89, 92-104, 109-119, 122-130 entry C          line   146 file /opt/software/pc2/EB-SW/software/PSI4/1.9-foss-2022a/share/psi4/basis/jun-cc-pvdz-jkfit.gbs 
    atoms 3, 6                                                               entry N          line   202 file /opt/software/pc2/EB-SW/software/PSI4/1.9-foss-2022a/share/psi4/basis/jun-cc-pvdz-jkfit.gbs 
    atoms 7-9, 11-16, 35-40, 54-55, 71-72, 90-91, 105-108, 120-121, 131-136  entry H          line    70 file /opt/software/pc2/EB-SW/software/PSI4/1.9-foss-2022a/share/psi4/basis/jun-cc-pvdz-jkfit.gbs 

  ==> Integral Setup <==

  ==> DiskDFJK: Density-Fitted J/K Matrices <==

    J tasked:                  Yes
    K tasked:                  Yes
    wK tasked:                  No
    OpenMP threads:             16
    Integrals threads:          16
    Memory [MiB]:            45776
    Algorithm:                Disk
    Integral Cache:           SAVE
    Schwarz Cutoff:          1E-12
    Fitting Condition:       1E-10

   => Auxiliary Basis Set <=

  Basis Set: (JUN-CC-PVDZ AUX)
    Blend: JUN-CC-PVDZ-JKFIT
    Number of shells: 3078
    Number of basis functions: 8896
    Number of Cartesian functions: 10198
    Spherical Harmonics?: true
    Max angular momentum: 3

  Minimum eigenvalue in the overlap matrix is 8.3032811153E-11.
  Reciprocal condition number of the overlap matrix is 3.4888366916E-12.
    Using canonical orthogonalization.
  Overall, 39 of 2019 possible MOs eliminated.


  ==> Pre-Iterations <==

  SCF Guess: Superposition of Atomic Densities via on-the-fly atomic UHF (no occupation information).

   -------------------------
    Irrep   Nso     Nmo    
   -------------------------
     A       2019    1980 
   -------------------------
    Total    2019    1980
   -------------------------

  ==> Iterations <==

                           Total Energy        Delta E     RMS |[F,P]|

   @DF-RHF iter SAD: -3967.25685940543053   -3.96726e+03   0.00000e+00 
   @DF-RHF iter   1: -3952.12060300016446    1.51363e+01   7.15961e-04 ADIIS/DIIS
   @DF-RHF iter   2: -3953.50460926838969   -1.38401e+00   2.39317e-04 ADIIS/DIIS
   @DF-RHF iter   3: -3953.62670242845070   -1.22093e-01   1.13340e-04 ADIIS/DIIS
   @DF-RHF iter   4: -3953.65365712296443   -2.69547e-02   4.90229e-05 DIIS
   @DF-RHF iter   5: -3953.65985797422945   -6.20085e-03   1.17968e-05 DIIS
   @DF-RHF iter   6: -3953.66038648443737   -5.28510e-04   4.66824e-06 DIIS
   @DF-RHF iter   7: -3953.66058112496330   -1.94641e-04   2.24070e-06 DIIS
   @DF-RHF iter   8: -3953.66064566816613   -6.45432e-05   1.11216e-06 DIIS
   @DF-RHF iter   9: -3953.66066377455809   -1.81064e-05   3.66610e-07 DIIS
   @DF-RHF iter  10: -3953.66066502197282   -1.24741e-06   1.49282e-07 DIIS
   @DF-RHF iter  11: -3953.66066518054686   -1.58574e-07   6.16080e-08 DIIS
   @DF-RHF iter  12: -3953.66066521486800   -3.43211e-08   3.15747e-08 DIIS
   @DF-RHF iter  13: -3953.66066522246820   -7.60019e-09   1.08378e-08 DIIS
   @DF-RHF iter  14: -3953.66066522318033   -7.12134e-10   5.09039e-09 DIIS
  Energy and wave function converged.


  ==> Post-Iterations <==

    Orbital Energies [Eh]
    ---------------------

    Doubly Occupied:                                                      

       1A    -15.801247     2A    -15.800760     3A    -11.494730  
       4A    -11.430103     5A    -11.428547     6A    -11.415992  
       7A    -11.415963     8A    -11.337812     9A    -11.337475  
      10A    -11.337136    11A    -11.336465    12A    -11.336016  
      13A    -11.335722    14A    -11.334514    15A    -11.334465  
      16A    -11.334344    17A    -11.334162    18A    -11.333475  
      19A    -11.333472    20A    -11.332642    21A    -11.332563  
      22A    -11.331647    23A    -11.331577    24A    -11.331397  
      25A    -11.331373    26A    -11.331293    27A    -11.331272  
      28A    -11.330329    29A    -11.330293    30A    -11.330195  
      31A    -11.330151    32A    -11.327519    33A    -11.327511  
      34A    -11.327451    35A    -11.327407    36A    -11.326773  
      37A    -11.326747    38A    -11.326712    39A    -11.326698  
      40A    -11.326225    41A    -11.326171    42A    -11.326057  
      43A    -11.325997    44A    -11.324857    45A    -11.324857  
      46A    -11.324449    47A    -11.324433    48A    -11.324420  
      49A    -11.324409    50A    -11.323903    51A    -11.323883  
      52A    -11.323882    53A    -11.323880    54A    -11.323879  
      55A    -11.323856    56A    -11.323538    57A    -11.323532  
      58A    -11.323456    59A    -11.323436    60A    -11.323435  
      61A    -11.323426    62A    -11.322923    63A    -11.322922  
      64A    -11.322908    65A    -11.322906    66A    -11.322545  
      67A    -11.322539    68A    -11.322465    69A    -11.322452  
      70A    -11.322394    71A    -11.322381    72A    -11.321910  
      73A    -11.321890    74A    -11.321887    75A    -11.321882  
      76A    -11.321465    77A    -11.321458    78A    -11.321443  
      79A    -11.321440    80A    -11.315359    81A    -11.315309  
      82A    -11.315273    83A    -11.315243    84A    -11.314798  
      85A    -11.314756    86A    -11.314706    87A    -11.314701  
      88A    -11.314537    89A    -11.314489    90A    -11.314455  
      91A    -11.314408    92A    -11.312794    93A    -11.312778  
      94A    -11.312006    95A    -11.311983    96A    -11.311982  
      97A    -11.311979    98A    -11.311325    99A    -11.311309  
     100A    -11.310529   101A    -11.310505   102A    -11.310503  
     103A    -11.310498   104A     -1.545386   105A     -1.400780  
     106A     -1.324034   107A     -1.306023   108A     -1.305157  
     109A     -1.285263   110A     -1.285113   111A     -1.282804  
     112A     -1.264294   113A     -1.259513   114A     -1.255144  
     115A     -1.254390   116A     -1.236585   117A     -1.236577  
     118A     -1.221506   119A     -1.221349   120A     -1.219275  
     121A     -1.207090   122A     -1.207055   123A     -1.206688  
     124A     -1.192928   125A     -1.180233   126A     -1.178876  
     127A     -1.178302   128A     -1.175401   129A     -1.173575  
     130A     -1.156076   131A     -1.152632   132A     -1.152511  
     133A     -1.139011   134A     -1.138957   135A     -1.132625  
     136A     -1.132500   137A     -1.130683   138A     -1.110240  
     139A     -1.110237   140A     -1.104115   141A     -1.100743  
     142A     -1.100619   143A     -1.091237   144A     -1.089042  
     145A     -1.088611   146A     -1.085815   147A     -1.071155  
     148A     -1.069843   149A     -1.066873   150A     -1.065453  
     151A     -1.065307   152A     -1.052486   153A     -1.035280  
     154A     -1.035104   155A     -1.018463   156A     -1.018369  
     157A     -0.990593   158A     -0.972497   159A     -0.972348  
     160A     -0.971783   161A     -0.966791   162A     -0.966740  
     163A     -0.963629   164A     -0.958936   165A     -0.958788  
     166A     -0.955680   167A     -0.955547   168A     -0.954148  
     169A     -0.934257   170A     -0.929309   171A     -0.914860  
     172A     -0.913200   173A     -0.912832   174A     -0.910283  
     175A     -0.907439   176A     -0.897802   177A     -0.897729  
     178A     -0.889535   179A     -0.889461   180A     -0.884136  
     181A     -0.850287   182A     -0.849874   183A     -0.847078  
     184A     -0.846051   185A     -0.845945   186A     -0.845123  
     187A     -0.845105   188A     -0.830918   189A     -0.826777  
     190A     -0.817792   191A     -0.815123   192A     -0.795482  
     193A     -0.790861   194A     -0.790393   195A     -0.788797  
     196A     -0.788218   197A     -0.787878   198A     -0.784965  
     199A     -0.783621   200A     -0.778731   201A     -0.778687  
     202A     -0.778503   203A     -0.762200   204A     -0.762036  
     205A     -0.758112   206A     -0.753586   207A     -0.751258  
     208A     -0.751162   209A     -0.748398   210A     -0.748290  
     211A     -0.745117   212A     -0.745070   213A     -0.742598  
     214A     -0.715878   215A     -0.714933   216A     -0.714604  
     217A     -0.713792   218A     -0.713744   219A     -0.711796  
     220A     -0.705840   221A     -0.705497   222A     -0.702762  
     223A     -0.701360   224A     -0.700072   225A     -0.699825  
     226A     -0.698641   227A     -0.692716   228A     -0.692382  
     229A     -0.686537   230A     -0.684683   231A     -0.676816  
     232A     -0.676651   233A     -0.671817   234A     -0.671735  
     235A     -0.666361   236A     -0.665499   237A     -0.664360  
     238A     -0.663185   239A     -0.662854   240A     -0.661771  
     241A     -0.658373   242A     -0.657979   243A     -0.657752  
     244A     -0.657578   245A     -0.654245   246A     -0.654104  
     247A     -0.653040   248A     -0.640495   249A     -0.640250  
     250A     -0.638353   251A     -0.638165   252A     -0.637622  
     253A     -0.635894   254A     -0.633549   255A     -0.633414  
     256A     -0.629063   257A     -0.628764   258A     -0.622714  
     259A     -0.622284   260A     -0.621160   261A     -0.619417  
     262A     -0.617475   263A     -0.613498   264A     -0.607941  
     265A     -0.607380   266A     -0.602763   267A     -0.601787  
     268A     -0.596529   269A     -0.596361   270A     -0.592989  
     271A     -0.590157   272A     -0.590074   273A     -0.580861  
     274A     -0.580566   275A     -0.577746   276A     -0.577690  
     277A     -0.571352   278A     -0.571269   279A     -0.564244  
     280A     -0.561021   281A     -0.560060   282A     -0.559855  
     283A     -0.559549   284A     -0.559325   285A     -0.556836  
     286A     -0.542991   287A     -0.539222   288A     -0.539192  
     289A     -0.536384   290A     -0.533857   291A     -0.529973  
     292A     -0.529854   293A     -0.523072   294A     -0.512768  
     295A     -0.512494   296A     -0.508148   297A     -0.507357  
     298A     -0.506688   299A     -0.495911   300A     -0.495571  
     301A     -0.493048   302A     -0.471608   303A     -0.471577  
     304A     -0.451777   305A     -0.451658   306A     -0.449901  
     307A     -0.447027   308A     -0.446958   309A     -0.417795  
     310A     -0.417768   311A     -0.414383   312A     -0.406606  
     313A     -0.405806   314A     -0.405069   315A     -0.393960  
     316A     -0.393641   317A     -0.372491   318A     -0.368082  
     319A     -0.367966   320A     -0.363510   321A     -0.348781  
     322A     -0.319272   323A     -0.318957   324A     -0.316237  
     325A     -0.267534   326A     -0.267288  

    Virtual:                                                              

     327A     -0.075003   328A     -0.074606   329A     -0.038609  
     330A     -0.034793   331A     -0.030787   332A     -0.030502  
     333A     -0.030468   334A     -0.019993   335A     -0.017458  
     336A     -0.009090   337A     -0.007153   338A     -0.005133  
     339A     -0.003052   340A     -0.001264   341A      0.000300  
     342A      0.001611   343A      0.002469   344A      0.004718  
     345A      0.004763   346A      0.005000   347A      0.005109  
     348A      0.009130   349A      0.010065   350A      0.012650  
     351A      0.013001   352A      0.013718   353A      0.013997  
     354A      0.015276   355A      0.015401   356A      0.018173  
     357A      0.020273   358A      0.020682   359A      0.021708  
     360A      0.025232   361A      0.026483   362A      0.026531  
     363A      0.027521   364A      0.032149   365A      0.033157  
     366A      0.034853   367A      0.036576   368A      0.037939  
     369A      0.038786   370A      0.041076   371A      0.043103  
     372A      0.043795   373A      0.045396   374A      0.045560  
     375A      0.046508   376A      0.049296   377A      0.050105  
     378A      0.052428   379A      0.053313   380A      0.053742  
     381A      0.054196   382A      0.054244   383A      0.054323  
     384A      0.055475   385A      0.056616   386A      0.057002  
     387A      0.058437   388A      0.060030   389A      0.063815  
     390A      0.064653   391A      0.064922   392A      0.065393  
     393A      0.068775   394A      0.069285   395A      0.069684  
     396A      0.074073   397A      0.075474   398A      0.077422  
     399A      0.077770   400A      0.078895   401A      0.080962  
     402A      0.081183   403A      0.083044   404A      0.087270  
     405A      0.087338   406A      0.087917   407A      0.089391  
     408A      0.090182   409A      0.092246   410A      0.092370  
     411A      0.092675   412A      0.094560   413A      0.097562  
     414A      0.097960   415A      0.098971   416A      0.100050  
     417A      0.104007   418A      0.107093   419A      0.107143  
     420A      0.107959   421A      0.108149   422A      0.108761  
     423A      0.109543   424A      0.111380   425A      0.113478  
     426A      0.114498   427A      0.114643   428A      0.115594  
     429A      0.115810   430A      0.116820   431A      0.117815  
     432A      0.118507   433A      0.119695   434A      0.121695  
     435A      0.122345   436A      0.123384   437A      0.127273  
     438A      0.128031   439A      0.129526   440A      0.131949  
     441A      0.132065   442A      0.135330   443A      0.136380  
     444A      0.136593   445A      0.136661   446A      0.139706  
     447A      0.142717   448A      0.145961   449A      0.147184  
     450A      0.147468   451A      0.147705   452A      0.148078  
     453A      0.148683   454A      0.148782   455A      0.149925  
     456A      0.150652   457A      0.151958   458A      0.151963  
     459A      0.152606   460A      0.153575   461A      0.154404  
     462A      0.154812   463A      0.155792   464A      0.156500  
     465A      0.157505   466A      0.158117   467A      0.159958  
     468A      0.160153   469A      0.161004   470A      0.161439  
     471A      0.164035   472A      0.166015   473A      0.166578  
     474A      0.167073   475A      0.168530   476A      0.170038  
     477A      0.170710   478A      0.171422   479A      0.171634  
     480A      0.172983   481A      0.174705   482A      0.175219  
     483A      0.175365   484A      0.175920   485A      0.177481  
     486A      0.179008   487A      0.180462   488A      0.181070  
     489A      0.181497   490A      0.181848   491A      0.184843  
     492A      0.185656   493A      0.186165   494A      0.186957  
     495A      0.187939   496A      0.188746   497A      0.190565  
     498A      0.192624   499A      0.192887   500A      0.193295  
     501A      0.195867   502A      0.196807   503A      0.197836  
     504A      0.198741   505A      0.200208   506A      0.201609  
     507A      0.203472   508A      0.203936   509A      0.206384  
     510A      0.207907   511A      0.208134   512A      0.209345  
     513A      0.209471   514A      0.211038   515A      0.211288  
     516A      0.212337   517A      0.212847   518A      0.213475  
     519A      0.214107   520A      0.218917   521A      0.219462  
     522A      0.220428   523A      0.220649   524A      0.221030  
     525A      0.221634   526A      0.222966   527A      0.225088  
     528A      0.226113   529A      0.227040   530A      0.227180  
     531A      0.228035   532A      0.229514   533A      0.230136  
     534A      0.230297   535A      0.230846   536A      0.232405  
     537A      0.233068   538A      0.234290   539A      0.235798  
     540A      0.236586   541A      0.237246   542A      0.237612  
     543A      0.238594   544A      0.239532   545A      0.240381  
     546A      0.244130   547A      0.245473   548A      0.246639  
     549A      0.247864   550A      0.248264   551A      0.248481  
     552A      0.249123   553A      0.249899   554A      0.251805  
     555A      0.253045   556A      0.255132   557A      0.256246  
     558A      0.257093   559A      0.258390   560A      0.258664  
     561A      0.259405   562A      0.260108   563A      0.261439  
     564A      0.262537   565A      0.262861   566A      0.263191  
     567A      0.263841   568A      0.264859   569A      0.265244  
     570A      0.267162   571A      0.267598   572A      0.268562  
     573A      0.270129   574A      0.271027   575A      0.272887  
     576A      0.273052   577A      0.273356   578A      0.274144  
     579A      0.274979   580A      0.275646   581A      0.276270  
     582A      0.277079   583A      0.277635   584A      0.278760  
     585A      0.279279   586A      0.280954   587A      0.282645  
     588A      0.283615   589A      0.284089   590A      0.284530  
     591A      0.287895   592A      0.288612   593A      0.288912  
     594A      0.289490   595A      0.289845   596A      0.290183  
     597A      0.291315   598A      0.291889   599A      0.293006  
     600A      0.295878   601A      0.296677   602A      0.297248  
     603A      0.297443   604A      0.301236   605A      0.301402  
     606A      0.303154   607A      0.303977   608A      0.304306  
     609A      0.305659   610A      0.306446   611A      0.307781  
     612A      0.308686   613A      0.309206   614A      0.309982  
     615A      0.310305   616A      0.311010   617A      0.311486  
     618A      0.312111   619A      0.313630   620A      0.317377  
     621A      0.319644   622A      0.320294   623A      0.320981  
     624A      0.322325   625A      0.322627   626A      0.322780  
     627A      0.324190   628A      0.324577   629A      0.325255  
     630A      0.325440   631A      0.326697   632A      0.327009  
     633A      0.329830   634A      0.330312   635A      0.330538  
     636A      0.331754   637A      0.334032   638A      0.335152  
     639A      0.335183   640A      0.335600   641A      0.335863  
     642A      0.336371   643A      0.336601   644A      0.337557  
     645A      0.338427   646A      0.339104   647A      0.340141  
     648A      0.341524   649A      0.342493   650A      0.342862  
     651A      0.343350   652A      0.343984   653A      0.344897  
     654A      0.345627   655A      0.346064   656A      0.346488  
     657A      0.347084   658A      0.348365   659A      0.348644  
     660A      0.350642   661A      0.351553   662A      0.352139  
     663A      0.354870   664A      0.355780   665A      0.356449  
     666A      0.356477   667A      0.356598   668A      0.357769  
     669A      0.358933   670A      0.360908   671A      0.361965  
     672A      0.363242   673A      0.363813   674A      0.365472  
     675A      0.365865   676A      0.366602   677A      0.368348  
     678A      0.368957   679A      0.370091   680A      0.370439  
     681A      0.370526   682A      0.372218   683A      0.373096  
     684A      0.373260   685A      0.375486   686A      0.376289  
     687A      0.376325   688A      0.377893   689A      0.378861  
     690A      0.379718   691A      0.380652   692A      0.382030  
     693A      0.382690   694A      0.384168   695A      0.388253  
     696A      0.388761   697A      0.390897   698A      0.391436  
     699A      0.392072   700A      0.392491   701A      0.392662  
     702A      0.393449   703A      0.395192   704A      0.395515  
     705A      0.395919   706A      0.397205   707A      0.398103  
     708A      0.398617   709A      0.401093   710A      0.403162  
     711A      0.404469   712A      0.404935   713A      0.405286  
     714A      0.405834   715A      0.406548   716A      0.406690  
     717A      0.407913   718A      0.408328   719A      0.409265  
     720A      0.410385   721A      0.411361   722A      0.411489  
     723A      0.412803   724A      0.413150   725A      0.414732  
     726A      0.415565   727A      0.415972   728A      0.416586  
     729A      0.417927   730A      0.418270   731A      0.418530  
     732A      0.421124   733A      0.426241   734A      0.427034  
     735A      0.428028   736A      0.429362   737A      0.429837  
     738A      0.431012   739A      0.431888   740A      0.433121  
     741A      0.435274   742A      0.435721   743A      0.436095  
     744A      0.437929   745A      0.438306   746A      0.438932  
     747A      0.440933   748A      0.442318   749A      0.444095  
     750A      0.444474   751A      0.445814   752A      0.446121  
     753A      0.446352   754A      0.448600   755A      0.453097  
     756A      0.454270   757A      0.454822   758A      0.455332  
     759A      0.457148   760A      0.457932   761A      0.458495  
     762A      0.458679   763A      0.460033   764A      0.461190  
     765A      0.462990   766A      0.464020   767A      0.465156  
     768A      0.465912   769A      0.467981   770A      0.469658  
     771A      0.470541   772A      0.471141   773A      0.472042  
     774A      0.476413   775A      0.478757   776A      0.478836  
     777A      0.479336   778A      0.480262   779A      0.481864  
     780A      0.484404   781A      0.485599   782A      0.487104  
     783A      0.493674   784A      0.494228   785A      0.496019  
     786A      0.498012   787A      0.501254   788A      0.502437  
     789A      0.502920   790A      0.504241   791A      0.504782  
     792A      0.505152   793A      0.506711   794A      0.507295  
     795A      0.507999   796A      0.508375   797A      0.510922  
     798A      0.512489   799A      0.514298   800A      0.515030  
     801A      0.515705   802A      0.517105   803A      0.518543  
     804A      0.519481   805A      0.520652   806A      0.520952  
     807A      0.522461   808A      0.523521   809A      0.528415  
     810A      0.528974   811A      0.529324   812A      0.530901  
     813A      0.532601   814A      0.534886   815A      0.535569  
     816A      0.537221   817A      0.539299   818A      0.541417  
     819A      0.543211   820A      0.544043   821A      0.544397  
     822A      0.546491   823A      0.549964   824A      0.554498  
     825A      0.556938   826A      0.560156   827A      0.561788  
     828A      0.563514   829A      0.564512   830A      0.565143  
     831A      0.567843   832A      0.569916   833A      0.570406  
     834A      0.576628   835A      0.579089   836A      0.585167  
     837A      0.586345   838A      0.587129   839A      0.592289  
     840A      0.592983   841A      0.593956   842A      0.594973  
     843A      0.597616   844A      0.598326   845A      0.598667  
     846A      0.603996   847A      0.604113   848A      0.606716  
     849A      0.607667   850A      0.617694   851A      0.620480  
     852A      0.623169   853A      0.625882   854A      0.626499  
     855A      0.627420   856A      0.629052   857A      0.629561  
     858A      0.632750   859A      0.635095   860A      0.635651  
     861A      0.636557   862A      0.637335   863A      0.640937  
     864A      0.644022   865A      0.647195   866A      0.650224  
     867A      0.656916   868A      0.663128   869A      0.667069  
     870A      0.671682   871A      0.673036   872A      0.677381  
     873A      0.679095   874A      0.679502   875A      0.680328  
     876A      0.682212   877A      0.683329   878A      0.686866  
     879A      0.688330   880A      0.692129   881A      0.702599  
     882A      0.713877   883A      0.714974   884A      0.719219  
     885A      0.724060   886A      0.724638   887A      0.726983  
     888A      0.728917   889A      0.729940   890A      0.732211  
     891A      0.733545   892A      0.734554   893A      0.736334  
     894A      0.740600   895A      0.741663   896A      0.745636  
     897A      0.746507   898A      0.749185   899A      0.750770  
     900A      0.752581   901A      0.752859   902A      0.753609  
     903A      0.756036   904A      0.758012   905A      0.760673  
     906A      0.761434   907A      0.762226   908A      0.762857  
     909A      0.765500   910A      0.767089   911A      0.769517  
     912A      0.771540   913A      0.772776   914A      0.773654  
     915A      0.776601   916A      0.776863   917A      0.779464  
     918A      0.785256   919A      0.786260   920A      0.787021  
     921A      0.787310   922A      0.788740   923A      0.790064  
     924A      0.792622   925A      0.793622   926A      0.796527  
     927A      0.798086   928A      0.801192   929A      0.801263  
     930A      0.802761   931A      0.807162   932A      0.808267  
     933A      0.808904   934A      0.809369   935A      0.811466  
     936A      0.813331   937A      0.813827   938A      0.815878  
     939A      0.816566   940A      0.817951   941A      0.822136  
     942A      0.824174   943A      0.825107   944A      0.825594  
     945A      0.826874   946A      0.828746   947A      0.829319  
     948A      0.830946   949A      0.832856   950A      0.833170  
     951A      0.836714   952A      0.839322   953A      0.840335  
     954A      0.843128   955A      0.844484   956A      0.846082  
     957A      0.847246   958A      0.847778   959A      0.850627  
     960A      0.852447   961A      0.856634   962A      0.857745  
     963A      0.858415   964A      0.858639   965A      0.859273  
     966A      0.860434   967A      0.861676   968A      0.862387  
     969A      0.862737   970A      0.865966   971A      0.868241  
     972A      0.868863   973A      0.870433   974A      0.871767  
     975A      0.873791   976A      0.874912   977A      0.876664  
     978A      0.877357   979A      0.878336   980A      0.878741  
     981A      0.881566   982A      0.883893   983A      0.885214  
     984A      0.887311   985A      0.888768   986A      0.889179  
     987A      0.891408   988A      0.892511   989A      0.892858  
     990A      0.894331   991A      0.895703   992A      0.896774  
     993A      0.897522   994A      0.898188   995A      0.898832  
     996A      0.899224   997A      0.903540   998A      0.907458  
     999A      0.908396  1000A      0.909427  1001A      0.911396  
    1002A      0.911623  1003A      0.913417  1004A      0.916313  
    1005A      0.920878  1006A      0.924430  1007A      0.925395  
    1008A      0.926621  1009A      0.929678  1010A      0.932281  
    1011A      0.932442  1012A      0.933369  1013A      0.934935  
    1014A      0.936571  1015A      0.939986  1016A      0.941364  
    1017A      0.941808  1018A      0.942811  1019A      0.944408  
    1020A      0.945111  1021A      0.946717  1022A      0.949955  
    1023A      0.950397  1024A      0.950778  1025A      0.954643  
    1026A      0.955438  1027A      0.956688  1028A      0.957459  
    1029A      0.962308  1030A      0.963178  1031A      0.963510  
    1032A      0.964589  1033A      0.968895  1034A      0.970240  
    1035A      0.970983  1036A      0.973306  1037A      0.974282  
    1038A      0.975722  1039A      0.976421  1040A      0.977816  
    1041A      0.982352  1042A      0.984375  1043A      0.985628  
    1044A      0.985940  1045A      0.986681  1046A      0.987148  
    1047A      0.988750  1048A      0.989003  1049A      0.990025  
    1050A      0.990868  1051A      0.994007  1052A      0.994695  
    1053A      0.994921  1054A      0.997009  1055A      0.997394  
    1056A      0.999358  1057A      1.000696  1058A      1.001134  
    1059A      1.003967  1060A      1.004244  1061A      1.005219  
    1062A      1.005986  1063A      1.007891  1064A      1.008073  
    1065A      1.008774  1066A      1.009538  1067A      1.010531  
    1068A      1.011436  1069A      1.012190  1070A      1.012563  
    1071A      1.013580  1072A      1.013844  1073A      1.013939  
    1074A      1.015281  1075A      1.016262  1076A      1.017320  
    1077A      1.017970  1078A      1.018662  1079A      1.019026  
    1080A      1.021028  1081A      1.021518  1082A      1.023246  
    1083A      1.023758  1084A      1.024900  1085A      1.025870  
    1086A      1.026227  1087A      1.027395  1088A      1.027868  
    1089A      1.028642  1090A      1.030260  1091A      1.031089  
    1092A      1.032200  1093A      1.033043  1094A      1.033402  
    1095A      1.034493  1096A      1.036579  1097A      1.038896  
    1098A      1.039246  1099A      1.040366  1100A      1.042702  
    1101A      1.044333  1102A      1.044977  1103A      1.045863  
    1104A      1.049593  1105A      1.050754  1106A      1.052856  
    1107A      1.053721  1108A      1.054536  1109A      1.054914  
    1110A      1.057050  1111A      1.058063  1112A      1.059687  
    1113A      1.064918  1114A      1.065861  1115A      1.068790  
    1116A      1.070203  1117A      1.070871  1118A      1.070994  
    1119A      1.071520  1120A      1.072375  1121A      1.073413  
    1122A      1.074466  1123A      1.077851  1124A      1.079824  
    1125A      1.082351  1126A      1.084388  1127A      1.086729  
    1128A      1.087303  1129A      1.087844  1130A      1.088996  
    1131A      1.089318  1132A      1.089589  1133A      1.092707  
    1134A      1.094048  1135A      1.095000  1136A      1.097593  
    1137A      1.098605  1138A      1.102043  1139A      1.104286  
    1140A      1.104533  1141A      1.105926  1142A      1.107319  
    1143A      1.109131  1144A      1.110591  1145A      1.113373  
    1146A      1.115299  1147A      1.119792  1148A      1.119932  
    1149A      1.121413  1150A      1.123208  1151A      1.123344  
    1152A      1.126176  1153A      1.129161  1154A      1.132540  
    1155A      1.133209  1156A      1.135104  1157A      1.137244  
    1158A      1.139758  1159A      1.141150  1160A      1.142227  
    1161A      1.142916  1162A      1.146842  1163A      1.149489  
    1164A      1.150323  1165A      1.153159  1166A      1.154314  
    1167A      1.157617  1168A      1.158516  1169A      1.159729  
    1170A      1.161768  1171A      1.162762  1172A      1.165995  
    1173A      1.167484  1174A      1.168594  1175A      1.169836  
    1176A      1.174572  1177A      1.177902  1178A      1.182156  
    1179A      1.182732  1180A      1.183700  1181A      1.187853  
    1182A      1.190479  1183A      1.190975  1184A      1.195862  
    1185A      1.196540  1186A      1.200294  1187A      1.200613  
    1188A      1.201449  1189A      1.203150  1190A      1.204542  
    1191A      1.208648  1192A      1.212230  1193A      1.212449  
    1194A      1.215455  1195A      1.221942  1196A      1.225524  
    1197A      1.226649  1198A      1.228104  1199A      1.229687  
    1200A      1.230431  1201A      1.232889  1202A      1.233451  
    1203A      1.234862  1204A      1.235997  1205A      1.237146  
    1206A      1.243242  1207A      1.243905  1208A      1.246603  
    1209A      1.247696  1210A      1.248927  1211A      1.252082  
    1212A      1.253645  1213A      1.255249  1214A      1.257921  
    1215A      1.258758  1216A      1.259864  1217A      1.260377  
    1218A      1.260686  1219A      1.264518  1220A      1.266595  
    1221A      1.267910  1222A      1.271167  1223A      1.271657  
    1224A      1.272454  1225A      1.274569  1226A      1.275311  
    1227A      1.277341  1228A      1.277631  1229A      1.280799  
    1230A      1.282974  1231A      1.290517  1232A      1.291514  
    1233A      1.291779  1234A      1.293989  1235A      1.296999  
    1236A      1.298614  1237A      1.299131  1238A      1.303331  
    1239A      1.304133  1240A      1.304813  1241A      1.307816  
    1242A      1.308569  1243A      1.311711  1244A      1.314876  
    1245A      1.316538  1246A      1.316818  1247A      1.324297  
    1248A      1.326780  1249A      1.328904  1250A      1.333987  
    1251A      1.335200  1252A      1.336013  1253A      1.336410  
    1254A      1.339700  1255A      1.345415  1256A      1.346127  
    1257A      1.346674  1258A      1.347643  1259A      1.348300  
    1260A      1.350894  1261A      1.353838  1262A      1.354171  
    1263A      1.354825  1264A      1.356100  1265A      1.360467  
    1266A      1.364982  1267A      1.365566  1268A      1.367031  
    1269A      1.367514  1270A      1.369451  1271A      1.371274  
    1272A      1.373651  1273A      1.375516  1274A      1.375933  
    1275A      1.376531  1276A      1.378062  1277A      1.379189  
    1278A      1.379915  1279A      1.382864  1280A      1.386496  
    1281A      1.388027  1282A      1.389382  1283A      1.390225  
    1284A      1.392175  1285A      1.394094  1286A      1.396938  
    1287A      1.400947  1288A      1.407267  1289A      1.408723  
    1290A      1.409950  1291A      1.411025  1292A      1.412586  
    1293A      1.413585  1294A      1.414475  1295A      1.422504  
    1296A      1.423241  1297A      1.425651  1298A      1.426288  
    1299A      1.429967  1300A      1.434095  1301A      1.436340  
    1302A      1.436880  1303A      1.439354  1304A      1.441207  
    1305A      1.442950  1306A      1.443929  1307A      1.451859  
    1308A      1.456581  1309A      1.457975  1310A      1.472036  
    1311A      1.478749  1312A      1.478846  1313A      1.487874  
    1314A      1.488789  1315A      1.488994  1316A      1.498764  
    1317A      1.508417  1318A      1.515845  1319A      1.522000  
    1320A      1.528835  1321A      1.530319  1322A      1.533097  
    1323A      1.536471  1324A      1.539607  1325A      1.540400  
    1326A      1.541371  1327A      1.542086  1328A      1.544444  
    1329A      1.546252  1330A      1.547229  1331A      1.548479  
    1332A      1.549125  1333A      1.550204  1334A      1.550973  
    1335A      1.553276  1336A      1.553976  1337A      1.555768  
    1338A      1.558698  1339A      1.560361  1340A      1.561671  
    1341A      1.562627  1342A      1.564841  1343A      1.566127  
    1344A      1.567209  1345A      1.568631  1346A      1.569781  
    1347A      1.571115  1348A      1.572860  1349A      1.573846  
    1350A      1.575545  1351A      1.575683  1352A      1.577724  
    1353A      1.579502  1354A      1.580836  1355A      1.581672  
    1356A      1.585576  1357A      1.587716  1358A      1.588539  
    1359A      1.590548  1360A      1.591531  1361A      1.592947  
    1362A      1.593313  1363A      1.595554  1364A      1.598595  
    1365A      1.599818  1366A      1.601340  1367A      1.602157  
    1368A      1.603037  1369A      1.603532  1370A      1.604596  
    1371A      1.605775  1372A      1.606937  1373A      1.608420  
    1374A      1.612743  1375A      1.613047  1376A      1.613872  
    1377A      1.615442  1378A      1.617580  1379A      1.622801  
    1380A      1.625633  1381A      1.629097  1382A      1.631219  
    1383A      1.633102  1384A      1.634014  1385A      1.635232  
    1386A      1.636247  1387A      1.640044  1388A      1.645260  
    1389A      1.646266  1390A      1.647719  1391A      1.651116  
    1392A      1.651514  1393A      1.653381  1394A      1.655892  
    1395A      1.657589  1396A      1.657884  1397A      1.658637  
    1398A      1.660864  1399A      1.662293  1400A      1.663557  
    1401A      1.665241  1402A      1.676527  1403A      1.679244  
    1404A      1.684525  1405A      1.685209  1406A      1.685687  
    1407A      1.688453  1408A      1.688631  1409A      1.700332  
    1410A      1.701480  1411A      1.705864  1412A      1.707712  
    1413A      1.716093  1414A      1.717028  1415A      1.725655  
    1416A      1.726435  1417A      1.726592  1418A      1.734091  
    1419A      1.736447  1420A      1.736756  1421A      1.742992  
    1422A      1.754686  1423A      1.758227  1424A      1.761201  
    1425A      1.762337  1426A      1.765801  1427A      1.766828  
    1428A      1.767038  1429A      1.768677  1430A      1.769513  
    1431A      1.771471  1432A      1.772611  1433A      1.773879  
    1434A      1.776476  1435A      1.778999  1436A      1.781503  
    1437A      1.784168  1438A      1.787882  1439A      1.792399  
    1440A      1.795423  1441A      1.795800  1442A      1.798222  
    1443A      1.798267  1444A      1.799195  1445A      1.799385  
    1446A      1.800468  1447A      1.805348  1448A      1.806465  
    1449A      1.809638  1450A      1.811192  1451A      1.813654  
    1452A      1.814594  1453A      1.814926  1454A      1.819465  
    1455A      1.820680  1456A      1.820765  1457A      1.821366  
    1458A      1.822486  1459A      1.823036  1460A      1.824212  
    1461A      1.824789  1462A      1.825526  1463A      1.827088  
    1464A      1.830123  1465A      1.836530  1466A      1.840493  
    1467A      1.840868  1468A      1.844558  1469A      1.846324  
    1470A      1.847590  1471A      1.849580  1472A      1.852408  
    1473A      1.853688  1474A      1.855559  1475A      1.857284  
    1476A      1.858303  1477A      1.858975  1478A      1.860043  
    1479A      1.861675  1480A      1.862372  1481A      1.863544  
    1482A      1.868087  1483A      1.872622  1484A      1.874481  
    1485A      1.875158  1486A      1.877663  1487A      1.878747  
    1488A      1.879936  1489A      1.882586  1490A      1.884016  
    1491A      1.884632  1492A      1.886530  1493A      1.886972  
    1494A      1.890357  1495A      1.890807  1496A      1.892113  
    1497A      1.894920  1498A      1.896441  1499A      1.898978  
    1500A      1.899526  1501A      1.902337  1502A      1.903257  
    1503A      1.905070  1504A      1.905384  1505A      1.909238  
    1506A      1.910118  1507A      1.910606  1508A      1.911560  
    1509A      1.912972  1510A      1.919304  1511A      1.921237  
    1512A      1.922839  1513A      1.924866  1514A      1.926829  
    1515A      1.930716  1516A      1.931089  1517A      1.931711  
    1518A      1.932109  1519A      1.933485  1520A      1.935432  
    1521A      1.944756  1522A      1.946118  1523A      1.948616  
    1524A      1.948989  1525A      1.950925  1526A      1.953817  
    1527A      1.954706  1528A      1.955927  1529A      1.956669  
    1530A      1.957377  1531A      1.958296  1532A      1.959316  
    1533A      1.962196  1534A      1.963901  1535A      1.965625  
    1536A      1.967977  1537A      1.968836  1538A      1.971569  
    1539A      1.974183  1540A      1.976038  1541A      1.978738  
    1542A      1.980632  1543A      1.981703  1544A      1.982201  
    1545A      1.988201  1546A      1.990624  1547A      1.991774  
    1548A      1.992273  1549A      1.993354  1550A      1.996143  
    1551A      1.997451  1552A      1.998759  1553A      1.999482  
    1554A      2.002975  1555A      2.005339  1556A      2.006980  
    1557A      2.008175  1558A      2.008244  1559A      2.008759  
    1560A      2.013359  1561A      2.016426  1562A      2.017638  
    1563A      2.018746  1564A      2.019483  1565A      2.020830  
    1566A      2.021097  1567A      2.023220  1568A      2.024252  
    1569A      2.024931  1570A      2.025831  1571A      2.026660  
    1572A      2.027912  1573A      2.028897  1574A      2.029856  
    1575A      2.030650  1576A      2.030745  1577A      2.032346  
    1578A      2.033918  1579A      2.034689  1580A      2.036574  
    1581A      2.038311  1582A      2.039496  1583A      2.039971  
    1584A      2.042580  1585A      2.045313  1586A      2.048126  
    1587A      2.049859  1588A      2.049940  1589A      2.051715  
    1590A      2.051996  1591A      2.054893  1592A      2.055917  
    1593A      2.056717  1594A      2.056977  1595A      2.059935  
    1596A      2.062575  1597A      2.063529  1598A      2.064723  
    1599A      2.066837  1600A      2.067092  1601A      2.067591  
    1602A      2.068836  1603A      2.069645  1604A      2.071051  
    1605A      2.075177  1606A      2.076918  1607A      2.078720  
    1608A      2.079904  1609A      2.082114  1610A      2.083641  
    1611A      2.084079  1612A      2.085874  1613A      2.088615  
    1614A      2.091720  1615A      2.092805  1616A      2.094601  
    1617A      2.096519  1618A      2.096987  1619A      2.100454  
    1620A      2.101861  1621A      2.102445  1622A      2.103402  
    1623A      2.106312  1624A      2.108750  1625A      2.110154  
    1626A      2.115526  1627A      2.117658  1628A      2.118249  
    1629A      2.120366  1630A      2.120693  1631A      2.122173  
    1632A      2.124378  1633A      2.125590  1634A      2.127800  
    1635A      2.128292  1636A      2.129534  1637A      2.132010  
    1638A      2.133393  1639A      2.135082  1640A      2.136585  
    1641A      2.138284  1642A      2.139147  1643A      2.140179  
    1644A      2.144719  1645A      2.145992  1646A      2.147856  
    1647A      2.151389  1648A      2.152442  1649A      2.153539  
    1650A      2.155856  1651A      2.156147  1652A      2.160038  
    1653A      2.161237  1654A      2.162007  1655A      2.165485  
    1656A      2.166033  1657A      2.166726  1658A      2.170047  
    1659A      2.170714  1660A      2.173044  1661A      2.174340  
    1662A      2.174876  1663A      2.177633  1664A      2.180570  
    1665A      2.183292  1666A      2.188202  1667A      2.189351  
    1668A      2.195378  1669A      2.196267  1670A      2.202834  
    1671A      2.204046  1672A      2.205130  1673A      2.205244  
    1674A      2.206438  1675A      2.209179  1676A      2.211282  
    1677A      2.214461  1678A      2.219930  1679A      2.220819  
    1680A      2.227376  1681A      2.228336  1682A      2.231310  
    1683A      2.231584  1684A      2.235267  1685A      2.236690  
    1686A      2.242378  1687A      2.243208  1688A      2.247946  
    1689A      2.248428  1690A      2.261154  1691A      2.262286  
    1692A      2.262556  1693A      2.264445  1694A      2.266143  
    1695A      2.266970  1696A      2.268208  1697A      2.269014  
    1698A      2.269788  1699A      2.271619  1700A      2.271933  
    1701A      2.275482  1702A      2.278502  1703A      2.278955  
    1704A      2.279598  1705A      2.279960  1706A      2.280350  
    1707A      2.282060  1708A      2.284444  1709A      2.285397  
    1710A      2.289318  1711A      2.302738  1712A      2.305971  
    1713A      2.310215  1714A      2.321830  1715A      2.325582  
    1716A      2.326548  1717A      2.328544  1718A      2.332663  
    1719A      2.334572  1720A      2.337344  1721A      2.355711  
    1722A      2.356893  1723A      2.359211  1724A      2.364528  
    1725A      2.365452  1726A      2.368239  1727A      2.380485  
    1728A      2.381722  1729A      2.388195  1730A      2.388315  
    1731A      2.396866  1732A      2.401964  1733A      2.402826  
    1734A      2.405744  1735A      2.405762  1736A      2.409583  
    1737A      2.409992  1738A      2.411692  1739A      2.430105  
    1740A      2.430572  1741A      2.431898  1742A      2.440924  
    1743A      2.446989  1744A      2.447826  1745A      2.450158  
    1746A      2.456202  1747A      2.475180  1748A      2.476494  
    1749A      2.478178  1750A      2.480259  1751A      2.480949  
    1752A      2.481923  1753A      2.485075  1754A      2.487133  
    1755A      2.487860  1756A      2.488840  1757A      2.490309  
    1758A      2.490947  1759A      2.501243  1760A      2.507793  
    1761A      2.509134  1762A      2.512053  1763A      2.520826  
    1764A      2.522507  1765A      2.524035  1766A      2.525308  
    1767A      2.525962  1768A      2.529370  1769A      2.529723  
    1770A      2.530799  1771A      2.535123  1772A      2.537568  
    1773A      2.539677  1774A      2.541513  1775A      2.549498  
    1776A      2.550981  1777A      2.552875  1778A      2.553126  
    1779A      2.554260  1780A      2.556892  1781A      2.557006  
    1782A      2.569852  1783A      2.578134  1784A      2.580658  
    1785A      2.581174  1786A      2.582633  1787A      2.585089  
    1788A      2.585990  1789A      2.588697  1790A      2.593994  
    1791A      2.595834  1792A      2.597526  1793A      2.599428  
    1794A      2.603841  1795A      2.607622  1796A      2.608113  
    1797A      2.610438  1798A      2.610813  1799A      2.617360  
    1800A      2.618592  1801A      2.622988  1802A      2.624333  
    1803A      2.625001  1804A      2.627829  1805A      2.628407  
    1806A      2.629380  1807A      2.630469  1808A      2.633546  
    1809A      2.634469  1810A      2.637391  1811A      2.644205  
    1812A      2.662009  1813A      2.667872  1814A      2.668345  
    1815A      2.669912  1816A      2.671471  1817A      2.671685  
    1818A      2.674798  1819A      2.688684  1820A      2.693706  
    1821A      2.693828  1822A      2.708914  1823A      2.709498  
    1824A      2.716024  1825A      2.716741  1826A      2.720134  
    1827A      2.726546  1828A      2.734472  1829A      2.734965  
    1830A      2.736942  1831A      2.737688  1832A      2.737832  
    1833A      2.746375  1834A      2.747491  1835A      2.749337  
    1836A      2.750459  1837A      2.752810  1838A      2.753378  
    1839A      2.756909  1840A      2.764255  1841A      2.768215  
    1842A      2.773699  1843A      2.775410  1844A      2.778999  
    1845A      2.781552  1846A      2.782975  1847A      2.784634  
    1848A      2.790544  1849A      2.794387  1850A      2.797418  
    1851A      2.801068  1852A      2.801764  1853A      2.805945  
    1854A      2.809377  1855A      2.813086  1856A      2.818230  
    1857A      2.827877  1858A      2.828794  1859A      2.835699  
    1860A      2.857113  1861A      2.858083  1862A      2.859127  
    1863A      2.869307  1864A      2.870513  1865A      2.874393  
    1866A      2.874996  1867A      2.898391  1868A      2.902559  
    1869A      2.905830  1870A      2.906436  1871A      2.915921  
    1872A      2.931933  1873A      2.933826  1874A      2.960434  
    1875A      2.965767  1876A      2.966420  1877A      2.977651  
    1878A      2.979797  1879A      2.985282  1880A      2.986396  
    1881A      2.990262  1882A      2.993863  1883A      2.994276  
    1884A      3.009105  1885A      3.010063  1886A      3.034405  
    1887A      3.050466  1888A      3.053070  1889A      3.053359  
    1890A      3.061279  1891A      3.065961  1892A      3.067125  
    1893A      3.071054  1894A      3.072606  1895A      3.081628  
    1896A      3.082970  1897A      3.087190  1898A      3.087481  
    1899A      3.089864  1900A      3.091162  1901A      3.093371  
    1902A      3.096553  1903A      3.102187  1904A      3.102388  
    1905A      3.109668  1906A      3.113828  1907A      3.116771  
    1908A      3.129573  1909A      3.133735  1910A      3.133999  
    1911A      3.160617  1912A      3.194547  1913A      3.198078  
    1914A      3.198722  1915A      3.200849  1916A      3.202621  
    1917A      3.204133  1918A      3.207453  1919A      3.210904  
    1920A      3.214108  1921A      3.215018  1922A      3.236584  
    1923A      3.237386  1924A      3.238056  1925A      3.250856  
    1926A      3.297123  1927A      3.298343  1928A      3.323245  
    1929A      3.352309  1930A      3.361230  1931A      3.370619  
    1932A      3.379313  1933A      3.384025  1934A      3.389149  
    1935A      3.398127  1936A      3.400875  1937A      3.405686  
    1938A      3.408577  1939A      3.413056  1940A      3.422284  
    1941A      3.423261  1942A      3.434810  1943A      3.446105  
    1944A      3.478138  1945A      3.501959  1946A      3.513259  
    1947A      3.514223  1948A      3.521439  1949A      3.528177  
    1950A      3.578422  1951A      3.583774  1952A      3.585404  
    1953A      3.604070  1954A      3.606520  1955A      3.642044  
    1956A      3.686301  1957A      3.689174  1958A      3.690804  
    1959A      3.705716  1960A      3.716735  1961A      3.717115  
    1962A      3.781417  1963A      3.783534  1964A      3.809914  
    1965A      3.812569  1966A      3.845094  1967A      3.857019  
    1968A      3.872961  1969A      3.879993  1970A      3.884841  
    1971A      3.886505  1972A      3.900203  1973A      3.902588  
    1974A      3.910293  1975A      3.958218  1976A      3.960442  
    1977A      4.010619  1978A      4.178352  1979A      4.268154  
    1980A      4.334286  

    Final Occupation by Irrep:
              A 
    DOCC [   326 ]
    NA   [   326 ]
    NB   [   326 ]

  @DF-RHF Final Energy: -3953.66066522318033

   => Energetics <=

    Nuclear Repulsion Energy =          18140.7215426265684073
    One-Electron Energy =              -41487.3535775192140136
    Two-Electron Energy =               19392.9713696694670944
    Total Energy =                      -3953.6606652231785120

Computation Completed


Properties will be evaluated at   0.000000,   0.000000,   0.000000 [a0]

Properties computed using the SCF density matrix


 Multipole Moments:

 ------------------------------------------------------------------------------------
     Multipole            Electronic (a.u.)      Nuclear  (a.u.)        Total (a.u.)
 ------------------------------------------------------------------------------------

 L = 1.  Multiply by 2.5417464519 to convert [e a0] to [Debye]
 Dipole X            :         -0.0025900            0.0004804           -0.0021096
 Dipole Y            :         -0.0514141            0.0561130            0.0046989
 Dipole Z            :         20.9691002          -27.2651866           -6.2960863
 Magnitude           :                                                    6.2960884

 ------------------------------------------------------------------------------------

*** tstop() called on n2cn0374 at Sat Jan 27 01:14:41 2024
Module time:
	user time   =   27689.48 seconds =     461.49 minutes
	system time =    1755.55 seconds =      29.26 minutes
	total time  =       4724 seconds =      78.73 minutes
Total time:
	user time   =   27689.48 seconds =     461.49 minutes
	system time =    1755.55 seconds =      29.26 minutes
	total time  =       4724 seconds =      78.73 minutes

  //>>>>>>>>>>>>>>>>>>>>>>>>>>>>>>>>>>>//
  //            Monomer A HF           //
  //<<<<<<<<<<<<<<<<<<<<<<<<<<<<<<<<<<<//

   => Libint2 <=

    Primary   basis highest AM E, G, H:  5, 4, 3
    Auxiliary basis highest AM E, G, H:  6, 5, 4
    Onebody   basis highest AM E, G, H:  6, 5, 4
    Solid Harmonics ordering:            gaussian

*** tstart() called on n2cn0374
*** at Sat Jan 27 01:14:41 2024

   => Loading Basis Set <=

    Name: JUN-CC-PVDZ
    Role: ORBITAL
    Keyword: BASIS
    atoms 1-2, 4-5, 10, 17-34, 41-53, 56-70, 73-89, 92-104, 109-119, 122-130 entry C          line   164 file /opt/software/pc2/EB-SW/software/PSI4/1.9-foss-2022a/share/psi4/basis/jun-cc-pvdz.gbs 
    atoms 3, 6                                                               entry N          line   198 file /opt/software/pc2/EB-SW/software/PSI4/1.9-foss-2022a/share/psi4/basis/jun-cc-pvdz.gbs 
    atoms 7-9, 11-16, 35-40, 54-55, 71-72, 90-91, 105-108, 120-121, 131-136  entry H          line    36 file /opt/software/pc2/EB-SW/software/PSI4/1.9-foss-2022a/share/psi4/basis/jun-cc-pvdz.gbs 


         ---------------------------------------------------------
                                   SCF
               by Justin Turney, Rob Parrish, Andy Simmonett
                          and Daniel G. A. Smith
                              RHF Reference
                       16 Threads,  61035 MiB Core
         ---------------------------------------------------------

  ==> Geometry <==

    Molecular point group: c1
    Full point group: C1

    Geometry (in Angstrom), charge = 1, multiplicity = 1:

       Center              X                  Y                   Z               Mass       
    ------------   -----------------  -----------------  -----------------  -----------------
         C            0.680062820275    -0.008027535675    -5.649971854981    12.000000000000
         C           -0.680508179725    -0.005999535675    -5.649587854981    12.000000000000
         N           -1.085639179725    -0.005001535675    -4.331263854981    14.003074004430
[...]
    1585A      2.192699  1586A      2.195510  1587A      2.196282  
    1588A      2.197887  1589A      2.198491  1590A      2.200007  
    1591A      2.201189  1592A      2.201551  1593A      2.203351  
    1594A      2.204762  1595A      2.206813  1596A      2.209350  
    1597A      2.210502  1598A      2.212461  1599A      2.213484  
    1600A      2.218646  1601A      2.220208  1602A      2.220632  
    1603A      2.222910  1604A      2.222968  1605A      2.225115  
    1606A      2.225893  1607A      2.228336  1608A      2.229593  
    1609A      2.230119  1610A      2.232202  1611A      2.233909  
    1612A      2.234552  1613A      2.238312  1614A      2.239166  
    1615A      2.240455  1616A      2.241058  1617A      2.242430  
    1618A      2.247071  1619A      2.248933  1620A      2.250268  
    1621A      2.251574  1622A      2.257148  1623A      2.261908  
    1624A      2.263772  1625A      2.265389  1626A      2.267768  
    1627A      2.269075  1628A      2.269991  1629A      2.275015  
    1630A      2.283131  1631A      2.284110  1632A      2.284832  
    1633A      2.290858  1634A      2.292230  1635A      2.294688  
    1636A      2.297001  1637A      2.297644  1638A      2.304401  
    1639A      2.305161  1640A      2.307633  1641A      2.308292  
    1642A      2.323544  1643A      2.324554  1644A      2.325443  
    1645A      2.327189  1646A      2.327832  1647A      2.330087  
    1648A      2.330947  1649A      2.331382  1650A      2.333551  
    1651A      2.335526  1652A      2.336738  1653A      2.339836  
    1654A      2.341359  1655A      2.342423  1656A      2.342819  
    1657A      2.343145  1658A      2.345504  1659A      2.345977  
    1660A      2.346357  1661A      2.348699  1662A      2.352018  
    1663A      2.355284  1664A      2.368099  1665A      2.372598  
    1666A      2.374919  1667A      2.380838  1668A      2.383122  
    1669A      2.384726  1670A      2.389017  1671A      2.390402  
    1672A      2.396045  1673A      2.397330  1674A      2.398563  
    1675A      2.405561  1676A      2.410851  1677A      2.418716  
    1678A      2.421420  1679A      2.426626  1680A      2.428134  
    1681A      2.431258  1682A      2.434441  1683A      2.442994  
    1684A      2.447393  1685A      2.453281  1686A      2.454996  
    1687A      2.463749  1688A      2.464842  1689A      2.468164  
    1690A      2.468379  1691A      2.470389  1692A      2.472083  
    1693A      2.472557  1694A      2.491847  1695A      2.492147  
    1696A      2.498809  1697A      2.502303  1698A      2.505094  
    1699A      2.508700  1700A      2.508973  1701A      2.511679  
    1702A      2.517015  1703A      2.520760  1704A      2.527874  
    1705A      2.538957  1706A      2.540147  1707A      2.540694  
    1708A      2.541897  1709A      2.542698  1710A      2.543892  
    1711A      2.546855  1712A      2.548075  1713A      2.549237  
    1714A      2.549809  1715A      2.551134  1716A      2.556836  
    1717A      2.557157  1718A      2.560562  1719A      2.564583  
    1720A      2.571771  1721A      2.572217  1722A      2.577274  
    1723A      2.582365  1724A      2.585157  1725A      2.585367  
    1726A      2.586023  1727A      2.587475  1728A      2.588997  
    1729A      2.589345  1730A      2.593360  1731A      2.594363  
    1732A      2.601944  1733A      2.602412  1734A      2.613943  
    1735A      2.614493  1736A      2.614847  1737A      2.616697  
    1738A      2.619319  1739A      2.619596  1740A      2.629464  
    1741A      2.633424  1742A      2.641145  1743A      2.643741  
    1744A      2.644874  1745A      2.646149  1746A      2.648817  
    1747A      2.649854  1748A      2.650063  1749A      2.655088  
    1750A      2.657432  1751A      2.658746  1752A      2.666293  
    1753A      2.668835  1754A      2.670478  1755A      2.670656  
    1756A      2.671224  1757A      2.671758  1758A      2.675991  
    1759A      2.679017  1760A      2.679510  1761A      2.685703  
    1762A      2.687189  1763A      2.689167  1764A      2.691243  
    1765A      2.691577  1766A      2.691918  1767A      2.693367  
    1768A      2.696769  1769A      2.697131  1770A      2.700701  
    1771A      2.703553  1772A      2.710141  1773A      2.712253  
    1774A      2.718367  1775A      2.726026  1776A      2.731085  
    1777A      2.731599  1778A      2.732175  1779A      2.732808  
    1780A      2.736544  1781A      2.757652  1782A      2.761435  
    1783A      2.763097  1784A      2.775369  1785A      2.777120  
    1786A      2.779791  1787A      2.781567  1788A      2.782453  
    1789A      2.783666  1790A      2.790354  1791A      2.800017  
    1792A      2.800217  1793A      2.802512  1794A      2.802579  
    1795A      2.805485  1796A      2.814834  1797A      2.816239  
    1798A      2.816758  1799A      2.816890  1800A      2.819367  
    1801A      2.823476  1802A      2.831857  1803A      2.832694  
    1804A      2.841197  1805A      2.843407  1806A      2.844443  
    1807A      2.845806  1808A      2.848101  1809A      2.865999  
    1810A      2.866406  1811A      2.869574  1812A      2.871873  
    1813A      2.872749  1814A      2.876900  1815A      2.896176  
    1816A      2.897061  1817A      2.898665  1818A      2.910027  
    1819A      2.918551  1820A      2.919604  1821A      2.924326  
    1822A      2.927396  1823A      2.930812  1824A      2.932137  
    1825A      2.936984  1826A      2.937200  1827A      2.945728  
    1828A      2.958320  1829A      2.965498  1830A      2.967274  
    1831A      2.969239  1832A      2.977465  1833A      2.992782  
    1834A      2.994417  1835A      2.998339  1836A      3.003695  
    1837A      3.028851  1838A      3.032104  1839A      3.032452  
    1840A      3.038942  1841A      3.042186  1842A      3.048453  
    1843A      3.050255  1844A      3.054017  1845A      3.058174  
    1846A      3.059433  1847A      3.066280  1848A      3.071378  
    1849A      3.074838  1850A      3.087239  1851A      3.110950  
    1852A      3.114256  1853A      3.114446  1854A      3.117839  
    1855A      3.124259  1856A      3.131051  1857A      3.131466  
    1858A      3.138604  1859A      3.141296  1860A      3.143478  
    1861A      3.143994  1862A      3.151244  1863A      3.152265  
    1864A      3.153832  1865A      3.156036  1866A      3.157115  
    1867A      3.162619  1868A      3.168513  1869A      3.173326  
    1870A      3.178875  1871A      3.179262  1872A      3.183808  
    1873A      3.194748  1874A      3.195811  1875A      3.220673  
    1876A      3.256553  1877A      3.262340  1878A      3.262553  
    1879A      3.263619  1880A      3.263674  1881A      3.266323  
    1882A      3.269838  1883A      3.272671  1884A      3.276210  
    1885A      3.277442  1886A      3.298566  1887A      3.300331  
    1888A      3.301551  1889A      3.302221  1890A      3.309861  
    1891A      3.343911  1892A      3.362663  1893A      3.364300  
    1894A      3.383255  1895A      3.397788  1896A      3.418429  
    1897A      3.434448  1898A      3.438973  1899A      3.444615  
    1900A      3.451694  1901A      3.456628  1902A      3.465704  
    1903A      3.466635  1904A      3.472582  1905A      3.474287  
    1906A      3.477275  1907A      3.482824  1908A      3.489744  
    1909A      3.493277  1910A      3.502840  1911A      3.512304  
    1912A      3.544516  1913A      3.546221  1914A      3.578610  
    1915A      3.580777  1916A      3.587363  1917A      3.591489  
    1918A      3.625228  1919A      3.645083  1920A      3.650864  
    1921A      3.662720  1922A      3.669881  1923A      3.672766  
    1924A      3.707499  1925A      3.750597  1926A      3.753835  
    1927A      3.757976  1928A      3.763814  1929A      3.772596  
    1930A      3.779445  1931A      3.785458  1932A      3.831292  
    1933A      3.844454  1934A      3.847349  1935A      3.873361  
    1936A      3.874897  1937A      3.879449  1938A      3.909735  
    1939A      3.922579  1940A      3.941088  1941A      3.948873  
    1942A      3.949403  1943A      3.950212  1944A      3.966644  
    1945A      3.970740  1946A      3.978131  1947A      3.996371  
    1948A      4.024943  1949A      4.027753  1950A      4.079793  
    1951A      4.218106  1952A      4.225940  1953A      4.255887  
    1954A      4.345632  1955A      4.403107  1956A      4.415579  
    1957A      4.417474  1958A      4.509285  1959A      4.778245  
    1960A      4.847134  1961A      4.858752  1962A      4.877927  
    1963A      4.965929  1964A      5.080409  1965A      5.082227  
    1966A      5.089737  1967A      5.129030  1968A      5.200483  
    1969A      5.410104  1970A      5.438065  1971A      5.758853  
    1972A      5.780262  1973A      6.077953  1974A     18.204755  
    1975A     18.478361  1976A     18.499489  1977A     18.580908  
    1978A     18.851087  1979A     25.353362  1980A     25.388222  

    Final Occupation by Irrep:
              A 
    DOCC [   300 ]
    NA   [   300 ]
    NB   [   300 ]

  @DF-RHF Final Energy: -3650.34071040608706

   => Energetics <=

    Nuclear Repulsion Energy =          15611.4211649754306563
    One-Electron Energy =              -36072.1686918670820887
    Two-Electron Energy =               16810.4068164855671057
    Total Energy =                      -3650.3407104060861457

Computation Completed


Properties will be evaluated at   0.000000,   0.000000,   0.000000 [a0]

Properties computed using the SCF density matrix


 Multipole Moments:

 ------------------------------------------------------------------------------------
     Multipole            Electronic (a.u.)      Nuclear  (a.u.)        Total (a.u.)
 ------------------------------------------------------------------------------------

 L = 1.  Multiply by 2.5417464519 to convert [e a0] to [Debye]
 Dipole X            :         -0.0005857            0.0002112           -0.0003746
 Dipole Y            :          0.0011714           -0.0013774           -0.0002060
 Dipole Z            :       -414.9316631          414.9386586            0.0069955
 Magnitude           :                                                    0.0070085

 ------------------------------------------------------------------------------------

*** tstop() called on n2cn0374 at Sat Jan 27 02:30:28 2024
Module time:
	user time   =   19787.84 seconds =     329.80 minutes
	system time =    1346.94 seconds =      22.45 minutes
	total time  =       2990 seconds =      49.83 minutes
Total time:
	user time   =   52664.52 seconds =     877.74 minutes
	system time =    3539.92 seconds =      59.00 minutes
	total time  =       9271 seconds =     154.52 minutes
  Constructing Basis Sets for SAPT...

   => Loading Basis Set <=

    Name: (JUN-CC-PVDZ AUX)
    Role: RIFIT
    Keyword: DF_BASIS_SAPT
    atoms 1-2, 4-5, 10, 17-34, 41-53, 56-70, 73-89, 92-104, 109-119, 122-130 entry C          line   100 file /opt/software/pc2/EB-SW/software/PSI4/1.9-foss-2022a/share/psi4/basis/jun-cc-pvdz-ri.gbs 
    atoms 3, 6                                                               entry N          line   144 file /opt/software/pc2/EB-SW/software/PSI4/1.9-foss-2022a/share/psi4/basis/jun-cc-pvdz-ri.gbs 
    atoms 7-9, 11-16, 35-40, 54-55, 71-72, 90-91, 105-108, 120-121, 131-136  entry H          line    30 file /opt/software/pc2/EB-SW/software/PSI4/1.9-foss-2022a/share/psi4/basis/jun-cc-pvdz-ri.gbs 

   => Loading Basis Set <=

    Name: (JUN-CC-PVDZ AUX)
    Role: JKFIT
    Keyword: DF_BASIS_ELST
    atoms 1-2, 4-5, 10, 17-34, 41-53, 56-70, 73-89, 92-104, 109-119, 122-130 entry C          line   146 file /opt/software/pc2/EB-SW/software/PSI4/1.9-foss-2022a/share/psi4/basis/jun-cc-pvdz-jkfit.gbs 
    atoms 3, 6                                                               entry N          line   202 file /opt/software/pc2/EB-SW/software/PSI4/1.9-foss-2022a/share/psi4/basis/jun-cc-pvdz-jkfit.gbs 
    atoms 7-9, 11-16, 35-40, 54-55, 71-72, 90-91, 105-108, 120-121, 131-136  entry H          line    70 file /opt/software/pc2/EB-SW/software/PSI4/1.9-foss-2022a/share/psi4/basis/jun-cc-pvdz-jkfit.gbs 


  //>>>>>>>>>>>>>>>>>>>>>>>>>>>>>>>>>>>//
  //               SSAPT0              //
  //<<<<<<<<<<<<<<<<<<<<<<<<<<<<<<<<<<<//


*** tstart() called on n2cn0374
*** at Sat Jan 27 02:30:29 2024

        SAPT0  
    Ed Hohenstein
     6 June 2009

      Orbital Information
  --------------------------
    NSO        =      2019
    NMO        =      1980
    NRI        =      7157
    NRI (Elst) =      8896
    NOCC A     =        26
    NOCC B     =       300
    FOCC A     =         7
    FOCC B     =        96
    NVIR A     =      1954
    NVIR B     =      1680

    Elst10,r            =    -0.012167051425 [Eh]
    Exch10              =     0.002491857997 [Eh]
    Exch10 (S^2)        =     0.002489649426 [Eh]

    Iter     Energy [mEh]          dE [mEh]         Residual      Time [s]
       1      -0.12558622       0.125586219       1.804071669           207
       2      -0.13687520       0.011288980       0.633452957           410
       3      -0.14472242       0.007847221       0.087097599           651
       4      -0.14453107      -0.000191354       0.035436226           851
       5      -0.14445031      -0.000080754       0.012307522          1047
       6      -0.14448173       0.000031421       0.004899669          1283
       7      -0.14448821       0.000006477       0.001631226          1536
       8      -0.14448626      -0.000001947       0.000543897          1764
       9      -0.14448521      -0.000001051       0.000165993          1963
      10      -0.14448520      -0.000000007       0.000048460          2160
      11      -0.14448532       0.000000111       0.000013030          2378
      12      -0.14448532       0.000000003       0.000004183          2641
      13      -0.14448531      -0.000000007       0.000001049          2886
      14      -0.14448531      -0.000000000       0.000000363          3097

    CHF Iterations converged


    Iter     Energy [mEh]          dE [mEh]         Residual      Time [s]
       1     -17.57125734      17.571257336      72.221165975           266
       2     -11.36700665      -6.204250682       8.985790813           553
       3     -11.34354134      -0.023465309       3.157886270           879
       4     -11.58192250       0.238381160       1.000140603          1156
       5     -11.61312657       0.031204061       0.338531320          1476
       6     -11.60754345      -0.005583115       0.227347496          1704
       7     -11.60186224      -0.005681212       0.090322947          1967
       8     -11.60241586       0.000553622       0.041259294          2205
       9     -11.60346892       0.001053062       0.018694428          2481
      10     -11.60342152      -0.000047403       0.017920662          2760
      11     -11.60317128      -0.000250244       0.010035362          3012
      12     -11.60314471      -0.000026571       0.005393647          3299
      13     -11.60321510       0.000070396       0.002698363          3556
      14     -11.60323514       0.000020033       0.001803645          3816
      15     -11.60322084      -0.000014300       0.001160876          4040
      16     -11.60320763      -0.000013210       0.000428251          4281
      17     -11.60321407       0.000006447       0.000164176          4514
      18     -11.60321554       0.000001465       0.000058825          4810
      19     -11.60321498      -0.000000561       0.000033552          5101
      20     -11.60321457      -0.000000409       0.000014694          5343
      21     -11.60321467       0.000000098       0.000007398          5608
      22     -11.60321474       0.000000076       0.000003527          5850
      23     -11.60321473      -0.000000011       0.000001834          6127
      24     -11.60321471      -0.000000018       0.000001103          6394
      25     -11.60321471       0.000000001       0.000000570          6648

    CHF Iterations converged

    Ind20,r (A<-B)      =    -0.000144485311 [Eh]
    Ind20,r (B<-A)      =    -0.011603214714 [Eh]
    Ind20,r             =    -0.011747700026 [Eh]
    Exch-Ind20,r (A<-B) =     0.000119155848 [Eh]
    Exch-Ind20,r (B<-A) =     0.000367215906 [Eh]
    Exch-Ind20,r        =     0.000486371755 [Eh]
    Disp20              =    -0.012890886795 [Eh]
    Disp20 (SS)         =    -0.006445443397 [Eh]
    Disp20 (OS)         =    -0.006445443397 [Eh]
    Exch-Disp20         =     0.000276728783 [Eh]
    Exch-Disp20 (SS)    =     0.000174350594 [Eh]
    Exch-Disp20 (OS)    =     0.000102378189 [Eh]

    SAPT Results 
  --------------------------------------------------------------------------------------------------------
    Electrostatics                -12.16705142 [mEh]      -7.63494004 [kcal/mol]     -31.94458912 [kJ/mol]
      Elst10,r                    -12.16705142 [mEh]      -7.63494004 [kcal/mol]     -31.94458912 [kJ/mol]

    Exchange                        2.49185800 [mEh]       1.56366450 [kcal/mol]       6.54237227 [kJ/mol]
      Exch10                        2.49185800 [mEh]       1.56366450 [kcal/mol]       6.54237227 [kJ/mol]
      Exch10(S^2)                   2.48964943 [mEh]       1.56227860 [kcal/mol]       6.53657367 [kJ/mol]

    Induction                     -12.29778637 [mEh]      -7.71697745 [kcal/mol]     -32.28783366 [kJ/mol]
      Ind20,r                     -11.74770003 [mEh]      -7.37179306 [kcal/mol]     -30.84358217 [kJ/mol]
      Exch-Ind20,r                  0.48637175 [mEh]       0.30520288 [kcal/mol]       1.27696887 [kJ/mol]
      delta HF,r (2)               -1.03645810 [mEh]      -0.65038727 [kcal/mol]      -2.72122036 [kJ/mol]

    Dispersion                    -12.61415801 [mEh]      -7.91550366 [kcal/mol]     -33.11846730 [kJ/mol]
      Disp20                      -12.89088679 [mEh]      -8.08915359 [kcal/mol]     -33.84501862 [kJ/mol]
      Exch-Disp20                   0.27672878 [mEh]       0.17364993 [kcal/mol]       0.72655132 [kJ/mol]
      Disp20 (SS)                  -6.44544340 [mEh]      -4.04457679 [kcal/mol]     -16.92250931 [kJ/mol]
      Disp20 (OS)                  -6.44544340 [mEh]      -4.04457679 [kcal/mol]     -16.92250931 [kJ/mol]
      Exch-Disp20 (SS)              0.17435059 [mEh]       0.10940665 [kcal/mol]       0.45775742 [kJ/mol]
      Exch-Disp20 (OS)              0.10237819 [mEh]       0.06424328 [kcal/mol]       0.26879390 [kJ/mol]

  Total HF                        -21.97297980 [mEh]     -13.78825299 [kcal/mol]     -57.69005051 [kJ/mol]
  Total SAPT0                     -34.58713781 [mEh]     -21.70375665 [kcal/mol]     -90.80851780 [kJ/mol]

  Special recipe for scaled SAPT0 (see Manual):
    Electrostatics sSAPT0         -12.16705142 [mEh]      -7.63494004 [kcal/mol]     -31.94458912 [kJ/mol]
    Exchange sSAPT0                 2.49185800 [mEh]       1.56366450 [kcal/mol]       6.54237227 [kJ/mol]
    Induction sSAPT0              -12.29649084 [mEh]      -7.71616449 [kcal/mol]     -32.28443224 [kJ/mol]
    Dispersion sSAPT0             -12.61342090 [mEh]      -7.91504111 [kcal/mol]     -33.11653201 [kJ/mol]
  Total sSAPT0                    -34.58510516 [mEh]     -21.70248114 [kcal/mol]     -90.80318109 [kJ/mol]
  --------------------------------------------------------------------------------------------------------

*** tstop() called on n2cn0374 at Sat Jan 27 09:06:59 2024
Module time:
	user time   =   73362.91 seconds =    1222.72 minutes
	system time =    3844.93 seconds =      64.08 minutes
	total time  =      23790 seconds =     396.50 minutes
Total time:
	user time   =  126028.86 seconds =    2100.48 minutes
	system time =    7384.85 seconds =     123.08 minutes
	total time  =      33062 seconds =     551.03 minutes

    Psi4 stopped on: Saturday, 27 January 2024 09:06AM
    Psi4 wall time for execution: 9:11:03.30

*** Psi4 exiting successfully. Buy a developer a beer!
