
    -----------------------------------------------------------------------
          Psi4: An Open-Source Ab Initio Electronic Structure Package
                               Psi4 1.9 release

                         Git: Rev {} zzzzzzz 


    D. G. A. Smith, L. A. Burns, A. C. Simmonett, R. M. Parrish,
    M. C. Schieber, R. Galvelis, P. Kraus, H. Kruse, R. Di Remigio,
    A. Alenaizan, A. M. James, S. Lehtola, J. P. Misiewicz, M. Scheurer,
    R. A. Shaw, J. B. Schriber, Y. Xie, Z. L. Glick, D. A. Sirianni,
    J. S. O'Brien, J. M. Waldrop, A. Kumar, E. G. Hohenstein,
    B. P. Pritchard, B. R. Brooks, H. F. Schaefer III, A. Yu. Sokolov,
    K. Patkowski, A. E. DePrince III, U. Bozkaya, R. A. King,
    F. A. Evangelista, J. M. Turney, T. D. Crawford, C. D. Sherrill,
    J. Chem. Phys. 152(18) 184108 (2020). https://doi.org/10.1063/5.0006002

                            Additional Code Authors
    E. T. Seidl, C. L. Janssen, E. F. Valeev, M. L. Leininger,
    J. F. Gonthier, R. M. Richard, H. R. McAlexander, M. Saitow, X. Wang,
    P. Verma, M. H. Lechner, A. Jiang, S. Behnle, A. G. Heide,
    M. F. Herbst, and D. L. Poole

             Previous Authors, Complete List of Code Contributors,
                       and Citations for Specific Modules
    https://github.com/psi4/psi4/blob/master/codemeta.json
    https://github.com/psi4/psi4/graphs/contributors
    http://psicode.org/psi4manual/master/introduction.html#citing-psifour

    -----------------------------------------------------------------------


    Psi4 started on: Saturday, 27 January 2024 12:12AM

    Process ID: 284433
    Host:       n2cn0973
    PSIDATADIR: /opt/software/pc2/EB-SW/software/PSI4/1.9-foss-2022a/share/psi4
    Memory:     500.0 MiB
    Threads:    16
    
  ==> Input File <==

--------------------------------------------------------------------------
memory 64 GB # how much memory is available ! Depends on the nodes/cores !

molecule dimer {
# monomer A
+1 1    # Charge and multiplicity
C  0.680067 -0.008042 -7.815929
C -0.680504 -0.006014 -7.815545
N -1.085635 -0.005016 -6.497221
C  0.000108 -0.001740 -5.715820
C -2.477365  0.044390 -6.029242
N  1.085222 -0.005016 -6.497221
H  1.385146 -0.015870 -8.633368
H -1.385302 -0.006204 -8.633214
H -0.000009  0.000007 -4.634731
C  2.478117 -0.021908 -6.032123
H  2.490592  0.005437 -4.941870
H  2.967028 -0.935354 -6.379299
H  3.001428  0.853575 -6.423595
H -2.857359  1.066461 -6.109201
H -3.082679 -0.625694 -6.642306
H -2.518128 -0.282594 -4.989294
--
# monomer B
0 1     # Charge and multiplicity
C   -3.66844126402057      7.80375217008252      0.00190004133558
C   -4.84759871934653      7.13124183134024     -0.00046653359696
C   -4.89495929917518      5.69633040353158     -0.00103944469517
C   -3.65374067877320      4.98073034095895      0.00662099703436
C   -2.40942512149445      7.11398103667468      0.00209438359570
C   -2.42547734410473      5.68112195090346     -0.00491050527438
C   -1.19474401643570      7.78614419430947      0.00356656413763
C   0.03795902893699      7.09942164575698      0.00139585983271
C   0.03033258741920      5.66948955970466     -0.00408752508301
C   -1.20098450790502      4.96927034791531      0.00488220885047
C   1.27795782581485      7.77285944319479      0.00277170839332
C   2.48535808472416      7.08769688523756      0.00049722048857
C   2.48612868491717      5.65477081024076     -0.00644052849921
C   1.25408291964399      4.95607811366431      0.00518741308898
C   3.75171459140595      7.76391215098033      0.00062407186893
C   4.92356605618520      7.07878077698995     -0.00143240883900
C   4.95560727132542      5.64344746336949     -0.00159282164606
C   3.70680153420475      4.94121020833308      0.00349873852374
H   -3.65852113775815      8.89082741913536      0.00358502958574
H   -1.18921332975660      8.87412108735996      0.00753844057883
H   1.28429423888630      8.86083343548850      0.00693053253426
H   3.75354208679975      8.85103527897216      0.00214659618464
H   5.86995870320703      7.61379483465560     -0.00235777588134
H   -5.78823170750226      7.67630221293400     -0.00202638095293
C   -6.09197395869619      4.99326001364347     -0.00291168518608
C   -6.12866148031747      3.58258016879823     -0.00171050815740
C   -3.66457974004527      3.56418217974434     -0.00463560277484
C   -4.89429820469869      2.86108077590057      0.00453338221034
C   -2.43733499489796      2.84761165708481      0.00719617576166
C   -1.20922785759670      3.54788693497833     -0.00648285103018
C   1.24714157216223      3.53468075142962     -0.00729145743546
C   0.01517603956900      2.83311183930540      0.00439272578912
C   2.46764517244071      2.82128997725533      0.00449278391269
C   3.70254947457969      3.52466015442405     -0.00899517692985
C   6.14498038638375      4.92757236613191     -0.00282626685777
C   6.16658835886151      3.51658447594213     -0.00065971342101
C   4.92460995845939      2.80840792535402      0.00587903281610
H   7.08990550964105      5.46688776622306     -0.00658814770723
H   -7.03104175110130      5.54268795285765     -0.00714490013730
C   -7.33969804112295      2.85841153457957     -0.00333767559888
C   -7.36488195805880      1.47032337158330     -0.00157213747140
C   -4.90350460894690      1.44442681216000     -0.00628840166334
C   -6.13225715261081      0.73993935705394      0.00600164231964
C   -3.67687480051673      0.72669714267312      0.00433931473643
C   -2.44565658606518      1.42964113326212     -0.00597039546461
C   -1.22360068130162      0.71532450163492      0.00545886906656
C   0.00763786931376      1.41738314923765      0.00392452278437
C   1.23121980774686      0.70211669058719     -0.01490206287210
C   2.46082110053113      1.40329203612573      0.00460244601878
C   3.68443025419614      0.68719842821222      0.00377365974158
C   4.91870890153864      1.39173456118907     -0.00862816189375
C   7.36980207796101      2.77948220318441     -0.00242013321349
C   7.38016266612146      1.39121750785509     -0.00087345036788
C   6.13979953912259      0.67411862320065      0.00545489144369
H   -8.27919079934664      3.40711804112415     -0.00763522772059
H   8.31511347147953      3.31811809662368     -0.00663070901292
C   -8.59175593758115      0.72483255304480     -0.00123170985383
C   -8.59902460370342     -0.63263980622873      0.00089141472904
C   -6.13981313911873     -0.67413663715361     -0.00609792660607
C   -7.38018411213749     -1.39126618958160      0.00131813493501
C   -4.91868448025621     -1.39175501803000      0.00624257154343
C   -3.68443829568458     -0.68723731573599     -0.00478966852105
C   -2.46081704024768     -1.40334517882457      0.00575341766833
C   -1.23116201232071     -0.70217386488055     -0.00636696112346
C   -0.00756962538737     -1.41741884941102      0.00108956317991
C   1.22364771588843     -0.71527537726392      0.01109518512883
C   2.44567064933149     -1.42964328900682     -0.00065482763106
C   3.67686670284649     -0.72670743155550     -0.00479541202602
C   6.13224884641929     -0.73997883984993     -0.00632338623858
C   4.90351914550401     -1.44445752054090      0.00751768830159
C   8.59901484869081      0.63260386666793     -0.00101133422380
C   8.59174548810050     -0.72485086719319      0.00072504603735
C   7.36486276438985     -1.47033266560598      0.00049486934466
H   -9.52830597181814      1.27684744919284     -0.00270163681798
H   9.54141097460619      1.17457248844457     -0.00206336648518
C   -7.36983790976868     -2.77954514593389      0.00312634335708
C   -4.92459910905015     -2.80843725734101     -0.00460528907921
C   -6.16662249566744     -3.51665219282533      0.00169655107992
C   -3.70251035970491     -3.52468154912026      0.00571878010666
C   -2.46764698511392     -2.82132596280400     -0.00632585824990
C   -0.01513347410770     -2.83314164539971     -0.00604426974092
C   -1.24712184122656     -3.53473217556300      0.00551968366725
C   1.20924506964357     -3.54791467864352      0.00805871345849
C   2.43733602215464     -2.84764173817541     -0.00608104485234
C   4.89430234377080     -2.86112296828604     -0.00526030478103
C   3.66461525504104     -3.56421984553201      0.00761911515957
C   6.12863901474565     -3.58258405771778      0.00096495711699
C   7.33967266469532     -2.85841330737039      0.00248018319869
H   -9.54144911125902     -1.17456346666430      0.00226083090216
H   9.52826186807155     -1.27691907390448      0.00197485379837
H   -8.31516504384864     -3.31814985321231      0.00729857188773
H   8.27915514249207     -3.40714078989363      0.00681973918158
C   -6.14499418870218     -4.92764727278338      0.00302254913999
C   -3.70678334799751     -4.94126171411716     -0.00679841894792
C   -4.95559005800169     -5.64349397349412      0.00116871569699
C   -2.48612132622665     -5.65478557440947      0.00614125209662
C   -1.25405833548005     -4.95612205000132     -0.00503435388927
C   1.20101257386816     -4.96928038819302     -0.00385322963129
C   -0.03033667441341     -5.66952030313900      0.00398997003238
C   3.65375010132847     -4.98074377541453     -0.00309522988330
C   2.42549269587528     -5.68117463552727      0.00628170066869
C   6.09196561781097     -4.99325796338655      0.00325918379042
C   4.89497644461045     -5.69634842095790      0.00202298796027
H   -7.08989238804069     -5.46699984223871      0.00742531082125
H   7.03105520920009     -5.54265853633254      0.00683896355417
C   -4.92354532219813     -7.07882109967734      0.00061394679214
C   -2.48534208823777     -7.08772807792913     -0.00189594564379
C   -3.75168589177895     -7.76394715763627     -0.00170126671874
C   -0.03794895698805     -7.09946487446944     -0.00168022049625
C   -1.27795610040136     -7.77290438466689     -0.00366491325785
C   2.40944432072629     -7.11402201200282     -0.00081701968533
C   1.19474993715296     -7.78618536556242     -0.00296931056689
C   4.84762105249800     -7.13126211057943      0.00168979497423
C   3.66847160587561     -7.80378799294376     -0.00065863938960
H   -5.86994035041618     -7.61383059804164      0.00215798365757
H   5.78824962538815     -7.67633218931421      0.00281691445618
H   -3.75352693944918     -8.85107156923607     -0.00353718114765
H   -1.28430440589466     -8.86087539249706     -0.00809229711623
H   1.18922157469537     -8.87416062058945     -0.00706194725726
H   3.65854661482387     -8.89086063405326     -0.00231318081200

    units angstrom      # Angstroms are the default
    no_reorient         # Geometry fixed, default
    symmetry c1         # C1 symmetry, default
}

set {
    scf_type DF         # Density fitting, faster than exact integrals
    freeze_core True    # Freeze core electrons
    basis jun-cc-pVDZ   # Jun-cc-pVDZ basis set, recommended for sSAPT0 in https://doi.org/10.1063/1.4867135
}

energy('ssapt0')        # Compute sSAPT0 energy, includes also SAPT0
--------------------------------------------------------------------------

  Memory set to  59.605 GiB by Python driver.

Scratch directory: /tmp/
   => Loading Basis Set <=

    Name: JUN-CC-PVDZ
    Role: ORBITAL
    Keyword: BASIS
    atoms 1-2, 4-5, 10, 17-34, 41-53, 56-70, 73-89, 92-104, 109-119, 122-130 entry C          line   164 file /opt/software/pc2/EB-SW/software/PSI4/1.9-foss-2022a/share/psi4/basis/jun-cc-pvdz.gbs 
    atoms 3, 6                                                               entry N          line   198 file /opt/software/pc2/EB-SW/software/PSI4/1.9-foss-2022a/share/psi4/basis/jun-cc-pvdz.gbs 
    atoms 7-9, 11-16, 35-40, 54-55, 71-72, 90-91, 105-108, 120-121, 131-136  entry H          line    36 file /opt/software/pc2/EB-SW/software/PSI4/1.9-foss-2022a/share/psi4/basis/jun-cc-pvdz.gbs 

   => Loading Basis Set <=

    Name: JUN-CC-PVDZ
    Role: ORBITAL
    Keyword: BASIS
    atoms 1-2, 4-5, 10, 17-34, 41-53, 56-70, 73-89, 92-104, 109-119, 122-130 entry C          line   164 file /opt/software/pc2/EB-SW/software/PSI4/1.9-foss-2022a/share/psi4/basis/jun-cc-pvdz.gbs 
    atoms 3, 6                                                               entry N          line   198 file /opt/software/pc2/EB-SW/software/PSI4/1.9-foss-2022a/share/psi4/basis/jun-cc-pvdz.gbs 
    atoms 7-9, 11-16, 35-40, 54-55, 71-72, 90-91, 105-108, 120-121, 131-136  entry H          line    36 file /opt/software/pc2/EB-SW/software/PSI4/1.9-foss-2022a/share/psi4/basis/jun-cc-pvdz.gbs 


  //>>>>>>>>>>>>>>>>>>>>>>>>>>>>>>>>>>>//
  //              Dimer HF             //
  //<<<<<<<<<<<<<<<<<<<<<<<<<<<<<<<<<<<//

   => Libint2 <=

    Primary   basis highest AM E, G, H:  5, 4, 3
    Auxiliary basis highest AM E, G, H:  6, 5, 4
    Onebody   basis highest AM E, G, H:  6, 5, 4
    Solid Harmonics ordering:            gaussian

*** tstart() called on n2cn0973
*** at Sat Jan 27 00:12:14 2024

   => Loading Basis Set <=

    Name: JUN-CC-PVDZ
    Role: ORBITAL
    Keyword: BASIS
    atoms 1-2, 4-5, 10, 17-34, 41-53, 56-70, 73-89, 92-104, 109-119, 122-130 entry C          line   164 file /opt/software/pc2/EB-SW/software/PSI4/1.9-foss-2022a/share/psi4/basis/jun-cc-pvdz.gbs 
    atoms 3, 6                                                               entry N          line   198 file /opt/software/pc2/EB-SW/software/PSI4/1.9-foss-2022a/share/psi4/basis/jun-cc-pvdz.gbs 
    atoms 7-9, 11-16, 35-40, 54-55, 71-72, 90-91, 105-108, 120-121, 131-136  entry H          line    36 file /opt/software/pc2/EB-SW/software/PSI4/1.9-foss-2022a/share/psi4/basis/jun-cc-pvdz.gbs 


         ---------------------------------------------------------
                                   SCF
               by Justin Turney, Rob Parrish, Andy Simmonett
                          and Daniel G. A. Smith
                              RHF Reference
                       16 Threads,  61035 MiB Core
         ---------------------------------------------------------

  ==> Geometry <==

    Molecular point group: c1
    Full point group: C1

    Geometry (in Angstrom), charge = 1, multiplicity = 1:

       Center              X                  Y                   Z               Mass       
    ------------   -----------------  -----------------  -----------------  -----------------
         C            0.680062820275    -0.008027535675    -7.312735758930    12.000000000000
         C           -0.680508179725    -0.005999535675    -7.312351758930    12.000000000000
         N           -1.085639179725    -0.005001535675    -5.994027758930    14.003074004430
         C            0.000103820275    -0.001725535675    -5.212626758930    12.000000000000
         C           -2.477369179725     0.044404464325    -5.526048758930    12.000000000000
         N            1.085217820275    -0.005001535675    -5.994027758930    14.003074004430
         H            1.385141820275    -0.015855535675    -8.130174758930     1.007825032230
         H           -1.385306179725    -0.006189535675    -8.130020758930     1.007825032230
         H           -0.000013179725     0.000021464325    -4.131537758930     1.007825032230
         C            2.478112820275    -0.021893535675    -5.528929758930    12.000000000000
         H            2.490587820275     0.005451464325    -4.438676758930     1.007825032230
         H            2.967023820275    -0.935339535675    -5.876105758930     1.007825032230
         H            3.001423820275     0.853589464325    -5.920401758930     1.007825032230
         H           -2.857363179725     1.066475464325    -5.606007758930     1.007825032230
         H           -3.082683179725    -0.625679535675    -6.139112758930     1.007825032230
         H           -2.518132179725    -0.282579535675    -4.486100758930     1.007825032230
         C           -3.668445443746     7.803766634408     0.505093282405    12.000000000000
         C           -4.847602899072     7.131256295665     0.502726707473    12.000000000000
         C           -4.894963478901     5.696344867857     0.502153796375    12.000000000000
         C           -3.653744858499     4.980744805284     0.509814238104    12.000000000000
         C           -2.409429301220     7.113995501000     0.505287624666    12.000000000000
         C           -2.425481523830     5.681136415228     0.498282735795    12.000000000000
         C           -1.194748196161     7.786158658634     0.506759805207    12.000000000000
         C            0.037954849212     7.099436110082     0.504589100903    12.000000000000
         C            0.030328407694     5.669504024030     0.499105715987    12.000000000000
         C           -1.200988687630     4.969284812240     0.508075449920    12.000000000000
         C            1.277953646089     7.772873907520     0.505964949463    12.000000000000
         C            2.485353904999     7.087711349563     0.503690461558    12.000000000000
         C            2.486124505192     5.654785274566     0.496752712571    12.000000000000
         C            1.254078739919     4.956092577989     0.508380654159    12.000000000000
         C            3.751710411681     7.763926615305     0.503817312939    12.000000000000
         C            4.923561876460     7.078795241315     0.501760832231    12.000000000000
         C            4.955603091600     5.643461927694     0.501600419424    12.000000000000
         C            3.706797354479     4.941224672658     0.506691979594    12.000000000000
         H           -3.658525317484     8.890841883460     0.506778270656     1.007825032230
         H           -1.189217509482     8.874135551685     0.510731681649     1.007825032230
         H            1.284290059161     8.860847899813     0.510123773604     1.007825032230
         H            3.753537907074     8.851049743297     0.505339837254     1.007825032230
         H            5.869954523482     7.613809298981     0.500835465189     1.007825032230
         H           -5.788235887228     7.676316677259     0.501166860117     1.007825032230
         C           -6.091978138422     4.993274477968     0.500281555884    12.000000000000
         C           -6.128665660043     3.582594633123     0.501482732912    12.000000000000
         C           -3.664583919771     3.564196644069     0.498557638295    12.000000000000
         C           -4.894302384424     2.861095240226     0.507726623280    12.000000000000
         C           -2.437339174623     2.847626121410     0.510389416832    12.000000000000
         C           -1.209232037322     3.547901399303     0.496710390040    12.000000000000
         C            1.247137392437     3.534695215755     0.495901783634    12.000000000000
         C            0.015171859844     2.833126303630     0.507585966859    12.000000000000
         C            2.467640992715     2.821304441580     0.507686024983    12.000000000000
         C            3.702545294854     3.524674618749     0.494198064140    12.000000000000
         C            6.144976206658     4.927586830457     0.500366974212    12.000000000000
         C            6.166584179136     3.516598940267     0.502533527649    12.000000000000
         C            4.924605778734     2.808422389679     0.509072273886    12.000000000000
         H            7.089901329916     5.466902230548     0.496605093363     1.007825032230
         H           -7.031045930827     5.542702417183     0.496048340933     1.007825032230
         C           -7.339702220848     2.858425998905     0.499855565471    12.000000000000
         C           -7.364886137784     1.470337835908     0.501621103598    12.000000000000
         C           -4.903508788672     1.444441276485     0.496904839407    12.000000000000
         C           -6.132261332336     0.739953821379     0.509194883389    12.000000000000
         C           -3.676878980242     0.726711606998     0.507532555806    12.000000000000
         C           -2.445660765791     1.429655597587     0.497222845605    12.000000000000
         C           -1.223604861027     0.715338965960     0.508652110136    12.000000000000
         C            0.007633689588     1.417397613563     0.507117763854    12.000000000000
         C            1.231215628021     0.702131154912     0.488291178198    12.000000000000
         C            2.460816920806     1.403306500451     0.507795687089    12.000000000000
         C            3.684426074471     0.687212892537     0.506966900811    12.000000000000
         C            4.918704721813     1.391749025514     0.494565079176    12.000000000000
         C            7.369797898236     2.779496667509     0.500773107856    12.000000000000
         C            7.380158486396     1.391231972180     0.502319790702    12.000000000000
         C            6.139795359397     0.674133087526     0.508648132514    12.000000000000
         H           -8.279194979072     3.407132505449     0.495558013349     1.007825032230
         H            8.315109291754     3.318132560949     0.496562532057     1.007825032230
         C           -8.591760117307     0.724847017370     0.501961531216    12.000000000000
         C           -8.599028783429    -0.632625341904     0.504084655799    12.000000000000
         C           -6.139817318844    -0.674122172829     0.497095314464    12.000000000000
         C           -7.380188291863    -1.391251725257     0.504511376005    12.000000000000
         C           -4.918688659982    -1.391740553705     0.509435812613    12.000000000000
         C           -3.684442475410    -0.687222851411     0.498403572549    12.000000000000
         C           -2.460821219973    -1.403330714500     0.508946658738    12.000000000000
         C           -1.231166192046    -0.702159400556     0.496826279946    12.000000000000
         C           -0.007573805113    -1.417404385086     0.504282804250    12.000000000000
         C            1.223643536163    -0.715260912939     0.514288426199    12.000000000000
         C            2.445666469606    -1.429628824682     0.502538413439    12.000000000000
         C            3.676862523121    -0.726692967231     0.498397829044    12.000000000000
         C            6.132244666694    -0.739964375525     0.496869854831    12.000000000000
         C            4.903514965779    -1.444443056216     0.510710929371    12.000000000000
         C            8.599010668965     0.632618330993     0.502181906846    12.000000000000
         C            8.591741308375    -0.724836402868     0.503918287107    12.000000000000
         C            7.364858584664    -1.470318201281     0.503688110415    12.000000000000
         H           -9.528310151544     1.276861913518     0.500491604252     1.007825032230
         H            9.541406794881     1.174586952770     0.501129874585     1.007825032230
         C           -7.369842089494    -2.779530681609     0.506319584427    12.000000000000
         C           -4.924603288776    -2.808422793016     0.498587951991    12.000000000000
         C           -6.166626675393    -3.516637728500     0.504889792150    12.000000000000
         C           -3.702514539430    -3.524667084795     0.508912021177    12.000000000000
         C           -2.467651164839    -2.821311498479     0.496867382820    12.000000000000
         C           -0.015137653833    -2.833127181075     0.497148971329    12.000000000000
         C           -1.247126020952    -3.534717711238     0.508712924737    12.000000000000
         C            1.209240889918    -3.547900214319     0.511251954528    12.000000000000
         C            2.437331842429    -2.847627273850     0.497112196218    12.000000000000
         C            4.894298164045    -2.861108503961     0.497932936289    12.000000000000
         C            3.664611075316    -3.564205381207     0.510812356229    12.000000000000
         C            6.128634835020    -3.582569593393     0.504158198187    12.000000000000
         C            7.339668484970    -2.858398843045     0.505673424269    12.000000000000
         H           -9.541453290984    -1.174549002339     0.505454071972     1.007825032230
         H            9.528257688346    -1.276904609579     0.505168094868     1.007825032230
         H           -8.315169223574    -3.318135388887     0.510491812958     1.007825032230
         H            8.279150962767    -3.407126325569     0.510012980251     1.007825032230
         C           -6.144998368428    -4.927632808458     0.506215790210    12.000000000000
         C           -3.706787527723    -4.941247249792     0.496394822122    12.000000000000
         C           -4.955594237727    -5.643479509169     0.504361956767    12.000000000000
         C           -2.486125505952    -5.654771110084     0.509334493166    12.000000000000
         C           -1.254062515205    -4.956107585676     0.498158887181    12.000000000000
         C            1.201008394143    -4.969265923868     0.499340011439    12.000000000000
         C           -0.030340854139    -5.669505838814     0.507183211102    12.000000000000
         C            3.653745921603    -4.980729311090     0.500098011187    12.000000000000
         C            2.425488516150    -5.681160171202     0.509474941739    12.000000000000
         C            6.091961438086    -4.993243499062     0.506452424860    12.000000000000
         C            4.894972264885    -5.696333956633     0.505216229030    12.000000000000
         H           -7.089896567766    -5.466985377914     0.510618551891     1.007825032230
         H            7.031051029475    -5.542644072008     0.510032204624     1.007825032230
         C           -4.923549501924    -7.078806635352     0.503807187862    12.000000000000
         C           -2.485346267963    -7.087713613604     0.501297295426    12.000000000000
         C           -3.751690071504    -7.763932693311     0.501491974351    12.000000000000
         C           -0.037953136713    -7.099450410144     0.501513020574    12.000000000000
         C           -1.277960280127    -7.772889920342     0.499528327812    12.000000000000
         C            2.409440141001    -7.114007547678     0.502376221385    12.000000000000
         C            1.194745757428    -7.786170901237     0.500223930503    12.000000000000
         C            4.847616872773    -7.131247646254     0.504883036044    12.000000000000
         C            3.668467426150    -7.803773528619     0.502534601680    12.000000000000
         H           -5.869944530142    -7.613816133717     0.505351224727     1.007825032230
         H            5.788245445663    -7.676317724989     0.506010155526     1.007825032230
         H           -3.753531119175    -8.851057104911     0.499656059922     1.007825032230
         H           -1.284308585620    -8.860860928172     0.495100943954     1.007825032230
         H            1.189217394970    -8.874146156264     0.496131293813     1.007825032230
         H            3.658542435098    -8.890846169728     0.500880060258     1.007825032230

  Running in c1 symmetry.

  Rotational constants: A =      0.00060  B =      0.00060  C =      0.00035 [cm^-1]
  Rotational constants: A =     18.12640  B =     17.97406  C =     10.51914 [MHz]
  Nuclear repulsion = 17798.517807238276873

  Charge       = 1
  Multiplicity = 1
  Electrons    = 652
  Nalpha       = 326
  Nbeta        = 326

  ==> Algorithm <==

  SCF Algorithm Type is DF.
  DIIS enabled.
  MOM disabled.
  Fractional occupation disabled.
  Guess Type is SAD.
  Energy threshold   = 1.00e-08
  Density threshold  = 1.00e-08
  Integral threshold = 1.00e-12

  ==> Primary Basis <==

  Basis Set: JUN-CC-PVDZ
    Blend: JUN-CC-PVDZ
    Number of shells: 923
    Number of basis functions: 2019
    Number of Cartesian functions: 2122
    Spherical Harmonics?: true
    Max angular momentum: 2

   => Loading Basis Set <=

    Name: (JUN-CC-PVDZ AUX)
    Role: JKFIT
    Keyword: DF_BASIS_SCF
    atoms 1-2, 4-5, 10, 17-34, 41-53, 56-70, 73-89, 92-104, 109-119, 122-130 entry C          line   146 file /opt/software/pc2/EB-SW/software/PSI4/1.9-foss-2022a/share/psi4/basis/jun-cc-pvdz-jkfit.gbs 
    atoms 3, 6                                                               entry N          line   202 file /opt/software/pc2/EB-SW/software/PSI4/1.9-foss-2022a/share/psi4/basis/jun-cc-pvdz-jkfit.gbs 
    atoms 7-9, 11-16, 35-40, 54-55, 71-72, 90-91, 105-108, 120-121, 131-136  entry H          line    70 file /opt/software/pc2/EB-SW/software/PSI4/1.9-foss-2022a/share/psi4/basis/jun-cc-pvdz-jkfit.gbs 

  ==> Integral Setup <==

  ==> DiskDFJK: Density-Fitted J/K Matrices <==

    J tasked:                  Yes
    K tasked:                  Yes
    wK tasked:                  No
    OpenMP threads:             16
    Integrals threads:          16
    Memory [MiB]:            45776
    Algorithm:                Disk
    Integral Cache:           SAVE
    Schwarz Cutoff:          1E-12
    Fitting Condition:       1E-10

   => Auxiliary Basis Set <=

  Basis Set: (JUN-CC-PVDZ AUX)
    Blend: JUN-CC-PVDZ-JKFIT
    Number of shells: 3078
    Number of basis functions: 8896
    Number of Cartesian functions: 10198
    Spherical Harmonics?: true
    Max angular momentum: 3

  Minimum eigenvalue in the overlap matrix is 8.9553766501E-11.
  Reciprocal condition number of the overlap matrix is 3.9192098468E-12.
    Using canonical orthogonalization.
  Overall, 38 of 2019 possible MOs eliminated.


  ==> Pre-Iterations <==

  SCF Guess: Superposition of Atomic Densities via on-the-fly atomic UHF (no occupation information).

   -------------------------
    Irrep   Nso     Nmo    
   -------------------------
     A       2019    1981 
   -------------------------
    Total    2019    1981
   -------------------------

  ==> Iterations <==

                           Total Energy        Delta E     RMS |[F,P]|

   @DF-RHF iter SAD: -3967.13672285811708   -3.96714e+03   0.00000e+00 
   @DF-RHF iter   1: -3952.10682223076856    1.50299e+01   7.15640e-04 ADIIS/DIIS
   @DF-RHF iter   2: -3953.49758980499610   -1.39077e+00   2.34278e-04 ADIIS/DIIS
   @DF-RHF iter   3: -3953.62052351995544   -1.22934e-01   1.03048e-04 ADIIS/DIIS
   @DF-RHF iter   4: -3953.64372237967973   -2.31989e-02   4.36992e-05 DIIS
   @DF-RHF iter   5: -3953.64857997843728   -4.85760e-03   1.07236e-05 DIIS
   @DF-RHF iter   6: -3953.64904243021101   -4.62452e-04   4.61462e-06 DIIS
   @DF-RHF iter   7: -3953.64922900557667   -1.86575e-04   2.20911e-06 DIIS
   @DF-RHF iter   8: -3953.64929146052964   -6.24550e-05   1.10120e-06 DIIS
   @DF-RHF iter   9: -3953.64930891667245   -1.74561e-05   3.53642e-07 DIIS
   @DF-RHF iter  10: -3953.64931009313159   -1.17646e-06   1.44596e-07 DIIS
   @DF-RHF iter  11: -3953.64931024178213   -1.48651e-07   5.90541e-08 DIIS
   @DF-RHF iter  12: -3953.64931027447756   -3.26954e-08   2.94762e-08 DIIS
   @DF-RHF iter  13: -3953.64931028108094   -6.60339e-09   9.99860e-09 DIIS
  Energy and wave function converged.


  ==> Post-Iterations <==

    Orbital Energies [Eh]
    ---------------------

    Doubly Occupied:                                                      

       1A    -15.817294     2A    -15.816780     3A    -11.511861  
       4A    -11.444163     5A    -11.442607     6A    -11.431907  
       7A    -11.431807     8A    -11.324484     9A    -11.324068  
      10A    -11.323983    11A    -11.323215    12A    -11.323108  
      13A    -11.322872    14A    -11.322485    15A    -11.322457  
      16A    -11.322285    17A    -11.322162    18A    -11.322015  
      19A    -11.321806    20A    -11.321379    21A    -11.321336  
      22A    -11.321063    23A    -11.320972    24A    -11.320871  
      25A    -11.320788    26A    -11.320383    27A    -11.320346  
      28A    -11.320037    29A    -11.320018    30A    -11.319890  
      31A    -11.319870    32A    -11.318318    33A    -11.318311  
      34A    -11.318243    35A    -11.318230    36A    -11.317952  
      37A    -11.317946    38A    -11.317913    39A    -11.317901  
      40A    -11.317773    41A    -11.317738    42A    -11.317597  
      43A    -11.317553    44A    -11.316363    45A    -11.316351  
      46A    -11.316351    47A    -11.316337    48A    -11.316169  
      49A    -11.316165    50A    -11.315916    51A    -11.315912  
      52A    -11.315735    53A    -11.315730    54A    -11.315723  
      55A    -11.315717    56A    -11.315515    57A    -11.315506  
      58A    -11.315110    59A    -11.315103    60A    -11.315097  
      61A    -11.315087    62A    -11.315023    63A    -11.315011  
      64A    -11.315001    65A    -11.314994    66A    -11.314869  
      67A    -11.314856    68A    -11.314598    69A    -11.314572  
      70A    -11.314518    71A    -11.314511    72A    -11.314455  
      73A    -11.314442    74A    -11.314435    75A    -11.314433  
      76A    -11.314044    77A    -11.314043    78A    -11.314036  
      79A    -11.314036    80A    -11.307620    81A    -11.307594  
      82A    -11.307543    83A    -11.307541    84A    -11.307304  
      85A    -11.307282    86A    -11.307227    87A    -11.307225  
      88A    -11.307170    89A    -11.307115    90A    -11.307090  
      91A    -11.307035    92A    -11.306241    93A    -11.306227  
      94A    -11.305708    95A    -11.305692    96A    -11.305689  
      97A    -11.305689    98A    -11.304773    99A    -11.304759  
     100A    -11.304238   101A    -11.304220   102A    -11.304218  
     103A    -11.304217   104A     -1.561162   105A     -1.416611  
     106A     -1.312759   107A     -1.296227   108A     -1.295889  
     109A     -1.276494   110A     -1.276444   111A     -1.272748  
     112A     -1.256147   113A     -1.251160   114A     -1.245224  
     115A     -1.244929   116A     -1.228608   117A     -1.228583  
     118A     -1.221955   119A     -1.212174   120A     -1.212153  
     121A     -1.209483   122A     -1.199262   123A     -1.199243  
     124A     -1.184257   125A     -1.171905   126A     -1.171132  
     127A     -1.169126   128A     -1.168900   129A     -1.167589  
     130A     -1.165910   131A     -1.144007   132A     -1.143899  
     133A     -1.131268   134A     -1.131241   135A     -1.123681  
     136A     -1.123583   137A     -1.121377   138A     -1.101962  
     139A     -1.101947   140A     -1.101415   141A     -1.095673  
     142A     -1.093033   143A     -1.092967   144A     -1.081829  
     145A     -1.078832   146A     -1.078706   147A     -1.062631  
     148A     -1.061836   149A     -1.058812   150A     -1.056446  
     151A     -1.056364   152A     -1.044968   153A     -1.026597  
     154A     -1.026518   155A     -1.010481   156A     -1.010446  
     157A     -1.005855   158A     -0.979664   159A     -0.962656  
     160A     -0.962531   161A     -0.961744   162A     -0.959341  
     163A     -0.959272   164A     -0.949395   165A     -0.949261  
     166A     -0.946683   167A     -0.946560   168A     -0.945373  
     169A     -0.926479   170A     -0.922163   171A     -0.906324  
     172A     -0.904058   173A     -0.903873   174A     -0.901693  
     175A     -0.899758   176A     -0.898775   177A     -0.889549  
     178A     -0.889509   179A     -0.881945   180A     -0.881918  
     181A     -0.840728   182A     -0.840510   183A     -0.838050  
     184A     -0.837717   185A     -0.837683   186A     -0.837573  
     187A     -0.837461   188A     -0.833366   189A     -0.822378  
     190A     -0.817368   191A     -0.806277   192A     -0.799726  
     193A     -0.795316   194A     -0.787563   195A     -0.782368  
     196A     -0.782136   197A     -0.780330   198A     -0.779809  
     199A     -0.779640   200A     -0.774595   201A     -0.773299  
     202A     -0.769668   203A     -0.769570   204A     -0.768898  
     205A     -0.765601   206A     -0.754067   207A     -0.754012  
     208A     -0.742094   209A     -0.740456   210A     -0.740402  
     211A     -0.737007   212A     -0.736997   213A     -0.733895  
     214A     -0.711822   215A     -0.708010   216A     -0.707874  
     217A     -0.705780   218A     -0.705603   219A     -0.705503  
     220A     -0.705488   221A     -0.703912   222A     -0.699864  
     223A     -0.696690   224A     -0.696550   225A     -0.694744  
     226A     -0.693584   227A     -0.691375   228A     -0.691276  
     229A     -0.684111   230A     -0.677218   231A     -0.669224  
     232A     -0.669126   233A     -0.663602   234A     -0.663541  
     235A     -0.656656   236A     -0.656180   237A     -0.654435  
     238A     -0.654370   239A     -0.654250   240A     -0.653535  
     241A     -0.650035   242A     -0.649717   243A     -0.649626  
     244A     -0.649353   245A     -0.646474   246A     -0.646413  
     247A     -0.643758   248A     -0.631756   249A     -0.631675  
     250A     -0.631066   251A     -0.630958   252A     -0.627903  
     253A     -0.627322   254A     -0.624160   255A     -0.624119  
     256A     -0.621197   257A     -0.621045   258A     -0.614137  
     259A     -0.613969   260A     -0.613864   261A     -0.612011  
     262A     -0.609352   263A     -0.605536   264A     -0.600290  
     265A     -0.599755   266A     -0.592458   267A     -0.592042  
     268A     -0.588171   269A     -0.588068   270A     -0.583900  
     271A     -0.582380   272A     -0.582334   273A     -0.579379  
     274A     -0.572252   275A     -0.572032   276A     -0.569975  
     277A     -0.569962   278A     -0.563630   279A     -0.563619  
     280A     -0.552896   281A     -0.551539   282A     -0.551376  
     283A     -0.550473   284A     -0.550418   285A     -0.546585  
     286A     -0.535380   287A     -0.531661   288A     -0.531643  
     289A     -0.528453   290A     -0.525263   291A     -0.521676  
     292A     -0.521609   293A     -0.514473   294A     -0.507737  
     295A     -0.503422   296A     -0.503249   297A     -0.497777  
     298A     -0.497596   299A     -0.497376   300A     -0.488577  
     301A     -0.487998   302A     -0.462985   303A     -0.462873  
     304A     -0.442802   305A     -0.442670   306A     -0.440472  
     307A     -0.439580   308A     -0.439554   309A     -0.409545  
     310A     -0.409526   311A     -0.405983   312A     -0.396218  
     313A     -0.394289   314A     -0.394124   315A     -0.386614  
     316A     -0.386434   317A     -0.363673   318A     -0.358616  
     319A     -0.358506   320A     -0.355567   321A     -0.340950  
     322A     -0.309938   323A     -0.309803   324A     -0.309348  
     325A     -0.259284   326A     -0.259164  

    Virtual:                                                              

     327A     -0.066550   328A     -0.066277   329A     -0.051370  
     330A     -0.047292   331A     -0.039717   332A     -0.031608  
     333A     -0.021260   334A     -0.021075   335A     -0.017821  
     336A     -0.015322   337A     -0.013537   338A     -0.013163  
     339A     -0.006882   340A     -0.000839   341A      0.000415  
     342A      0.001822   343A      0.002316   344A      0.004137  
     345A      0.007594   346A      0.008960   347A      0.009772  
     348A      0.010874   349A      0.011022   350A      0.011572  
     351A      0.013964   352A      0.014106   353A      0.015188  
     354A      0.015575   355A      0.018682   356A      0.018800  
     357A      0.018890   358A      0.023383   359A      0.023653  
     360A      0.024222   361A      0.026575   362A      0.028199  
     363A      0.029500   364A      0.030114   365A      0.030152  
     366A      0.036155   367A      0.036737   368A      0.038615  
     369A      0.039468   370A      0.040074   371A      0.041238  
     372A      0.043993   373A      0.044507   374A      0.045083  
     375A      0.047316   376A      0.047916   377A      0.051712  
     378A      0.052105   379A      0.052936   380A      0.053474  
     381A      0.057397   382A      0.057462   383A      0.059664  
     384A      0.060343   385A      0.061019   386A      0.061109  
     387A      0.061255   388A      0.061393   389A      0.061910  
     390A      0.063820   391A      0.066085   392A      0.068011  
     393A      0.069889   394A      0.070066   395A      0.070624  
     396A      0.072900   397A      0.073680   398A      0.077209  
     399A      0.079978   400A      0.081531   401A      0.082489  
     402A      0.083025   403A      0.084498   404A      0.085713  
     405A      0.086404   406A      0.087824   407A      0.091076  
     408A      0.092093   409A      0.092213   410A      0.092871  
     411A      0.092991   412A      0.096278   413A      0.097065  
     414A      0.097594   415A      0.097881   416A      0.101989  
     417A      0.102977   418A      0.104248   419A      0.106231  
     420A      0.106642   421A      0.107836   422A      0.111101  
     423A      0.111151   424A      0.111394   425A      0.112635  
     426A      0.113070   427A      0.114137   428A      0.117970  
     429A      0.118633   430A      0.118703   431A      0.120081  
     432A      0.120490   433A      0.122726   434A      0.123459  
     435A      0.124878   436A      0.125409   437A      0.126251  
     438A      0.127976   439A      0.128117   440A      0.131132  
     441A      0.131799   442A      0.131870   443A      0.135957  
     444A      0.136687   445A      0.138964   446A      0.139439  
     447A      0.140977   448A      0.141007   449A      0.141843  
     450A      0.146701   451A      0.149720   452A      0.150601  
     453A      0.151126   454A      0.151136   455A      0.151309  
     456A      0.152385   457A      0.153646   458A      0.153891  
     459A      0.155764   460A      0.155866   461A      0.156369  
     462A      0.156694   463A      0.157655   464A      0.157880  
     465A      0.158270   466A      0.159395   467A      0.160024  
     468A      0.160843   469A      0.161903   470A      0.162208  
     471A      0.162970   472A      0.164685   473A      0.165706  
     474A      0.166644   475A      0.166916   476A      0.168094  
     477A      0.169452   478A      0.170860   479A      0.171430  
     480A      0.171965   481A      0.172525   482A      0.172983  
     483A      0.175359   484A      0.175439   485A      0.175875  
     486A      0.177155   487A      0.179559   488A      0.179933  
     489A      0.180183   490A      0.180295   491A      0.181185  
     492A      0.182537   493A      0.183558   494A      0.186595  
     495A      0.186821   496A      0.188509   497A      0.189123  
     498A      0.189303   499A      0.191027   500A      0.192196  
     501A      0.193373   502A      0.195521   503A      0.196907  
     504A      0.197365   505A      0.198053   506A      0.199431  
     507A      0.200583   508A      0.202992   509A      0.204067  
     510A      0.204602   511A      0.204917   512A      0.205874  
     513A      0.208549   514A      0.209349   515A      0.210084  
     516A      0.211526   517A      0.213288   518A      0.213645  
     519A      0.215166   520A      0.215481   521A      0.217589  
     522A      0.217800   523A      0.218093   524A      0.219283  
     525A      0.219719   526A      0.221023   527A      0.222949  
     528A      0.225297   529A      0.225644   530A      0.226114  
     531A      0.227180   532A      0.227468   533A      0.228174  
     534A      0.229340   535A      0.230906   536A      0.231414  
     537A      0.233227   538A      0.233671   539A      0.235800  
     540A      0.235903   541A      0.237414   542A      0.238542  
     543A      0.239619   544A      0.240752   545A      0.241145  
     546A      0.242032   547A      0.242383   548A      0.243569  
     549A      0.245534   550A      0.247542   551A      0.248367  
     552A      0.248963   553A      0.250325   554A      0.251369  
     555A      0.253289   556A      0.254044   557A      0.254660  
     558A      0.254999   559A      0.255397   560A      0.255599  
     561A      0.258016   562A      0.259471   563A      0.260059  
     564A      0.261963   565A      0.262457   566A      0.262821  
     567A      0.263206   568A      0.265337   569A      0.266137  
     570A      0.266841   571A      0.267721   572A      0.268447  
     573A      0.268783   574A      0.269322   575A      0.269502  
     576A      0.271737   577A      0.272439   578A      0.272943  
     579A      0.273940   580A      0.275513   581A      0.275826  
     582A      0.276708   583A      0.278350   584A      0.279925  
     585A      0.280262   586A      0.280821   587A      0.281251  
     588A      0.281820   589A      0.282707   590A      0.283561  
     591A      0.286067   592A      0.286174   593A      0.286481  
     594A      0.288901   595A      0.289589   596A      0.290224  
     597A      0.292727   598A      0.292998   599A      0.294459  
     600A      0.294800   601A      0.295040   602A      0.296194  
     603A      0.296610   604A      0.296936   605A      0.298062  
     606A      0.299631   607A      0.301405   608A      0.302776  
     609A      0.302869   610A      0.304728   611A      0.306438  
     612A      0.308163   613A      0.309081   614A      0.310424  
     615A      0.310468   616A      0.313523   617A      0.315366  
     618A      0.315610   619A      0.315973   620A      0.316692  
     621A      0.317140   622A      0.317637   623A      0.318073  
     624A      0.320754   625A      0.322226   626A      0.322533  
     627A      0.326860   628A      0.326995   629A      0.327195  
     630A      0.327769   631A      0.328643   632A      0.329889  
     633A      0.330099   634A      0.330166   635A      0.331692  
     636A      0.332380   637A      0.334048   638A      0.336111  
     639A      0.337330   640A      0.339398   641A      0.339939  
     642A      0.340689   643A      0.341252   644A      0.342108  
     645A      0.342318   646A      0.342737   647A      0.343396  
     648A      0.343931   649A      0.344714   650A      0.344915  
     651A      0.345478   652A      0.346908   653A      0.347805  
     654A      0.348486   655A      0.349274   656A      0.351076  
     657A      0.351267   658A      0.351468   659A      0.352622  
     660A      0.353353   661A      0.354360   662A      0.355372  
     663A      0.355653   664A      0.356662   665A      0.358700  
     666A      0.359140   667A      0.359675   668A      0.360000  
     669A      0.361145   670A      0.362236   671A      0.362542  
     672A      0.363036   673A      0.364234   674A      0.364993  
     675A      0.366519   676A      0.366564   677A      0.368416  
     678A      0.370155   679A      0.370936   680A      0.372260  
     681A      0.373796   682A      0.373995   683A      0.375693  
     684A      0.376416   685A      0.376879   686A      0.377081  
     687A      0.377901   688A      0.378530   689A      0.379422  
     690A      0.379799   691A      0.380250   692A      0.383437  
     693A      0.384034   694A      0.385986   695A      0.386102  
     696A      0.386830   697A      0.387628   698A      0.388248  
     699A      0.391616   700A      0.394480   701A      0.397040  
     702A      0.397830   703A      0.398503   704A      0.399410  
     705A      0.399616   706A      0.399811   707A      0.400684  
     708A      0.401172   709A      0.402672   710A      0.403068  
     711A      0.404301   712A      0.404346   713A      0.405872  
     714A      0.406576   715A      0.408969   716A      0.410082  
     717A      0.410489   718A      0.411156   719A      0.411904  
     720A      0.412911   721A      0.413322   722A      0.415149  
     723A      0.415439   724A      0.417307   725A      0.417863  
     726A      0.418355   727A      0.420602   728A      0.421116  
     729A      0.421511   730A      0.421984   731A      0.423034  
     732A      0.423685   733A      0.423869   734A      0.424383  
     735A      0.425935   736A      0.426034   737A      0.428272  
     738A      0.430295   739A      0.431791   740A      0.433186  
     741A      0.434018   742A      0.435578   743A      0.435976  
     744A      0.437148   745A      0.438607   746A      0.439304  
     747A      0.440313   748A      0.441709   749A      0.443513  
     750A      0.444265   751A      0.448532   752A      0.449968  
     753A      0.450489   754A      0.450724   755A      0.451102  
     756A      0.452485   757A      0.453417   758A      0.456413  
     759A      0.458298   760A      0.459003   761A      0.460787  
     762A      0.461986   763A      0.462267   764A      0.462751  
     765A      0.463086   766A      0.464655   767A      0.465405  
     768A      0.466546   769A      0.468664   770A      0.469094  
     771A      0.471469   772A      0.471819   773A      0.473732  
     774A      0.477065   775A      0.478562   776A      0.478939  
     777A      0.479159   778A      0.482769   779A      0.485152  
     780A      0.485619   781A      0.486580   782A      0.486780  
     783A      0.487920   784A      0.490148   785A      0.494495  
     786A      0.497408   787A      0.502755   788A      0.503707  
     789A      0.504967   790A      0.507464   791A      0.507839  
     792A      0.508886   793A      0.511106   794A      0.512270  
     795A      0.514298   796A      0.514414   797A      0.515813  
     798A      0.516144   799A      0.518171   800A      0.518534  
     801A      0.521544   802A      0.522024   803A      0.522643  
     804A      0.523464   805A      0.524048   806A      0.524638  
     807A      0.526616   808A      0.529295   809A      0.530508  
     810A      0.532408   811A      0.533178   812A      0.535507  
     813A      0.536499   814A      0.538187   815A      0.538630  
     816A      0.538863   817A      0.543305   818A      0.543443  
     819A      0.544797   820A      0.547582   821A      0.549689  
     822A      0.549858   823A      0.551124   824A      0.552073  
     825A      0.554930   826A      0.562673   827A      0.564486  
     828A      0.565100   829A      0.566412   830A      0.566543  
     831A      0.573402   832A      0.575471   833A      0.575996  
     834A      0.577472   835A      0.582423   836A      0.585013  
     837A      0.585503   838A      0.592398   839A      0.592665  
     840A      0.599856   841A      0.600263   842A      0.600534  
     843A      0.604008   844A      0.605118   845A      0.605627  
     846A      0.605710   847A      0.606448   848A      0.611387  
     849A      0.612625   850A      0.614557   851A      0.617942  
     852A      0.625599   853A      0.630636   854A      0.631042  
     855A      0.632149   856A      0.632178   857A      0.635457  
     858A      0.637110   859A      0.637162   860A      0.638095  
     861A      0.642667   862A      0.643534   863A      0.645411  
     864A      0.645707   865A      0.646086   866A      0.649952  
     867A      0.651692   868A      0.652173   869A      0.656757  
     870A      0.662751   871A      0.664730   872A      0.667022  
     873A      0.672781   874A      0.674759   875A      0.678650  
     876A      0.684950   877A      0.685578   878A      0.687157  
     879A      0.687482   880A      0.688506   881A      0.688849  
     882A      0.690816   883A      0.692009   884A      0.696075  
     885A      0.696173   886A      0.699835   887A      0.702379  
     888A      0.710457   889A      0.714662   890A      0.716754  
     891A      0.721733   892A      0.725028   893A      0.730505  
     894A      0.730745   895A      0.733531   896A      0.734449  
     897A      0.737539   898A      0.738765   899A      0.740158  
     900A      0.740949   901A      0.745234   902A      0.747411  
     903A      0.748600   904A      0.750260   905A      0.751937  
     906A      0.753704   907A      0.755849   908A      0.757440  
     909A      0.758852   910A      0.762042   911A      0.762845  
     912A      0.764439   913A      0.765145   914A      0.765877  
     915A      0.767064   916A      0.769148   917A      0.774652  
     918A      0.774752   919A      0.776530   920A      0.777085  
     921A      0.779388   922A      0.781501   923A      0.782248  
     924A      0.782618   925A      0.786042   926A      0.787113  
     927A      0.788463   928A      0.791008   929A      0.793035  
     930A      0.793793   931A      0.795010   932A      0.799431  
     933A      0.801463   934A      0.803492   935A      0.804280  
     936A      0.807112   937A      0.808110   938A      0.809790  
     939A      0.810813   940A      0.812866   941A      0.813852  
     942A      0.815096   943A      0.815774   944A      0.818245  
     945A      0.819126   946A      0.819255   947A      0.822001  
     948A      0.822463   949A      0.823411   950A      0.824291  
     951A      0.825401   952A      0.826939   953A      0.827575  
     954A      0.832487   955A      0.833273   956A      0.835993  
     957A      0.836258   958A      0.837440   959A      0.838478  
     960A      0.839076   961A      0.843836   962A      0.844842  
     963A      0.846532   964A      0.850846   965A      0.853734  
     966A      0.853965   967A      0.854355   968A      0.855799  
     969A      0.858506   970A      0.861184   971A      0.863808  
     972A      0.866407   973A      0.866891   974A      0.867473  
     975A      0.867559   976A      0.868250   977A      0.868942  
     978A      0.869322   979A      0.873363   980A      0.874463  
     981A      0.875723   982A      0.876473   983A      0.878291  
     984A      0.879786   985A      0.880466   986A      0.882161  
     987A      0.883284   988A      0.884687   989A      0.887873  
     990A      0.889595   991A      0.890635   992A      0.893360  
     993A      0.894395   994A      0.895396   995A      0.897203  
     996A      0.897714   997A      0.898774   998A      0.899999  
     999A      0.900047  1000A      0.901056  1001A      0.901853  
    1002A      0.902847  1003A      0.903730  1004A      0.904580  
    1005A      0.904812  1006A      0.907235  1007A      0.912231  
    1008A      0.912300  1009A      0.914961  1010A      0.915381  
    1011A      0.917016  1012A      0.919889  1013A      0.924076  
    1014A      0.928343  1015A      0.928910  1016A      0.931249  
    1017A      0.933130  1018A      0.939992  1019A      0.940418  
    1020A      0.940457  1021A      0.940782  1022A      0.947377  
    1023A      0.948672  1024A      0.949153  1025A      0.950642  
    1026A      0.951330  1027A      0.951582  1028A      0.952915  
    1029A      0.956793  1030A      0.959117  1031A      0.959535  
    1032A      0.962238  1033A      0.964088  1034A      0.966051  
    1035A      0.966256  1036A      0.966840  1037A      0.969313  
    1038A      0.969703  1039A      0.974034  1040A      0.975790  
    1041A      0.977096  1042A      0.979867  1043A      0.981101  
    1044A      0.981823  1045A      0.983848  1046A      0.986924  
    1047A      0.988208  1048A      0.990322  1049A      0.991203  
    1050A      0.992853  1051A      0.993265  1052A      0.993534  
    1053A      0.993801  1054A      0.994913  1055A      0.996745  
    1056A      0.998103  1057A      0.998330  1058A      0.998484  
    1059A      0.998994  1060A      0.999525  1061A      1.003762  
    1062A      1.006185  1063A      1.007398  1064A      1.007590  
    1065A      1.008935  1066A      1.010388  1067A      1.012076  
    1068A      1.012555  1069A      1.013805  1070A      1.014705  
    1071A      1.014927  1072A      1.015270  1073A      1.016141  
    1074A      1.016797  1075A      1.017243  1076A      1.017865  
    1077A      1.018808  1078A      1.019837  1079A      1.020113  
    1080A      1.020906  1081A      1.021592  1082A      1.021949  
    1083A      1.022964  1084A      1.023946  1085A      1.024477  
    1086A      1.025103  1087A      1.025965  1088A      1.026841  
    1089A      1.027706  1090A      1.028077  1091A      1.028657  
    1092A      1.029257  1093A      1.029913  1094A      1.031026  
    1095A      1.032948  1096A      1.033545  1097A      1.034371  
    1098A      1.035164  1099A      1.035440  1100A      1.035799  
    1101A      1.036411  1102A      1.037596  1103A      1.041806  
    1104A      1.042483  1105A      1.043337  1106A      1.044630  
    1107A      1.046677  1108A      1.047692  1109A      1.048028  
    1110A      1.048726  1111A      1.049626  1112A      1.053511  
    1113A      1.054508  1114A      1.057104  1115A      1.058580  
    1116A      1.059726  1117A      1.062105  1118A      1.065216  
    1119A      1.065621  1120A      1.066589  1121A      1.072270  
    1122A      1.073023  1123A      1.074584  1124A      1.075981  
    1125A      1.079220  1126A      1.079334  1127A      1.079490  
    1128A      1.081459  1129A      1.082518  1130A      1.083004  
    1131A      1.084333  1132A      1.084487  1133A      1.089308  
    1134A      1.090185  1135A      1.090592  1136A      1.091135  
    1137A      1.093895  1138A      1.095377  1139A      1.096430  
    1140A      1.097006  1141A      1.100498  1142A      1.102576  
    1143A      1.102928  1144A      1.104357  1145A      1.107724  
    1146A      1.109171  1147A      1.111392  1148A      1.112963  
    1149A      1.115036  1150A      1.115397  1151A      1.120895  
    1152A      1.121230  1153A      1.122948  1154A      1.126205  
    1155A      1.128982  1156A      1.131288  1157A      1.132071  
    1158A      1.133766  1159A      1.136642  1160A      1.137421  
    1161A      1.139178  1162A      1.147004  1163A      1.147099  
    1164A      1.147837  1165A      1.148189  1166A      1.150583  
    1167A      1.150863  1168A      1.151303  1169A      1.155593  
    1170A      1.157972  1171A      1.158678  1172A      1.161261  
    1173A      1.162949  1174A      1.164552  1175A      1.165624  
    1176A      1.167875  1177A      1.169221  1178A      1.169602  
    1179A      1.171218  1180A      1.172687  1181A      1.174123  
    1182A      1.179265  1183A      1.179871  1184A      1.192317  
    1185A      1.192350  1186A      1.194743  1187A      1.198076  
    1188A      1.198784  1189A      1.199258  1190A      1.202340  
    1191A      1.207928  1192A      1.208081  1193A      1.208719  
    1194A      1.209800  1195A      1.217088  1196A      1.217481  
    1197A      1.219054  1198A      1.219816  1199A      1.226883  
    1200A      1.231929  1201A      1.232297  1202A      1.236409  
    1203A      1.237136  1204A      1.237262  1205A      1.240361  
    1206A      1.240802  1207A      1.242531  1208A      1.243880  
    1209A      1.249714  1210A      1.250090  1211A      1.252097  
    1212A      1.252264  1213A      1.253472  1214A      1.258325  
    1215A      1.259042  1216A      1.259892  1217A      1.261528  
    1218A      1.265775  1219A      1.266285  1220A      1.266419  
    1221A      1.266909  1222A      1.268827  1223A      1.272772  
    1224A      1.273096  1225A      1.277528  1226A      1.277780  
    1227A      1.280356  1228A      1.281756  1229A      1.282256  
    1230A      1.285503  1231A      1.285786  1232A      1.288667  
    1233A      1.292737  1234A      1.296018  1235A      1.298884  
    1236A      1.300712  1237A      1.300941  1238A      1.302501  
    1239A      1.303705  1240A      1.307247  1241A      1.309154  
    1242A      1.309638  1243A      1.310398  1244A      1.313355  
    1245A      1.317532  1246A      1.319435  1247A      1.319881  
    1248A      1.321542  1249A      1.322325  1250A      1.329588  
    1251A      1.332694  1252A      1.334900  1253A      1.336026  
    1254A      1.339665  1255A      1.341406  1256A      1.341583  
    1257A      1.342579  1258A      1.349653  1259A      1.352169  
    1260A      1.353312  1261A      1.353614  1262A      1.354628  
    1263A      1.355870  1264A      1.356787  1265A      1.358409  
    1266A      1.360262  1267A      1.360901  1268A      1.364419  
    1269A      1.366080  1270A      1.367725  1271A      1.371147  
    1272A      1.373057  1273A      1.373425  1274A      1.374292  
    1275A      1.376501  1276A      1.376674  1277A      1.378614  
    1278A      1.382112  1279A      1.382382  1280A      1.383653  
    1281A      1.383763  1282A      1.385847  1283A      1.388049  
    1284A      1.390138  1285A      1.391163  1286A      1.392062  
    1287A      1.392609  1288A      1.395265  1289A      1.395448  
    1290A      1.396853  1291A      1.398299  1292A      1.408045  
    1293A      1.409941  1294A      1.414043  1295A      1.415368  
    1296A      1.416093  1297A      1.416524  1298A      1.418257  
    1299A      1.418671  1300A      1.424572  1301A      1.429595  
    1302A      1.430063  1303A      1.430934  1304A      1.436261  
    1305A      1.440333  1306A      1.441335  1307A      1.443763  
    1308A      1.449420  1309A      1.450782  1310A      1.451021  
    1311A      1.453608  1312A      1.462858  1313A      1.463980  
    1314A      1.482915  1315A      1.485877  1316A      1.486467  
    1317A      1.489208  1318A      1.493850  1319A      1.497710  
    1320A      1.497849  1321A      1.499720  1322A      1.526093  
    1323A      1.527879  1324A      1.537615  1325A      1.539055  
    1326A      1.541816  1327A      1.545730  1328A      1.547193  
    1329A      1.548201  1330A      1.548825  1331A      1.550974  
    1332A      1.551471  1333A      1.553215  1334A      1.555332  
    1335A      1.555763  1336A      1.556013  1337A      1.558554  
    1338A      1.558592  1339A      1.559145  1340A      1.560074  
    1341A      1.560904  1342A      1.563813  1343A      1.565553  
    1344A      1.566180  1345A      1.569352  1346A      1.571582  
    1347A      1.572413  1348A      1.572689  1349A      1.575014  
    1350A      1.575992  1351A      1.579659  1352A      1.580232  
    1353A      1.581854  1354A      1.582290  1355A      1.582722  
    1356A      1.583106  1357A      1.584219  1358A      1.584314  
    1359A      1.585651  1360A      1.587507  1361A      1.588558  
    1362A      1.590324  1363A      1.591503  1364A      1.595802  
    1365A      1.597500  1366A      1.597721  1367A      1.601434  
    1368A      1.601563  1369A      1.602997  1370A      1.609322  
    1371A      1.609787  1372A      1.612273  1373A      1.612460  
    1374A      1.613109  1375A      1.613855  1376A      1.613896  
    1377A      1.615220  1378A      1.621639  1379A      1.621968  
    1380A      1.622697  1381A      1.623402  1382A      1.628394  
    1383A      1.633227  1384A      1.634034  1385A      1.638413  
    1386A      1.640199  1387A      1.640578  1388A      1.641321  
    1389A      1.641755  1390A      1.642836  1391A      1.645040  
    1392A      1.654371  1393A      1.654694  1394A      1.654892  
    1395A      1.659423  1396A      1.661154  1397A      1.661422  
    1398A      1.664116  1399A      1.665684  1400A      1.666707  
    1401A      1.666900  1402A      1.669584  1403A      1.670534  
    1404A      1.682978  1405A      1.683192  1406A      1.686823  
    1407A      1.690190  1408A      1.691123  1409A      1.692770  
    1410A      1.693396  1411A      1.695347  1412A      1.696203  
    1413A      1.705349  1414A      1.708343  1415A      1.710324  
    1416A      1.713710  1417A      1.725009  1418A      1.727141  
    1419A      1.732651  1420A      1.733169  1421A      1.733685  
    1422A      1.746248  1423A      1.746432  1424A      1.753989  
    1425A      1.756356  1426A      1.763748  1427A      1.767678  
    1428A      1.768861  1429A      1.770851  1430A      1.771873  
    1431A      1.773104  1432A      1.773391  1433A      1.774341  
    1434A      1.775429  1435A      1.777164  1436A      1.778141  
    1437A      1.778403  1438A      1.780619  1439A      1.781684  
    1440A      1.781866  1441A      1.783006  1442A      1.783635  
    1443A      1.788159  1444A      1.789686  1445A      1.802356  
    1446A      1.802692  1447A      1.805204  1448A      1.805498  
    1449A      1.807639  1450A      1.807777  1451A      1.809701  
    1452A      1.811016  1453A      1.814028  1454A      1.815717  
    1455A      1.816115  1456A      1.818993  1457A      1.819478  
    1458A      1.821136  1459A      1.827116  1460A      1.827998  
    1461A      1.828128  1462A      1.828709  1463A      1.829269  
    1464A      1.829422  1465A      1.830350  1466A      1.831265  
    1467A      1.831491  1468A      1.833931  1469A      1.834305  
    1470A      1.836466  1471A      1.842678  1472A      1.848394  
    1473A      1.848915  1474A      1.851747  1475A      1.852066  
    1476A      1.856413  1477A      1.859961  1478A      1.860193  
    1479A      1.862193  1480A      1.865761  1481A      1.866469  
    1482A      1.866831  1483A      1.867716  1484A      1.869390  
    1485A      1.870183  1486A      1.870737  1487A      1.876328  
    1488A      1.881750  1489A      1.882076  1490A      1.882771  
    1491A      1.884130  1492A      1.885098  1493A      1.885566  
    1494A      1.886499  1495A      1.886999  1496A      1.889270  
    1497A      1.890168  1498A      1.891319  1499A      1.896680  
    1500A      1.898022  1501A      1.899043  1502A      1.900809  
    1503A      1.903734  1504A      1.904390  1505A      1.906364  
    1506A      1.906384  1507A      1.907013  1508A      1.911838  
    1509A      1.913592  1510A      1.914919  1511A      1.916652  
    1512A      1.917382  1513A      1.918320  1514A      1.920935  
    1515A      1.922821  1516A      1.925636  1517A      1.928595  
    1518A      1.929962  1519A      1.935394  1520A      1.937914  
    1521A      1.938049  1522A      1.938919  1523A      1.939881  
    1524A      1.940356  1525A      1.952480  1526A      1.952883  
    1527A      1.955701  1528A      1.956546  1529A      1.957741  
    1530A      1.961294  1531A      1.961323  1532A      1.962338  
    1533A      1.962768  1534A      1.964492  1535A      1.964781  
    1536A      1.965241  1537A      1.966433  1538A      1.970005  
    1539A      1.972488  1540A      1.975442  1541A      1.976009  
    1542A      1.978807  1543A      1.979889  1544A      1.981798  
    1545A      1.984701  1546A      1.987370  1547A      1.987997  
    1548A      1.992380  1549A      1.994580  1550A      1.995630  
    1551A      1.997435  1552A      1.998978  1553A      2.000396  
    1554A      2.001981  1555A      2.003769  1556A      2.004585  
    1557A      2.005584  1558A      2.005740  1559A      2.011663  
    1560A      2.013945  1561A      2.014499  1562A      2.015882  
    1563A      2.020517  1564A      2.023649  1565A      2.024729  
    1566A      2.025620  1567A      2.026046  1568A      2.026873  
    1569A      2.027455  1570A      2.028393  1571A      2.029507  
    1572A      2.031690  1573A      2.032880  1574A      2.034472  
    1575A      2.034964  1576A      2.035395  1577A      2.036689  
    1578A      2.037344  1579A      2.037843  1580A      2.039197  
    1581A      2.040077  1582A      2.041763  1583A      2.042744  
    1584A      2.043101  1585A      2.044152  1586A      2.046877  
    1587A      2.047481  1588A      2.048959  1589A      2.052067  
    1590A      2.055006  1591A      2.056696  1592A      2.057500  
    1593A      2.058006  1594A      2.058878  1595A      2.059553  
    1596A      2.062614  1597A      2.063387  1598A      2.064412  
    1599A      2.067117  1600A      2.071321  1601A      2.072093  
    1602A      2.072541  1603A      2.072681  1604A      2.073425  
    1605A      2.074026  1606A      2.074717  1607A      2.076301  
    1608A      2.079492  1609A      2.081571  1610A      2.082110  
    1611A      2.085555  1612A      2.086674  1613A      2.087240  
    1614A      2.088819  1615A      2.089788  1616A      2.090664  
    1617A      2.091063  1618A      2.099685  1619A      2.099889  
    1620A      2.101863  1621A      2.101991  1622A      2.103350  
    1623A      2.104312  1624A      2.104627  1625A      2.105514  
    1626A      2.109162  1627A      2.109977  1628A      2.116530  
    1629A      2.116797  1630A      2.124901  1631A      2.126215  
    1632A      2.126580  1633A      2.127863  1634A      2.128777  
    1635A      2.133418  1636A      2.133553  1637A      2.134577  
    1638A      2.135013  1639A      2.137227  1640A      2.138016  
    1641A      2.141265  1642A      2.141728  1643A      2.143229  
    1644A      2.144175  1645A      2.146005  1646A      2.146693  
    1647A      2.148757  1648A      2.149729  1649A      2.151714  
    1650A      2.154847  1651A      2.157783  1652A      2.158898  
    1653A      2.159354  1654A      2.164386  1655A      2.168114  
    1656A      2.168315  1657A      2.169248  1658A      2.169364  
    1659A      2.171050  1660A      2.173699  1661A      2.174215  
    1662A      2.177906  1663A      2.179683  1664A      2.180434  
    1665A      2.181170  1666A      2.181364  1667A      2.183017  
    1668A      2.183260  1669A      2.187637  1670A      2.190925  
    1671A      2.193020  1672A      2.194532  1673A      2.195202  
    1674A      2.208064  1675A      2.209636  1676A      2.210103  
    1677A      2.211696  1678A      2.213012  1679A      2.216955  
    1680A      2.217511  1681A      2.219510  1682A      2.228472  
    1683A      2.229564  1684A      2.237004  1685A      2.237557  
    1686A      2.240596  1687A      2.242736  1688A      2.244220  
    1689A      2.249651  1690A      2.249993  1691A      2.254315  
    1692A      2.260798  1693A      2.267897  1694A      2.270058  
    1695A      2.270450  1696A      2.272155  1697A      2.272540  
    1698A      2.274180  1699A      2.276157  1700A      2.276573  
    1701A      2.277143  1702A      2.278498  1703A      2.279929  
    1704A      2.283657  1705A      2.286590  1706A      2.287115  
    1707A      2.287578  1708A      2.289324  1709A      2.289834  
    1710A      2.290557  1711A      2.292969  1712A      2.293374  
    1713A      2.310444  1714A      2.314905  1715A      2.315018  
    1716A      2.316543  1717A      2.329504  1718A      2.333030  
    1719A      2.334314  1720A      2.335830  1721A      2.337278  
    1722A      2.340923  1723A      2.350285  1724A      2.359518  
    1725A      2.363661  1726A      2.364779  1727A      2.368178  
    1728A      2.372752  1729A      2.376145  1730A      2.386637  
    1731A      2.389034  1732A      2.396771  1733A      2.397372  
    1734A      2.409775  1735A      2.409894  1736A      2.413273  
    1737A      2.413397  1738A      2.417562  1739A      2.417914  
    1740A      2.437292  1741A      2.437940  1742A      2.439042  
    1743A      2.448074  1744A      2.453099  1745A      2.453938  
    1746A      2.457551  1747A      2.462753  1748A      2.464950  
    1749A      2.483303  1750A      2.483666  1751A      2.484138  
    1752A      2.485874  1753A      2.487679  1754A      2.488896  
    1755A      2.489510  1756A      2.492929  1757A      2.494534  
    1758A      2.495905  1759A      2.497275  1760A      2.499842  
    1761A      2.500169  1762A      2.509156  1763A      2.515479  
    1764A      2.516706  1765A      2.518844  1766A      2.527268  
    1767A      2.530826  1768A      2.531438  1769A      2.531767  
    1770A      2.532168  1771A      2.536119  1772A      2.536516  
    1773A      2.538690  1774A      2.541516  1775A      2.547274  
    1776A      2.547302  1777A      2.558412  1778A      2.559013  
    1779A      2.559216  1780A      2.559582  1781A      2.563385  
    1782A      2.563448  1783A      2.577988  1784A      2.585452  
    1785A      2.586651  1786A      2.588826  1787A      2.590196  
    1788A      2.592700  1789A      2.593874  1790A      2.594128  
    1791A      2.594858  1792A      2.599857  1793A      2.602349  
    1794A      2.602727  1795A      2.609245  1796A      2.610520  
    1797A      2.614324  1798A      2.616829  1799A      2.617245  
    1800A      2.617720  1801A      2.623188  1802A      2.624552  
    1803A      2.625271  1804A      2.630086  1805A      2.630658  
    1806A      2.632293  1807A      2.636077  1808A      2.636288  
    1809A      2.636822  1810A      2.637689  1811A      2.640975  
    1812A      2.642398  1813A      2.648244  1814A      2.661066  
    1815A      2.667771  1816A      2.676042  1817A      2.676227  
    1818A      2.677281  1819A      2.678273  1820A      2.678688  
    1821A      2.682415  1822A      2.697610  1823A      2.702888  
    1824A      2.703701  1825A      2.704415  1826A      2.709951  
    1827A      2.714023  1828A      2.715945  1829A      2.719325  
    1830A      2.723806  1831A      2.724848  1832A      2.727884  
    1833A      2.742784  1834A      2.743543  1835A      2.745096  
    1836A      2.745969  1837A      2.746269  1838A      2.752478  
    1839A      2.754747  1840A      2.755652  1841A      2.758528  
    1842A      2.758941  1843A      2.760905  1844A      2.762077  
    1845A      2.766548  1846A      2.771543  1847A      2.771712  
    1848A      2.784591  1849A      2.786527  1850A      2.787213  
    1851A      2.787563  1852A      2.790747  1853A      2.807458  
    1854A      2.809418  1855A      2.809540  1856A      2.815814  
    1857A      2.817290  1858A      2.819979  1859A      2.822656  
    1860A      2.838096  1861A      2.839018  1862A      2.857602  
    1863A      2.864575  1864A      2.865041  1865A      2.874430  
    1866A      2.876818  1867A      2.881433  1868A      2.881577  
    1869A      2.909227  1870A      2.911411  1871A      2.911889  
    1872A      2.922654  1873A      2.932182  1874A      2.938212  
    1875A      2.939131  1876A      2.973909  1877A      2.974840  
    1878A      2.981758  1879A      2.985155  1880A      2.991739  
    1881A      2.992924  1882A      2.993297  1883A      2.994747  
    1884A      3.001937  1885A      3.002386  1886A      3.011971  
    1887A      3.017952  1888A      3.055484  1889A      3.059481  
    1890A      3.059767  1891A      3.064844  1892A      3.068461  
    1893A      3.071795  1894A      3.072961  1895A      3.077878  
    1896A      3.079182  1897A      3.081990  1898A      3.088444  
    1899A      3.089693  1900A      3.093324  1901A      3.094257  
    1902A      3.095806  1903A      3.096719  1904A      3.100545  
    1905A      3.109401  1906A      3.111113  1907A      3.120035  
    1908A      3.121986  1909A      3.122194  1910A      3.139747  
    1911A      3.140597  1912A      3.167248  1913A      3.198509  
    1914A      3.205511  1915A      3.206187  1916A      3.206733  
    1917A      3.207973  1918A      3.210149  1919A      3.213996  
    1920A      3.217135  1921A      3.220837  1922A      3.221193  
    1923A      3.238895  1924A      3.241466  1925A      3.243191  
    1926A      3.249074  1927A      3.305135  1928A      3.306215  
    1929A      3.313742  1930A      3.359398  1931A      3.372889  
    1932A      3.374997  1933A      3.377310  1934A      3.388761  
    1935A      3.392945  1936A      3.404313  1937A      3.407733  
    1938A      3.408774  1939A      3.414635  1940A      3.417629  
    1941A      3.425113  1942A      3.429471  1943A      3.436971  
    1944A      3.452667  1945A      3.455521  1946A      3.482630  
    1947A      3.518088  1948A      3.519833  1949A      3.527885  
    1950A      3.535319  1951A      3.544454  1952A      3.584666  
    1953A      3.586805  1954A      3.609316  1955A      3.611571  
    1956A      3.649028  1957A      3.690946  1958A      3.694580  
    1959A      3.695204  1960A      3.706204  1961A      3.723170  
    1962A      3.724331  1963A      3.787531  1964A      3.788254  
    1965A      3.816654  1966A      3.819517  1967A      3.849307  
    1968A      3.857221  1969A      3.880668  1970A      3.883422  
    1971A      3.892905  1972A      3.894204  1973A      3.902365  
    1974A      3.907531  1975A      3.914617  1976A      3.967806  
    1977A      3.970249  1978A      4.013721  1979A      4.170615  
    1980A      4.242709  1981A      4.334167  

    Final Occupation by Irrep:
              A 
    DOCC [   326 ]
    NA   [   326 ]
    NB   [   326 ]

  @DF-RHF Final Energy: -3953.64931028108094

   => Energetics <=

    Nuclear Repulsion Energy =          17798.5178072382768732
    One-Electron Energy =              -40807.2895830244160607
    Two-Electron Energy =               19055.1224655050573347
    Total Energy =                      -3953.6493102810818527

Computation Completed


Properties will be evaluated at   0.000000,   0.000000,   0.000000 [a0]

Properties computed using the SCF density matrix


 Multipole Moments:

 ------------------------------------------------------------------------------------
     Multipole            Electronic (a.u.)      Nuclear  (a.u.)        Total (a.u.)
 ------------------------------------------------------------------------------------

 L = 1.  Multiply by 2.5417464519 to convert [e a0] to [Debye]
 Dipole X            :         -0.0023674            0.0004804           -0.0018870
 Dipole Y            :         -0.0497429            0.0561130            0.0063701
 Dipole Z            :         28.3140223          -38.1969296           -9.8829073
 Magnitude           :                                                    9.8829095

 ------------------------------------------------------------------------------------

*** tstop() called on n2cn0973 at Sat Jan 27 01:34:59 2024
Module time:
	user time   =   26682.91 seconds =     444.72 minutes
	system time =    1986.02 seconds =      33.10 minutes
	total time  =       4965 seconds =      82.75 minutes
Total time:
	user time   =   26682.91 seconds =     444.72 minutes
	system time =    1986.02 seconds =      33.10 minutes
	total time  =       4965 seconds =      82.75 minutes

  //>>>>>>>>>>>>>>>>>>>>>>>>>>>>>>>>>>>//
  //            Monomer A HF           //
  //<<<<<<<<<<<<<<<<<<<<<<<<<<<<<<<<<<<//

   => Libint2 <=

    Primary   basis highest AM E, G, H:  5, 4, 3
    Auxiliary basis highest AM E, G, H:  6, 5, 4
    Onebody   basis highest AM E, G, H:  6, 5, 4
    Solid Harmonics ordering:            gaussian

*** tstart() called on n2cn0973
*** at Sat Jan 27 01:35:00 2024

   => Loading Basis Set <=

    Name: JUN-CC-PVDZ
    Role: ORBITAL
    Keyword: BASIS
    atoms 1-2, 4-5, 10, 17-34, 41-53, 56-70, 73-89, 92-104, 109-119, 122-130 entry C          line   164 file /opt/software/pc2/EB-SW/software/PSI4/1.9-foss-2022a/share/psi4/basis/jun-cc-pvdz.gbs 
    atoms 3, 6                                                               entry N          line   198 file /opt/software/pc2/EB-SW/software/PSI4/1.9-foss-2022a/share/psi4/basis/jun-cc-pvdz.gbs 
    atoms 7-9, 11-16, 35-40, 54-55, 71-72, 90-91, 105-108, 120-121, 131-136  entry H          line    36 file /opt/software/pc2/EB-SW/software/PSI4/1.9-foss-2022a/share/psi4/basis/jun-cc-pvdz.gbs 


         ---------------------------------------------------------
                                   SCF
               by Justin Turney, Rob Parrish, Andy Simmonett
                          and Daniel G. A. Smith
                              RHF Reference
                       16 Threads,  61035 MiB Core
         ---------------------------------------------------------

  ==> Geometry <==

    Molecular point group: c1
    Full point group: C1

    Geometry (in Angstrom), charge = 1, multiplicity = 1:

       Center              X                  Y                   Z               Mass       
    ------------   -----------------  -----------------  -----------------  -----------------
         C            0.680062820275    -0.008027535675    -7.312735758930    12.000000000000
         C           -0.680508179725    -0.005999535675    -7.312351758930    12.000000000000
         N           -1.085639179725    -0.005001535675    -5.994027758930    14.003074004430
         C            0.000103820275    -0.001725535675    -5.212626758930    12.000000000000
[...]
    1579A      2.162816  1580A      2.169855  1581A      2.171558  
    1582A      2.172508  1583A      2.179666  1584A      2.180863  
    1585A      2.181350  1586A      2.182630  1587A      2.188804  
    1588A      2.188866  1589A      2.191405  1590A      2.191526  
    1591A      2.192599  1592A      2.194215  1593A      2.195208  
    1594A      2.197504  1595A      2.197783  1596A      2.199356  
    1597A      2.200676  1598A      2.200818  1599A      2.201508  
    1600A      2.202407  1601A      2.204701  1602A      2.205567  
    1603A      2.209999  1604A      2.210575  1605A      2.214012  
    1606A      2.214073  1607A      2.216581  1608A      2.220203  
    1609A      2.222202  1610A      2.222761  1611A      2.224376  
    1612A      2.224871  1613A      2.224953  1614A      2.226431  
    1615A      2.228940  1616A      2.232148  1617A      2.232406  
    1618A      2.234123  1619A      2.238920  1620A      2.239130  
    1621A      2.239985  1622A      2.241685  1623A      2.247602  
    1624A      2.247918  1625A      2.248396  1626A      2.250278  
    1627A      2.260826  1628A      2.261905  1629A      2.263512  
    1630A      2.264077  1631A      2.265185  1632A      2.266712  
    1633A      2.269675  1634A      2.275381  1635A      2.281133  
    1636A      2.283124  1637A      2.284347  1638A      2.289292  
    1639A      2.290726  1640A      2.291049  1641A      2.296418  
    1642A      2.296875  1643A      2.303940  1644A      2.304211  
    1645A      2.309228  1646A      2.312121  1647A      2.317287  
    1648A      2.324754  1649A      2.324987  1650A      2.325313  
    1651A      2.327288  1652A      2.329538  1653A      2.330678  
    1654A      2.331138  1655A      2.333036  1656A      2.334377  
    1657A      2.335258  1658A      2.335650  1659A      2.340156  
    1660A      2.341463  1661A      2.342215  1662A      2.342384  
    1663A      2.344961  1664A      2.345841  1665A      2.346369  
    1666A      2.349113  1667A      2.349460  1668A      2.358974  
    1669A      2.363435  1670A      2.369254  1671A      2.372952  
    1672A      2.374987  1673A      2.383773  1674A      2.388083  
    1675A      2.390620  1676A      2.392106  1677A      2.393882  
    1678A      2.397200  1679A      2.402160  1680A      2.418374  
    1681A      2.419780  1682A      2.423954  1683A      2.427553  
    1684A      2.432292  1685A      2.441587  1686A      2.443936  
    1687A      2.452518  1688A      2.453106  1689A      2.456969  
    1690A      2.461325  1691A      2.464518  1692A      2.464795  
    1693A      2.467501  1694A      2.467980  1695A      2.468914  
    1696A      2.471967  1697A      2.472202  1698A      2.480327  
    1699A      2.484904  1700A      2.491114  1701A      2.491605  
    1702A      2.495065  1703A      2.502000  1704A      2.506960  
    1705A      2.507582  1706A      2.511622  1707A      2.516305  
    1708A      2.528993  1709A      2.539154  1710A      2.539372  
    1711A      2.540421  1712A      2.542193  1713A      2.543019  
    1714A      2.545481  1715A      2.547845  1716A      2.548756  
    1717A      2.549288  1718A      2.551571  1719A      2.556579  
    1720A      2.556749  1721A      2.564305  1722A      2.571252  
    1723A      2.571857  1724A      2.580007  1725A      2.583869  
    1726A      2.584171  1727A      2.585101  1728A      2.586229  
    1729A      2.588392  1730A      2.588680  1731A      2.588968  
    1732A      2.593229  1733A      2.593599  1734A      2.601412  
    1735A      2.601512  1736A      2.612880  1737A      2.613197  
    1738A      2.613446  1739A      2.613952  1740A      2.617905  
    1741A      2.617930  1742A      2.633055  1743A      2.640584  
    1744A      2.641581  1745A      2.643342  1746A      2.643881  
    1747A      2.645574  1748A      2.647599  1749A      2.648682  
    1750A      2.649339  1751A      2.653090  1752A      2.655695  
    1753A      2.656390  1754A      2.658138  1755A      2.660278  
    1756A      2.666023  1757A      2.666308  1758A      2.667433  
    1759A      2.669519  1760A      2.670497  1761A      2.670996  
    1762A      2.673697  1763A      2.677115  1764A      2.677933  
    1765A      2.682822  1766A      2.684930  1767A      2.686820  
    1768A      2.687984  1769A      2.691285  1770A      2.691529  
    1771A      2.691781  1772A      2.692539  1773A      2.696144  
    1774A      2.697377  1775A      2.704424  1776A      2.720889  
    1777A      2.730755  1778A      2.730808  1779A      2.731399  
    1780A      2.731805  1781A      2.732114  1782A      2.746419  
    1783A      2.752972  1784A      2.754750  1785A      2.760593  
    1786A      2.761196  1787A      2.772550  1788A      2.773395  
    1789A      2.776003  1790A      2.779566  1791A      2.781365  
    1792A      2.799321  1793A      2.799881  1794A      2.802025  
    1795A      2.802225  1796A      2.802306  1797A      2.810960  
    1798A      2.812366  1799A      2.815646  1800A      2.815793  
    1801A      2.816349  1802A      2.816898  1803A      2.826467  
    1804A      2.828750  1805A      2.828903  1806A      2.840155  
    1807A      2.840891  1808A      2.842437  1809A      2.843063  
    1810A      2.845733  1811A      2.849530  1812A      2.864544  
    1813A      2.865520  1814A      2.865826  1815A      2.870552  
    1816A      2.872039  1817A      2.875318  1818A      2.888896  
    1819A      2.895956  1820A      2.896841  1821A      2.900110  
    1822A      2.914934  1823A      2.917535  1824A      2.917983  
    1825A      2.924822  1826A      2.927459  1827A      2.929842  
    1828A      2.930107  1829A      2.935179  1830A      2.935549  
    1831A      2.960919  1832A      2.963624  1833A      2.965262  
    1834A      2.965523  1835A      2.976061  1836A      2.982917  
    1837A      2.992484  1838A      2.993598  1839A      3.014191  
    1840A      3.027457  1841A      3.029463  1842A      3.030585  
    1843A      3.035635  1844A      3.039085  1845A      3.046863  
    1846A      3.047751  1847A      3.048197  1848A      3.055369  
    1849A      3.057671  1850A      3.057829  1851A      3.063973  
    1852A      3.072951  1853A      3.108705  1854A      3.113064  
    1855A      3.113302  1856A      3.122925  1857A      3.127471  
    1858A      3.128297  1859A      3.132714  1860A      3.134771  
    1861A      3.142224  1862A      3.143176  1863A      3.146733  
    1864A      3.149120  1865A      3.149480  1866A      3.150335  
    1867A      3.151329  1868A      3.153735  1869A      3.162344  
    1870A      3.167901  1871A      3.173229  1872A      3.175278  
    1873A      3.175556  1874A      3.193140  1875A      3.194046  
    1876A      3.220190  1877A      3.252851  1878A      3.259648  
    1879A      3.261308  1880A      3.261767  1881A      3.262306  
    1882A      3.264668  1883A      3.268374  1884A      3.271329  
    1885A      3.275088  1886A      3.275743  1887A      3.289527  
    1888A      3.293901  1889A      3.296869  1890A      3.298766  
    1891A      3.303569  1892A      3.317484  1893A      3.332506  
    1894A      3.361468  1895A      3.362449  1896A      3.370331  
    1897A      3.415672  1898A      3.422338  1899A      3.430119  
    1900A      3.432579  1901A      3.436968  1902A      3.446631  
    1903A      3.450991  1904A      3.462124  1905A      3.464696  
    1906A      3.465665  1907A      3.471237  1908A      3.474265  
    1909A      3.481833  1910A      3.487303  1911A      3.494082  
    1912A      3.509198  1913A      3.528067  1914A      3.540051  
    1915A      3.574142  1916A      3.576191  1917A      3.578559  
    1918A      3.584337  1919A      3.590271  1920A      3.641183  
    1921A      3.643167  1922A      3.647908  1923A      3.665089  
    1924A      3.667192  1925A      3.705288  1926A      3.748218  
    1927A      3.749358  1928A      3.750740  1929A      3.759461  
    1930A      3.763704  1931A      3.778835  1932A      3.780863  
    1933A      3.818788  1934A      3.842185  1935A      3.843542  
    1936A      3.870257  1937A      3.871528  1938A      3.874677  
    1939A      3.904756  1940A      3.913322  1941A      3.938225  
    1942A      3.940928  1943A      3.948305  1944A      3.949295  
    1945A      3.958655  1946A      3.964669  1947A      3.968899  
    1948A      3.973575  1949A      4.024700  1950A      4.027482  
    1951A      4.071731  1952A      4.209930  1953A      4.213711  
    1954A      4.230485  1955A      4.302748  1956A      4.361091  
    1957A      4.367051  1958A      4.394007  1959A      4.492971  
    1960A      4.746967  1961A      4.788291  1962A      4.834783  
    1963A      4.850170  1964A      4.940521  1965A      5.056442  
    1966A      5.061646  1967A      5.070568  1968A      5.114800  
    1969A      5.148207  1970A      5.396092  1971A      5.425455  
    1972A      5.737075  1973A      5.763146  1974A      6.069869  
    1975A     18.200390  1976A     18.459549  1977A     18.476704  
    1978A     18.563480  1979A     18.834632  1980A     25.341720  
    1981A     25.377737  

    Final Occupation by Irrep:
              A 
    DOCC [   300 ]
    NA   [   300 ]
    NB   [   300 ]

  @DF-RHF Final Energy: -3650.33828984377215

   => Energetics <=

    Nuclear Repulsion Energy =          15611.4211649754306563
    One-Electron Energy =              -36072.0988634381283191
    Two-Electron Energy =               16810.3394086189255177
    Total Energy =                      -3650.3382898437739641

Computation Completed


Properties will be evaluated at   0.000000,   0.000000,   0.000000 [a0]

Properties computed using the SCF density matrix


 Multipole Moments:

 ------------------------------------------------------------------------------------
     Multipole            Electronic (a.u.)      Nuclear  (a.u.)        Total (a.u.)
 ------------------------------------------------------------------------------------

 L = 1.  Multiply by 2.5417464519 to convert [e a0] to [Debye]
 Dipole X            :         -0.0009179            0.0002112           -0.0007067
 Dipole Y            :          0.0011712           -0.0013774           -0.0002062
 Dipole Z            :       -570.5335886          570.5418402            0.0082516
 Magnitude           :                                                    0.0082844

 ------------------------------------------------------------------------------------

*** tstop() called on n2cn0973 at Sat Jan 27 02:58:58 2024
Module time:
	user time   =   19330.06 seconds =     322.17 minutes
	system time =    1831.86 seconds =      30.53 minutes
	total time  =       3315 seconds =      55.25 minutes
Total time:
	user time   =   51968.32 seconds =     866.14 minutes
	system time =    4419.74 seconds =      73.66 minutes
	total time  =      10004 seconds =     166.73 minutes
  Constructing Basis Sets for SAPT...

   => Loading Basis Set <=

    Name: (JUN-CC-PVDZ AUX)
    Role: RIFIT
    Keyword: DF_BASIS_SAPT
    atoms 1-2, 4-5, 10, 17-34, 41-53, 56-70, 73-89, 92-104, 109-119, 122-130 entry C          line   100 file /opt/software/pc2/EB-SW/software/PSI4/1.9-foss-2022a/share/psi4/basis/jun-cc-pvdz-ri.gbs 
    atoms 3, 6                                                               entry N          line   144 file /opt/software/pc2/EB-SW/software/PSI4/1.9-foss-2022a/share/psi4/basis/jun-cc-pvdz-ri.gbs 
    atoms 7-9, 11-16, 35-40, 54-55, 71-72, 90-91, 105-108, 120-121, 131-136  entry H          line    30 file /opt/software/pc2/EB-SW/software/PSI4/1.9-foss-2022a/share/psi4/basis/jun-cc-pvdz-ri.gbs 

   => Loading Basis Set <=

    Name: (JUN-CC-PVDZ AUX)
    Role: JKFIT
    Keyword: DF_BASIS_ELST
    atoms 1-2, 4-5, 10, 17-34, 41-53, 56-70, 73-89, 92-104, 109-119, 122-130 entry C          line   146 file /opt/software/pc2/EB-SW/software/PSI4/1.9-foss-2022a/share/psi4/basis/jun-cc-pvdz-jkfit.gbs 
    atoms 3, 6                                                               entry N          line   202 file /opt/software/pc2/EB-SW/software/PSI4/1.9-foss-2022a/share/psi4/basis/jun-cc-pvdz-jkfit.gbs 
    atoms 7-9, 11-16, 35-40, 54-55, 71-72, 90-91, 105-108, 120-121, 131-136  entry H          line    70 file /opt/software/pc2/EB-SW/software/PSI4/1.9-foss-2022a/share/psi4/basis/jun-cc-pvdz-jkfit.gbs 


  //>>>>>>>>>>>>>>>>>>>>>>>>>>>>>>>>>>>//
  //               SSAPT0              //
  //<<<<<<<<<<<<<<<<<<<<<<<<<<<<<<<<<<<//


*** tstart() called on n2cn0973
*** at Sat Jan 27 02:59:00 2024

        SAPT0  
    Ed Hohenstein
     6 June 2009

      Orbital Information
  --------------------------
    NSO        =      2019
    NMO        =      1981
    NRI        =      7157
    NRI (Elst) =      8896
    NOCC A     =        26
    NOCC B     =       300
    FOCC A     =         7
    FOCC B     =        96
    NVIR A     =      1955
    NVIR B     =      1681

    Elst10,r            =    -0.009205446382 [Eh]
    Exch10              =     0.000003430865 [Eh]
    Exch10 (S^2)        =     0.000003430855 [Eh]

    Iter     Energy [mEh]          dE [mEh]         Residual      Time [s]
       1      -0.01740306       0.017403064       1.241705674           282
       2      -0.01644799      -0.000955077       0.316539503           658
       3      -0.01802670       0.001578717       0.084582110           936
       4      -0.01811544       0.000088734       0.037597469          1180
       5      -0.01804431      -0.000071126       0.011523219          1445
       6      -0.01804578       0.000001467       0.003990118          1717
       7      -0.01805181       0.000006027       0.001117225          1999
       8      -0.01805215       0.000000346       0.000373123          2288
       9      -0.01805185      -0.000000300       0.000114954          2554
      10      -0.01805178      -0.000000073       0.000034584          2795
      11      -0.01805179       0.000000009       0.000009075          3051
      12      -0.01805180       0.000000008       0.000002565          3361
      13      -0.01805180      -0.000000000       0.000000967          3627

    CHF Iterations converged


    Iter     Energy [mEh]          dE [mEh]         Residual      Time [s]
       1      -6.71103335       6.711033354      44.998312729           211
       2      -4.30102291      -2.410010440       5.336437285           458
       3      -4.27857601      -0.022446905       1.780139191           719
       4      -4.35561918       0.077043167       0.566282801           938
       5      -4.36622986       0.010610689       0.197364226          1177
       6      -4.36517827      -0.001051592       0.132946727          1405
       7      -4.36287810      -0.002300168       0.056544557          1626
       8      -4.36305042       0.000172320       0.029592548          1892
       9      -4.36355649       0.000506065       0.017225513          2167
      10      -4.36345837      -0.000098121       0.014723267          2399
      11      -4.36335397      -0.000104398       0.006761432          2695
      12      -4.36334974      -0.000004233       0.003627551          2925
      13      -4.36337602       0.000026281       0.001860160          3147
      14      -4.36338448       0.000008463       0.001194269          3429
      15      -4.36337846      -0.000006017       0.000751440          3680
      16      -4.36337321      -0.000005254       0.000252845          3967
      17      -4.36337561       0.000002394       0.000085283          4222
      18      -4.36337606       0.000000455       0.000027385          4480
      19      -4.36337593      -0.000000135       0.000014872          4766
      20      -4.36337582      -0.000000109       0.000005906          5003
      21      -4.36337584       0.000000018       0.000002714          5268
      22      -4.36337585       0.000000017       0.000001308          5511
      23      -4.36337585      -0.000000001       0.000000563          5769

    CHF Iterations converged

    Ind20,r (A<-B)      =    -0.000018051797 [Eh]
    Ind20,r (B<-A)      =    -0.004363375851 [Eh]
    Ind20,r             =    -0.004381427648 [Eh]
    Exch-Ind20,r (A<-B) =     0.000000164333 [Eh]
    Exch-Ind20,r (B<-A) =     0.000001939012 [Eh]
    Exch-Ind20,r        =     0.000002103345 [Eh]
    Disp20              =    -0.002503227592 [Eh]
    Disp20 (SS)         =    -0.001251613796 [Eh]
    Disp20 (OS)         =    -0.001251613796 [Eh]
    Exch-Disp20         =     0.000000996813 [Eh]
    Exch-Disp20 (SS)    =     0.000000729797 [Eh]
    Exch-Disp20 (OS)    =     0.000000267016 [Eh]

    SAPT Results 
  --------------------------------------------------------------------------------------------------------
    Electrostatics                 -9.20544638 [mEh]      -5.77650482 [kcal/mol]     -24.16889615 [kJ/mol]
      Elst10,r                     -9.20544638 [mEh]      -5.77650482 [kcal/mol]     -24.16889615 [kJ/mol]

    Exchange                        0.00343086 [mEh]       0.00215290 [kcal/mol]       0.00900773 [kJ/mol]
      Exch10                        0.00343086 [mEh]       0.00215290 [kcal/mol]       0.00900773 [kJ/mol]
      Exch10(S^2)                   0.00343086 [mEh]       0.00215289 [kcal/mol]       0.00900771 [kJ/mol]

    Induction                      -4.48936523 [mEh]      -2.81711921 [kcal/mol]     -11.78682678 [kJ/mol]
      Ind20,r                      -4.38142765 [mEh]      -2.74938736 [kcal/mol]     -11.50343671 [kJ/mol]
      Exch-Ind20,r                  0.00210335 [mEh]       0.00131987 [kcal/mol]       0.00552233 [kJ/mol]
      delta HF,r (2)               -0.11004093 [mEh]      -0.06905172 [kcal/mol]      -0.28891241 [kJ/mol]

    Dispersion                     -2.50223078 [mEh]      -1.57017352 [kcal/mol]      -6.56960601 [kJ/mol]
      Disp20                       -2.50322759 [mEh]      -1.57079903 [kcal/mol]      -6.57222314 [kJ/mol]
      Exch-Disp20                   0.00099681 [mEh]       0.00062551 [kcal/mol]       0.00261713 [kJ/mol]
      Disp20 (SS)                  -1.25161380 [mEh]      -0.78539951 [kcal/mol]      -3.28611157 [kJ/mol]
      Disp20 (OS)                  -1.25161380 [mEh]      -0.78539951 [kcal/mol]      -3.28611157 [kJ/mol]
      Exch-Disp20 (SS)              0.00072980 [mEh]       0.00045795 [kcal/mol]       0.00191608 [kJ/mol]
      Exch-Disp20 (OS)              0.00026702 [mEh]       0.00016756 [kcal/mol]       0.00070105 [kJ/mol]

  Total HF                        -13.69138075 [mEh]      -8.59147113 [kcal/mol]     -35.94671520 [kJ/mol]
  Total SAPT0                     -16.19361152 [mEh]     -10.16164465 [kcal/mol]     -42.51632120 [kJ/mol]

  Special recipe for scaled SAPT0 (see Manual):
    Electrostatics sSAPT0          -9.20544638 [mEh]      -5.77650482 [kcal/mol]     -24.16889615 [kJ/mol]
    Exchange sSAPT0                 0.00343086 [mEh]       0.00215290 [kcal/mol]       0.00900773 [kJ/mol]
    Induction sSAPT0               -4.48936523 [mEh]      -2.81711921 [kcal/mol]     -11.78682678 [kJ/mol]
    Dispersion sSAPT0              -2.50223078 [mEh]      -1.57017352 [kcal/mol]      -6.56960601 [kJ/mol]
  Total sSAPT0                    -16.19361152 [mEh]     -10.16164465 [kcal/mol]     -42.51632120 [kJ/mol]
  --------------------------------------------------------------------------------------------------------

*** tstop() called on n2cn0973 at Sat Jan 27 10:29:10 2024
Module time:
	user time   =   83524.19 seconds =    1392.07 minutes
	system time =    4449.41 seconds =      74.16 minutes
	total time  =      27010 seconds =     450.17 minutes
Total time:
	user time   =  135494.08 seconds =    2258.23 minutes
	system time =    8869.15 seconds =     147.82 minutes
	total time  =      37016 seconds =     616.93 minutes

    Psi4 stopped on: Saturday, 27 January 2024 10:29AM
    Psi4 wall time for execution: 10:16:57.52

*** Psi4 exiting successfully. Buy a developer a beer!
