
    -----------------------------------------------------------------------
          Psi4: An Open-Source Ab Initio Electronic Structure Package
                               Psi4 1.9 release

                         Git: Rev {} zzzzzzz 


    D. G. A. Smith, L. A. Burns, A. C. Simmonett, R. M. Parrish,
    M. C. Schieber, R. Galvelis, P. Kraus, H. Kruse, R. Di Remigio,
    A. Alenaizan, A. M. James, S. Lehtola, J. P. Misiewicz, M. Scheurer,
    R. A. Shaw, J. B. Schriber, Y. Xie, Z. L. Glick, D. A. Sirianni,
    J. S. O'Brien, J. M. Waldrop, A. Kumar, E. G. Hohenstein,
    B. P. Pritchard, B. R. Brooks, H. F. Schaefer III, A. Yu. Sokolov,
    K. Patkowski, A. E. DePrince III, U. Bozkaya, R. A. King,
    F. A. Evangelista, J. M. Turney, T. D. Crawford, C. D. Sherrill,
    J. Chem. Phys. 152(18) 184108 (2020). https://doi.org/10.1063/5.0006002

                            Additional Code Authors
    E. T. Seidl, C. L. Janssen, E. F. Valeev, M. L. Leininger,
    J. F. Gonthier, R. M. Richard, H. R. McAlexander, M. Saitow, X. Wang,
    P. Verma, M. H. Lechner, A. Jiang, S. Behnle, A. G. Heide,
    M. F. Herbst, and D. L. Poole

             Previous Authors, Complete List of Code Contributors,
                       and Citations for Specific Modules
    https://github.com/psi4/psi4/blob/master/codemeta.json
    https://github.com/psi4/psi4/graphs/contributors
    http://psicode.org/psi4manual/master/introduction.html#citing-psifour

    -----------------------------------------------------------------------


    Psi4 started on: Wednesday, 24 January 2024 06:29PM

    Process ID: 3204504
    Host:       n2cn0267
    PSIDATADIR: /opt/software/pc2/EB-SW/software/PSI4/1.9-foss-2022a/share/psi4
    Memory:     500.0 MiB
    Threads:    16
    
  ==> Input File <==

--------------------------------------------------------------------------
memory 47 GB # how much memory is available ! Depends on the nodes/cores !

molecule dimer {
# monomer A
+1 1    # Charge and multiplicity
C  0.680067 1.417258 -8.615929
C -0.680504 1.419286 -8.615545
N -1.085635 1.420284 -7.297221
C  0.000108 1.423560 -6.515820
C -2.477365 1.469690 -6.829242
N  1.085222 1.420284 -7.297221
H  1.385146 1.409430 -9.433368
H -1.385302 1.419096 -9.433214
H -0.000009 1.425307 -5.434731
C  2.478117 1.403392 -6.832123
H  2.490592 1.430737 -5.741870
H  2.967028 0.489946 -7.179299
H  3.001428 2.278875 -7.223595
H -2.857359 2.491761 -6.909201
H -3.082679 0.799606 -7.442306
H -2.518128 1.142706 -5.789294
--
# monomer B
0 1     # Charge and multiplicity
C   -3.66844126402057      7.80375217008252      0.00190004133558
C   -4.84759871934653      7.13124183134024     -0.00046653359696
C   -4.89495929917518      5.69633040353158     -0.00103944469517
C   -3.65374067877320      4.98073034095895      0.00662099703436
C   -2.40942512149445      7.11398103667468      0.00209438359570
C   -2.42547734410473      5.68112195090346     -0.00491050527438
C   -1.19474401643570      7.78614419430947      0.00356656413763
C   0.03795902893699      7.09942164575698      0.00139585983271
C   0.03033258741920      5.66948955970466     -0.00408752508301
C   -1.20098450790502      4.96927034791531      0.00488220885047
C   1.27795782581485      7.77285944319479      0.00277170839332
C   2.48535808472416      7.08769688523756      0.00049722048857
C   2.48612868491717      5.65477081024076     -0.00644052849921
C   1.25408291964399      4.95607811366431      0.00518741308898
C   3.75171459140595      7.76391215098033      0.00062407186893
C   4.92356605618520      7.07878077698995     -0.00143240883900
C   4.95560727132542      5.64344746336949     -0.00159282164606
C   3.70680153420475      4.94121020833308      0.00349873852374
H   -3.65852113775815      8.89082741913536      0.00358502958574
H   -1.18921332975660      8.87412108735996      0.00753844057883
H   1.28429423888630      8.86083343548850      0.00693053253426
H   3.75354208679975      8.85103527897216      0.00214659618464
H   5.86995870320703      7.61379483465560     -0.00235777588134
H   -5.78823170750226      7.67630221293400     -0.00202638095293
C   -6.09197395869619      4.99326001364347     -0.00291168518608
C   -6.12866148031747      3.58258016879823     -0.00171050815740
C   -3.66457974004527      3.56418217974434     -0.00463560277484
C   -4.89429820469869      2.86108077590057      0.00453338221034
C   -2.43733499489796      2.84761165708481      0.00719617576166
C   -1.20922785759670      3.54788693497833     -0.00648285103018
C   1.24714157216223      3.53468075142962     -0.00729145743546
C   0.01517603956900      2.83311183930540      0.00439272578912
C   2.46764517244071      2.82128997725533      0.00449278391269
C   3.70254947457969      3.52466015442405     -0.00899517692985
C   6.14498038638375      4.92757236613191     -0.00282626685777
C   6.16658835886151      3.51658447594213     -0.00065971342101
C   4.92460995845939      2.80840792535402      0.00587903281610
H   7.08990550964105      5.46688776622306     -0.00658814770723
H   -7.03104175110130      5.54268795285765     -0.00714490013730
C   -7.33969804112295      2.85841153457957     -0.00333767559888
C   -7.36488195805880      1.47032337158330     -0.00157213747140
C   -4.90350460894690      1.44442681216000     -0.00628840166334
C   -6.13225715261081      0.73993935705394      0.00600164231964
C   -3.67687480051673      0.72669714267312      0.00433931473643
C   -2.44565658606518      1.42964113326212     -0.00597039546461
C   -1.22360068130162      0.71532450163492      0.00545886906656
C   0.00763786931376      1.41738314923765      0.00392452278437
C   1.23121980774686      0.70211669058719     -0.01490206287210
C   2.46082110053113      1.40329203612573      0.00460244601878
C   3.68443025419614      0.68719842821222      0.00377365974158
C   4.91870890153864      1.39173456118907     -0.00862816189375
C   7.36980207796101      2.77948220318441     -0.00242013321349
C   7.38016266612146      1.39121750785509     -0.00087345036788
C   6.13979953912259      0.67411862320065      0.00545489144369
H   -8.27919079934664      3.40711804112415     -0.00763522772059
H   8.31511347147953      3.31811809662368     -0.00663070901292
C   -8.59175593758115      0.72483255304480     -0.00123170985383
C   -8.59902460370342     -0.63263980622873      0.00089141472904
C   -6.13981313911873     -0.67413663715361     -0.00609792660607
C   -7.38018411213749     -1.39126618958160      0.00131813493501
C   -4.91868448025621     -1.39175501803000      0.00624257154343
C   -3.68443829568458     -0.68723731573599     -0.00478966852105
C   -2.46081704024768     -1.40334517882457      0.00575341766833
C   -1.23116201232071     -0.70217386488055     -0.00636696112346
C   -0.00756962538737     -1.41741884941102      0.00108956317991
C   1.22364771588843     -0.71527537726392      0.01109518512883
C   2.44567064933149     -1.42964328900682     -0.00065482763106
C   3.67686670284649     -0.72670743155550     -0.00479541202602
C   6.13224884641929     -0.73997883984993     -0.00632338623858
C   4.90351914550401     -1.44445752054090      0.00751768830159
C   8.59901484869081      0.63260386666793     -0.00101133422380
C   8.59174548810050     -0.72485086719319      0.00072504603735
C   7.36486276438985     -1.47033266560598      0.00049486934466
H   -9.52830597181814      1.27684744919284     -0.00270163681798
H   9.54141097460619      1.17457248844457     -0.00206336648518
C   -7.36983790976868     -2.77954514593389      0.00312634335708
C   -4.92459910905015     -2.80843725734101     -0.00460528907921
C   -6.16662249566744     -3.51665219282533      0.00169655107992
C   -3.70251035970491     -3.52468154912026      0.00571878010666
C   -2.46764698511392     -2.82132596280400     -0.00632585824990
C   -0.01513347410770     -2.83314164539971     -0.00604426974092
C   -1.24712184122656     -3.53473217556300      0.00551968366725
C   1.20924506964357     -3.54791467864352      0.00805871345849
C   2.43733602215464     -2.84764173817541     -0.00608104485234
C   4.89430234377080     -2.86112296828604     -0.00526030478103
C   3.66461525504104     -3.56421984553201      0.00761911515957
C   6.12863901474565     -3.58258405771778      0.00096495711699
C   7.33967266469532     -2.85841330737039      0.00248018319869
H   -9.54144911125902     -1.17456346666430      0.00226083090216
H   9.52826186807155     -1.27691907390448      0.00197485379837
H   -8.31516504384864     -3.31814985321231      0.00729857188773
H   8.27915514249207     -3.40714078989363      0.00681973918158
C   -6.14499418870218     -4.92764727278338      0.00302254913999
C   -3.70678334799751     -4.94126171411716     -0.00679841894792
C   -4.95559005800169     -5.64349397349412      0.00116871569699
C   -2.48612132622665     -5.65478557440947      0.00614125209662
C   -1.25405833548005     -4.95612205000132     -0.00503435388927
C   1.20101257386816     -4.96928038819302     -0.00385322963129
C   -0.03033667441341     -5.66952030313900      0.00398997003238
C   3.65375010132847     -4.98074377541453     -0.00309522988330
C   2.42549269587528     -5.68117463552727      0.00628170066869
C   6.09196561781097     -4.99325796338655      0.00325918379042
C   4.89497644461045     -5.69634842095790      0.00202298796027
H   -7.08989238804069     -5.46699984223871      0.00742531082125
H   7.03105520920009     -5.54265853633254      0.00683896355417
C   -4.92354532219813     -7.07882109967734      0.00061394679214
C   -2.48534208823777     -7.08772807792913     -0.00189594564379
C   -3.75168589177895     -7.76394715763627     -0.00170126671874
C   -0.03794895698805     -7.09946487446944     -0.00168022049625
C   -1.27795610040136     -7.77290438466689     -0.00366491325785
C   2.40944432072629     -7.11402201200282     -0.00081701968533
C   1.19474993715296     -7.78618536556242     -0.00296931056689
C   4.84762105249800     -7.13126211057943      0.00168979497423
C   3.66847160587561     -7.80378799294376     -0.00065863938960
H   -5.86994035041618     -7.61383059804164      0.00215798365757
H   5.78824962538815     -7.67633218931421      0.00281691445618
H   -3.75352693944918     -8.85107156923607     -0.00353718114765
H   -1.28430440589466     -8.86087539249706     -0.00809229711623
H   1.18922157469537     -8.87416062058945     -0.00706194725726
H   3.65854661482387     -8.89086063405326     -0.00231318081200

    units angstrom      # Angstroms are the default
    no_reorient         # Geometry fixed, default
    symmetry c1         # C1 symmetry, default
}

set {
    scf_type DF         # Density fitting, faster than exact integrals
    freeze_core True    # Freeze core electrons
    basis jun-cc-pVDZ   # Jun-cc-pVDZ basis set, recommended for sSAPT0 in https://doi.org/10.1063/1.4867135
}

energy('ssapt0')        # Compute sSAPT0 energy, includes also SAPT0
--------------------------------------------------------------------------

  Memory set to  43.772 GiB by Python driver.

Scratch directory: /tmp/
   => Loading Basis Set <=

    Name: JUN-CC-PVDZ
    Role: ORBITAL
    Keyword: BASIS
    atoms 1-2, 4-5, 10, 17-34, 41-53, 56-70, 73-89, 92-104, 109-119, 122-130 entry C          line   164 file /opt/software/pc2/EB-SW/software/PSI4/1.9-foss-2022a/share/psi4/basis/jun-cc-pvdz.gbs 
    atoms 3, 6                                                               entry N          line   198 file /opt/software/pc2/EB-SW/software/PSI4/1.9-foss-2022a/share/psi4/basis/jun-cc-pvdz.gbs 
    atoms 7-9, 11-16, 35-40, 54-55, 71-72, 90-91, 105-108, 120-121, 131-136  entry H          line    36 file /opt/software/pc2/EB-SW/software/PSI4/1.9-foss-2022a/share/psi4/basis/jun-cc-pvdz.gbs 

   => Loading Basis Set <=

    Name: JUN-CC-PVDZ
    Role: ORBITAL
    Keyword: BASIS
    atoms 1-2, 4-5, 10, 17-34, 41-53, 56-70, 73-89, 92-104, 109-119, 122-130 entry C          line   164 file /opt/software/pc2/EB-SW/software/PSI4/1.9-foss-2022a/share/psi4/basis/jun-cc-pvdz.gbs 
    atoms 3, 6                                                               entry N          line   198 file /opt/software/pc2/EB-SW/software/PSI4/1.9-foss-2022a/share/psi4/basis/jun-cc-pvdz.gbs 
    atoms 7-9, 11-16, 35-40, 54-55, 71-72, 90-91, 105-108, 120-121, 131-136  entry H          line    36 file /opt/software/pc2/EB-SW/software/PSI4/1.9-foss-2022a/share/psi4/basis/jun-cc-pvdz.gbs 


  //>>>>>>>>>>>>>>>>>>>>>>>>>>>>>>>>>>>//
  //              Dimer HF             //
  //<<<<<<<<<<<<<<<<<<<<<<<<<<<<<<<<<<<//

   => Libint2 <=

    Primary   basis highest AM E, G, H:  5, 4, 3
    Auxiliary basis highest AM E, G, H:  6, 5, 4
    Onebody   basis highest AM E, G, H:  6, 5, 4
    Solid Harmonics ordering:            gaussian

*** tstart() called on n2cn0267
*** at Wed Jan 24 18:29:10 2024

   => Loading Basis Set <=

    Name: JUN-CC-PVDZ
    Role: ORBITAL
    Keyword: BASIS
    atoms 1-2, 4-5, 10, 17-34, 41-53, 56-70, 73-89, 92-104, 109-119, 122-130 entry C          line   164 file /opt/software/pc2/EB-SW/software/PSI4/1.9-foss-2022a/share/psi4/basis/jun-cc-pvdz.gbs 
    atoms 3, 6                                                               entry N          line   198 file /opt/software/pc2/EB-SW/software/PSI4/1.9-foss-2022a/share/psi4/basis/jun-cc-pvdz.gbs 
    atoms 7-9, 11-16, 35-40, 54-55, 71-72, 90-91, 105-108, 120-121, 131-136  entry H          line    36 file /opt/software/pc2/EB-SW/software/PSI4/1.9-foss-2022a/share/psi4/basis/jun-cc-pvdz.gbs 


         ---------------------------------------------------------
                                   SCF
               by Justin Turney, Rob Parrish, Andy Simmonett
                          and Daniel G. A. Smith
                              RHF Reference
                       16 Threads,  44822 MiB Core
         ---------------------------------------------------------

  ==> Geometry <==

    Molecular point group: c1
    Full point group: C1

    Geometry (in Angstrom), charge = 1, multiplicity = 1:

       Center              X                  Y                   Z               Mass       
    ------------   -----------------  -----------------  -----------------  -----------------
         C            0.680062820275     1.308604348936    -8.051741938463    12.000000000000
         C           -0.680508179725     1.310632348936    -8.051357938463    12.000000000000
         N           -1.085639179725     1.311630348936    -6.733033938463    14.003074004430
         C            0.000103820275     1.314906348936    -5.951632938463    12.000000000000
         C           -2.477369179725     1.361036348936    -6.265054938463    12.000000000000
         N            1.085217820275     1.311630348936    -6.733033938463    14.003074004430
         H            1.385141820275     1.300776348936    -8.869180938463     1.007825032230
         H           -1.385306179725     1.310442348936    -8.869026938463     1.007825032230
         H           -0.000013179725     1.316653348936    -4.870543938463     1.007825032230
         C            2.478112820275     1.294738348936    -6.267935938463    12.000000000000
         H            2.490587820275     1.322083348936    -5.177682938463     1.007825032230
         H            2.967023820275     0.381292348936    -6.615111938463     1.007825032230
         H            3.001423820275     2.170221348936    -6.659407938463     1.007825032230
         H           -2.857363179725     2.383107348936    -6.345013938463     1.007825032230
         H           -3.082683179725     0.690952348936    -6.878118938463     1.007825032230
         H           -2.518132179725     1.034052348936    -5.225106938463     1.007825032230
         C           -3.668445443746     7.695098519018     0.566087102872    12.000000000000
         C           -4.847602899072     7.022588180276     0.563720527940    12.000000000000
         C           -4.894963478901     5.587676752467     0.563147616842    12.000000000000
         C           -3.653744858499     4.872076689895     0.570808058571    12.000000000000
         C           -2.409429301220     7.005327385610     0.566281445133    12.000000000000
         C           -2.425481523830     5.572468299839     0.559276556262    12.000000000000
         C           -1.194748196161     7.677490543245     0.567753625674    12.000000000000
         C            0.037954849212     6.990767994693     0.565582921370    12.000000000000
         C            0.030328407694     5.560835908640     0.560099536454    12.000000000000
         C           -1.200988687630     4.860616696851     0.569069270387    12.000000000000
         C            1.277953646089     7.664205792130     0.566958769930    12.000000000000
         C            2.485353904999     6.979043234173     0.564684282025    12.000000000000
         C            2.486124505192     5.546117159176     0.557746533038    12.000000000000
         C            1.254078739919     4.847424462600     0.569374474626    12.000000000000
         C            3.751710411681     7.655258499916     0.564811133406    12.000000000000
         C            4.923561876460     6.970127125926     0.562754652698    12.000000000000
         C            4.955603091600     5.534793812305     0.562594239891    12.000000000000
         C            3.706797354479     4.832556557269     0.567685800061    12.000000000000
         H           -3.658525317484     8.782173768071     0.567772091123     1.007825032230
         H           -1.189217509482     8.765467436296     0.571725502116     1.007825032230
         H            1.284290059161     8.752179784424     0.571117594071     1.007825032230
         H            3.753537907074     8.742381627908     0.566333657721     1.007825032230
         H            5.869954523482     7.505141183591     0.561829285655     1.007825032230
         H           -5.788235887228     7.567648561870     0.562160680584     1.007825032230
         C           -6.091978138422     4.884606362579     0.561275376351    12.000000000000
         C           -6.128665660043     3.473926517734     0.562476553379    12.000000000000
         C           -3.664583919771     3.455528528680     0.559551458762    12.000000000000
         C           -4.894302384424     2.752427124836     0.568720443747    12.000000000000
         C           -2.437339174623     2.738958006020     0.571383237298    12.000000000000
         C           -1.209232037322     3.439233283914     0.557704210507    12.000000000000
         C            1.247137392437     3.426027100365     0.556895604101    12.000000000000
         C            0.015171859844     2.724458188241     0.568579787326    12.000000000000
         C            2.467640992715     2.712636326191     0.568679845449    12.000000000000
         C            3.702545294854     3.416006503360     0.555191884607    12.000000000000
         C            6.144976206658     4.818918715067     0.561360794679    12.000000000000
         C            6.166584179136     3.407930824878     0.563527348116    12.000000000000
         C            4.924605778734     2.699754274290     0.570066094353    12.000000000000
         H            7.089901329916     5.358234115159     0.557598913830     1.007825032230
         H           -7.031045930827     5.434034301793     0.557042161400     1.007825032230
         C           -7.339702220848     2.749757883515     0.560849385938    12.000000000000
         C           -7.364886137784     1.361669720519     0.562614924065    12.000000000000
         C           -4.903508788672     1.335773161096     0.557898659873    12.000000000000
         C           -6.132261332336     0.631285705989     0.570188703856    12.000000000000
         C           -3.676878980242     0.618043491609     0.568526376273    12.000000000000
         C           -2.445660765791     1.320987482198     0.558216666072    12.000000000000
         C           -1.223604861027     0.606670850570     0.569645930603    12.000000000000
         C            0.007633689588     1.308729498173     0.568111584321    12.000000000000
         C            1.231215628021     0.593463039523     0.549284998665    12.000000000000
         C            2.460816920806     1.294638385061     0.568789507556    12.000000000000
         C            3.684426074471     0.578544777148     0.567960721278    12.000000000000
         C            4.918704721813     1.283080910125     0.555558899643    12.000000000000
         C            7.369797898236     2.670828552120     0.561766928323    12.000000000000
         C            7.380158486396     1.282563856791     0.563313611169    12.000000000000
         C            6.139795359397     0.565464972136     0.569641952980    12.000000000000
         H           -8.279194979072     3.298464390060     0.556551833816     1.007825032230
         H            8.315109291754     3.209464445559     0.557556352524     1.007825032230
         C           -8.591760117307     0.616178901980     0.562955351683    12.000000000000
         C           -8.599028783429    -0.741293457293     0.565078476266    12.000000000000
         C           -6.139817318844    -0.782790288218     0.558089134931    12.000000000000
         C           -7.380188291863    -1.499919840646     0.565505196472    12.000000000000
         C           -4.918688659982    -1.500408669094     0.570429633080    12.000000000000
         C           -3.684442475410    -0.795890966800     0.559397393016    12.000000000000
         C           -2.460821219973    -1.511998829889     0.569940479205    12.000000000000
         C           -1.231166192046    -0.810827515945     0.557820100413    12.000000000000
         C           -0.007573805113    -1.526072500475     0.565276624717    12.000000000000
         C            1.223643536163    -0.823929028328     0.575282246666    12.000000000000
         C            2.445666469606    -1.538296940071     0.563532233906    12.000000000000
         C            3.676862523121    -0.835361082620     0.559391649511    12.000000000000
         C            6.132244666694    -0.848632490914     0.557863675298    12.000000000000
         C            4.903514965779    -1.553111171605     0.571704749838    12.000000000000
         C            8.599010668965     0.523950215603     0.563175727313    12.000000000000
         C            8.591741308375    -0.833504518258     0.564912107574    12.000000000000
         C            7.364858584664    -1.578986316670     0.564681930881    12.000000000000
         H           -9.528310151544     1.168193798128     0.561485424719     1.007825032230
         H            9.541406794881     1.065918837380     0.562123695052     1.007825032230
         C           -7.369842089494    -2.888198796998     0.567313404894    12.000000000000
         C           -4.924603288776    -2.917090908405     0.559581772458    12.000000000000
         C           -6.166626675393    -3.625305843890     0.565883612617    12.000000000000
         C           -3.702514539430    -3.633335200185     0.569905841643    12.000000000000
         C           -2.467651164839    -2.929979613868     0.557861203287    12.000000000000
         C           -0.015137653833    -2.941795296464     0.558142791796    12.000000000000
         C           -1.247126020952    -3.643385826627     0.569706745204    12.000000000000
         C            1.209240889918    -3.656568329708     0.572245774995    12.000000000000
         C            2.437331842429    -2.956295389240     0.558106016684    12.000000000000
         C            4.894298164045    -2.969776619350     0.558926756756    12.000000000000
         C            3.664611075316    -3.672873496596     0.571806176696    12.000000000000
         C            6.128634835020    -3.691237708782     0.565152018654    12.000000000000
         C            7.339668484970    -2.967066958435     0.566667244735    12.000000000000
         H           -9.541453290984    -1.283217117729     0.566447892439     1.007825032230
         H            9.528257688346    -1.385572724969     0.566161915335     1.007825032230
         H           -8.315169223574    -3.426803504277     0.571485633425     1.007825032230
         H            8.279150962767    -3.515794440958     0.571006800718     1.007825032230
         C           -6.144998368428    -5.036300923848     0.567209610677    12.000000000000
         C           -3.706787527723    -5.049915365182     0.557388642589    12.000000000000
         C           -4.955594237727    -5.752147624559     0.565355777234    12.000000000000
         C           -2.486125505952    -5.763439225474     0.570328313633    12.000000000000
         C           -1.254062515205    -5.064775701066     0.559152707648    12.000000000000
         C            1.201008394143    -5.077934039257     0.560333831906    12.000000000000
         C           -0.030340854139    -5.778173954203     0.568177031569    12.000000000000
         C            3.653745921603    -5.089397426479     0.561091831654    12.000000000000
         C            2.425488516150    -5.789828286592     0.570468762205    12.000000000000
         C            6.091961438086    -5.101911614451     0.567446245327    12.000000000000
         C            4.894972264885    -5.805002072022     0.566210049497    12.000000000000
         H           -7.089896567766    -5.575653493303     0.571612372358     1.007825032230
         H            7.031051029475    -5.651312187397     0.571026025091     1.007825032230
         C           -4.923549501924    -7.187474750742     0.564801008329    12.000000000000
         C           -2.485346267963    -7.196381728994     0.562291115893    12.000000000000
         C           -3.751690071504    -7.872600808701     0.562485794818    12.000000000000
         C           -0.037953136713    -7.208118525534     0.562506841041    12.000000000000
         C           -1.277960280127    -7.881558035731     0.560522148279    12.000000000000
         C            2.409440141001    -7.222675663067     0.563370041851    12.000000000000
         C            1.194745757428    -7.894839016627     0.561217750970    12.000000000000
         C            4.847616872773    -7.239915761644     0.565876856511    12.000000000000
         C            3.668467426150    -7.912441644008     0.563528422147    12.000000000000
         H           -5.869944530142    -7.722484249106     0.566345045194     1.007825032230
         H            5.788245445663    -7.784985840379     0.567003975993     1.007825032230
         H           -3.753531119175    -8.959725220301     0.560649880389     1.007825032230
         H           -1.284308585620    -8.969529043562     0.556094764421     1.007825032230
         H            1.189217394970    -8.982814271654     0.557125114280     1.007825032230
         H            3.658542435098    -8.999514285118     0.561873880725     1.007825032230

  Running in c1 symmetry.

  Rotational constants: A =      0.00058  B =      0.00058  C =      0.00035 [cm^-1]
  Rotational constants: A =     17.38709  B =     17.38142  C =     10.46927 [MHz]
  Nuclear repulsion = 17661.751005058245937

  Charge       = 1
  Multiplicity = 1
  Electrons    = 652
  Nalpha       = 326
  Nbeta        = 326

  ==> Algorithm <==

  SCF Algorithm Type is DF.
  DIIS enabled.
  MOM disabled.
  Fractional occupation disabled.
  Guess Type is SAD.
  Energy threshold   = 1.00e-08
  Density threshold  = 1.00e-08
  Integral threshold = 1.00e-12

  ==> Primary Basis <==

  Basis Set: JUN-CC-PVDZ
    Blend: JUN-CC-PVDZ
    Number of shells: 923
    Number of basis functions: 2019
    Number of Cartesian functions: 2122
    Spherical Harmonics?: true
    Max angular momentum: 2

   => Loading Basis Set <=

    Name: (JUN-CC-PVDZ AUX)
    Role: JKFIT
    Keyword: DF_BASIS_SCF
    atoms 1-2, 4-5, 10, 17-34, 41-53, 56-70, 73-89, 92-104, 109-119, 122-130 entry C          line   146 file /opt/software/pc2/EB-SW/software/PSI4/1.9-foss-2022a/share/psi4/basis/jun-cc-pvdz-jkfit.gbs 
    atoms 3, 6                                                               entry N          line   202 file /opt/software/pc2/EB-SW/software/PSI4/1.9-foss-2022a/share/psi4/basis/jun-cc-pvdz-jkfit.gbs 
    atoms 7-9, 11-16, 35-40, 54-55, 71-72, 90-91, 105-108, 120-121, 131-136  entry H          line    70 file /opt/software/pc2/EB-SW/software/PSI4/1.9-foss-2022a/share/psi4/basis/jun-cc-pvdz-jkfit.gbs 

  ==> Integral Setup <==

  ==> DiskDFJK: Density-Fitted J/K Matrices <==

    J tasked:                  Yes
    K tasked:                  Yes
    wK tasked:                  No
    OpenMP threads:             16
    Integrals threads:          16
    Memory [MiB]:            33617
    Algorithm:                Disk
    Integral Cache:           SAVE
    Schwarz Cutoff:          1E-12
    Fitting Condition:       1E-10

   => Auxiliary Basis Set <=

  Basis Set: (JUN-CC-PVDZ AUX)
    Blend: JUN-CC-PVDZ-JKFIT
    Number of shells: 3078
    Number of basis functions: 8896
    Number of Cartesian functions: 10198
    Spherical Harmonics?: true
    Max angular momentum: 3

  Minimum eigenvalue in the overlap matrix is 9.0159933290E-11.
  Reciprocal condition number of the overlap matrix is 3.9530434473E-12.
    Using canonical orthogonalization.
  Overall, 38 of 2019 possible MOs eliminated.


  ==> Pre-Iterations <==

  SCF Guess: Superposition of Atomic Densities via on-the-fly atomic UHF (no occupation information).

   -------------------------
    Irrep   Nso     Nmo    
   -------------------------
     A       2019    1981 
   -------------------------
    Total    2019    1981
   -------------------------

  ==> Iterations <==

                           Total Energy        Delta E     RMS |[F,P]|

   @DF-RHF iter SAD: -3967.13376949462508   -3.96713e+03   0.00000e+00 
   @DF-RHF iter   1: -3952.10130582512738    1.50325e+01   7.15954e-04 DIIS/ADIIS
   @DF-RHF iter   2: -3953.49500452086704   -1.39370e+00   2.33412e-04 DIIS/ADIIS
   @DF-RHF iter   3: -3953.61852696638107   -1.23522e-01   1.00759e-04 DIIS/ADIIS
   @DF-RHF iter   4: -3953.64105180273236   -2.25248e-02   4.22455e-05 DIIS
   @DF-RHF iter   5: -3953.64556232571158   -4.51052e-03   1.03786e-05 DIIS
   @DF-RHF iter   6: -3953.64600371333290   -4.41388e-04   4.60545e-06 DIIS
   @DF-RHF iter   7: -3953.64618759752602   -1.83884e-04   2.20651e-06 DIIS
   @DF-RHF iter   8: -3953.64624929054662   -6.16930e-05   1.10421e-06 DIIS
   @DF-RHF iter   9: -3953.64626666113691   -1.73706e-05   3.53039e-07 DIIS
   @DF-RHF iter  10: -3953.64626783121366   -1.17008e-06   1.44602e-07 DIIS
   @DF-RHF iter  11: -3953.64626797994606   -1.48732e-07   5.88967e-08 DIIS
   @DF-RHF iter  12: -3953.64626801198847   -3.20424e-08   2.91877e-08 DIIS
   @DF-RHF iter  13: -3953.64626801832583   -6.33736e-09   9.39412e-09 DIIS
  Energy and wave function converged.


  ==> Post-Iterations <==

    Orbital Energies [Eh]
    ---------------------

    Doubly Occupied:                                                      

       1A    -15.820935     2A    -15.820416     3A    -11.515607  
       4A    -11.447410     5A    -11.445855     6A    -11.435605  
       7A    -11.435506     8A    -11.320197     9A    -11.319466  
      10A    -11.319345    11A    -11.318983    12A    -11.318726  
      13A    -11.318697    14A    -11.318235    15A    -11.318072  
      16A    -11.317987    17A    -11.317906    18A    -11.317598  
      19A    -11.317440    20A    -11.317271    21A    -11.317194  
      22A    -11.317050    23A    -11.316826    24A    -11.316809  
      25A    -11.316397    26A    -11.316098    27A    -11.316050  
      28A    -11.316014    29A    -11.315929    30A    -11.315675  
      31A    -11.315673    32A    -11.315638    33A    -11.315410  
      34A    -11.314925    35A    -11.314916    36A    -11.314688  
      37A    -11.314608    38A    -11.314515    39A    -11.314014  
      40A    -11.314004    41A    -11.313998    42A    -11.313989  
      43A    -11.313958    44A    -11.313936    45A    -11.313513  
      46A    -11.313497    47A    -11.313119    48A    -11.313065  
      49A    -11.313052    50A    -11.312923    51A    -11.312903  
      52A    -11.312869    53A    -11.312843    54A    -11.312620  
      55A    -11.312491    56A    -11.312471    57A    -11.312433  
      58A    -11.312333    59A    -11.312322    60A    -11.312161  
      61A    -11.312138    62A    -11.312109    63A    -11.312085  
      64A    -11.311574    65A    -11.311546    66A    -11.311145  
      67A    -11.311036    68A    -11.311026    69A    -11.310859  
      70A    -11.310835    71A    -11.310575    72A    -11.310560  
      73A    -11.310465    74A    -11.310445    75A    -11.309883  
      76A    -11.309877    77A    -11.309614    78A    -11.309312  
      79A    -11.309294    80A    -11.305697    81A    -11.305618  
      82A    -11.305533    83A    -11.305506    84A    -11.304833  
      85A    -11.304805    86A    -11.304664    87A    -11.304625  
      88A    -11.304008    89A    -11.303991    90A    -11.303384  
      91A    -11.303359    92A    -11.303352    93A    -11.303331  
      94A    -11.302897    95A    -11.302887    96A    -11.302635  
      97A    -11.302553    98A    -11.301869    99A    -11.301837  
     100A    -11.301423   101A    -11.301418   102A    -11.299940  
     103A    -11.299936   104A     -1.564749   105A     -1.420224  
     106A     -1.308573   107A     -1.292376   108A     -1.292203  
     109A     -1.272946   110A     -1.272941   111A     -1.268858  
     112A     -1.252796   113A     -1.247758   114A     -1.241335  
     115A     -1.241216   116A     -1.225452   117A     -1.225311  
     118A     -1.225306   119A     -1.208494   120A     -1.208473  
     121A     -1.205696   122A     -1.196030   123A     -1.196017  
     124A     -1.180745   125A     -1.175550   126A     -1.167498  
     127A     -1.165367   128A     -1.165238   129A     -1.164375  
     130A     -1.162689   131A     -1.140487   132A     -1.140453  
     133A     -1.128080   134A     -1.128072   135A     -1.120085  
     136A     -1.120049   137A     -1.117706   138A     -1.105057  
     139A     -1.098591   140A     -1.098568   141A     -1.092261  
     142A     -1.089835   143A     -1.089831   144A     -1.078102  
     145A     -1.074872   146A     -1.074835   147A     -1.059133  
     148A     -1.058572   149A     -1.055483   150A     -1.052806  
     151A     -1.052799   152A     -1.041872   153A     -1.023071  
     154A     -1.023054   155A     -1.009344   156A     -1.007190  
     157A     -1.007187   158A     -0.983315   159A     -0.958863  
     160A     -0.958776   161A     -0.957888   162A     -0.956242  
     163A     -0.956209   164A     -0.945562   165A     -0.945509  
     166A     -0.943229   167A     -0.942946   168A     -0.941604  
     169A     -0.923285   170A     -0.919188   171A     -0.903378  
     172A     -0.902995   173A     -0.900474   174A     -0.900318  
     175A     -0.898152   176A     -0.895201   177A     -0.886164  
     178A     -0.886148   179A     -0.878811   180A     -0.878805  
     181A     -0.836988   182A     -0.836951   183A     -0.836899  
     184A     -0.834986   185A     -0.834786   186A     -0.834576  
     187A     -0.833896   188A     -0.833573   189A     -0.818936  
     190A     -0.813687   191A     -0.803167   192A     -0.802744  
     193A     -0.799119   194A     -0.784380   195A     -0.778919  
     196A     -0.778813   197A     -0.776942   198A     -0.776818  
     199A     -0.776382   200A     -0.776314   201A     -0.772502  
     202A     -0.770975   203A     -0.768965   204A     -0.766035  
     205A     -0.766027   206A     -0.750748   207A     -0.750745  
     208A     -0.738483   209A     -0.737210   210A     -0.737198  
     211A     -0.733701   212A     -0.733693   213A     -0.730442  
     214A     -0.715564   215A     -0.711724   216A     -0.704626  
     217A     -0.703444   218A     -0.702526   219A     -0.702470  
     220A     -0.701821   221A     -0.701809   222A     -0.700597  
     223A     -0.693097   224A     -0.693033   225A     -0.691453  
     226A     -0.690426   227A     -0.687857   228A     -0.687851  
     229A     -0.680748   230A     -0.672748   231A     -0.666089  
     232A     -0.666081   233A     -0.660238   234A     -0.660205  
     235A     -0.652685   236A     -0.652482   237A     -0.651067  
     238A     -0.650832   239A     -0.650547   240A     -0.650293  
     241A     -0.646477   242A     -0.646353   243A     -0.646315  
     244A     -0.646031   245A     -0.643175   246A     -0.643129  
     247A     -0.640073   248A     -0.628202   249A     -0.628200  
     250A     -0.628014   251A     -0.628007   252A     -0.624747  
     253A     -0.623225   254A     -0.620479   255A     -0.620410  
     256A     -0.617975   257A     -0.617874   258A     -0.611045  
     259A     -0.610518   260A     -0.610501   261A     -0.608879  
     262A     -0.605986   263A     -0.602236   264A     -0.597393  
     265A     -0.596398   266A     -0.588384   267A     -0.588248  
     268A     -0.584822   269A     -0.584727   270A     -0.582909  
     271A     -0.580261   272A     -0.579171   273A     -0.579153  
     274A     -0.568786   275A     -0.568677   276A     -0.566757  
     277A     -0.566750   278A     -0.560479   279A     -0.560436  
     280A     -0.549522   281A     -0.548124   282A     -0.548091  
     283A     -0.546739   284A     -0.546717   285A     -0.542624  
     286A     -0.532282   287A     -0.528516   288A     -0.528502  
     289A     -0.525219   290A     -0.521746   291A     -0.518296  
     292A     -0.518220   293A     -0.511093   294A     -0.510967  
     295A     -0.499622   296A     -0.499502   297A     -0.493915  
     298A     -0.493815   299A     -0.493640   300A     -0.485497  
     301A     -0.484867   302A     -0.459449   303A     -0.459407  
     304A     -0.439159   305A     -0.439123   306A     -0.436846  
     307A     -0.436495   308A     -0.436362   309A     -0.406189  
     310A     -0.406151   311A     -0.402565   312A     -0.392149  
     313A     -0.389970   314A     -0.389926   315A     -0.383499  
     316A     -0.383441   317A     -0.360046   318A     -0.354787  
     319A     -0.354772   320A     -0.352319   321A     -0.337680  
     322A     -0.306532   323A     -0.306161   324A     -0.306147  
     325A     -0.255872   326A     -0.255843  

    Virtual:                                                              

     327A     -0.063138   328A     -0.063004   329A     -0.055135  
     330A     -0.050560   331A     -0.042472   332A     -0.036209  
     333A     -0.020290   334A     -0.017859   335A     -0.017529  
     336A     -0.017432   337A     -0.017207   338A     -0.012519  
     339A     -0.010277   340A     -0.000705   341A      0.001312  
     342A      0.002335   343A      0.003934   344A      0.005730  
     345A      0.006643   346A      0.008662   347A      0.009611  
     348A      0.010741   349A      0.010778   350A      0.013200  
     351A      0.014570   352A      0.015055   353A      0.017572  
     354A      0.017694   355A      0.020333   356A      0.020606  
     357A      0.022097   358A      0.023338   359A      0.024863  
     360A      0.027485   361A      0.027492   362A      0.029572  
     363A      0.031680   364A      0.031719   365A      0.032712  
     366A      0.034282   367A      0.038928   368A      0.038976  
     369A      0.040901   370A      0.041676   371A      0.042266  
     372A      0.042832   373A      0.045539   374A      0.046906  
     375A      0.047542   376A      0.049439   377A      0.054147  
     378A      0.054375   379A      0.054607   380A      0.055160  
     381A      0.057862   382A      0.058909   383A      0.059078  
     384A      0.060499   385A      0.063067   386A      0.063370  
     387A      0.063414   388A      0.064002   389A      0.064335  
     390A      0.064937   391A      0.065415   392A      0.070185  
     393A      0.071182   394A      0.072295   395A      0.073151  
     396A      0.073968   397A      0.076127   398A      0.076386  
     399A      0.079553   400A      0.081050   401A      0.082829  
     402A      0.084298   403A      0.084780   404A      0.087539  
     405A      0.088021   406A      0.088386   407A      0.089879  
     408A      0.092142   409A      0.092191   410A      0.094235  
     411A      0.094852   412A      0.094897   413A      0.097897  
     414A      0.100203   415A      0.100489   416A      0.101482  
     417A      0.103338   418A      0.104976   419A      0.105381  
     420A      0.105683   421A      0.106573   422A      0.110149  
     423A      0.112653   424A      0.112680   425A      0.114162  
     426A      0.114337   427A      0.116197   428A      0.116268  
     429A      0.116559   430A      0.119543   431A      0.121605  
     432A      0.122071   433A      0.122619   434A      0.124484  
     435A      0.125573   436A      0.127830   437A      0.128053  
     438A      0.128443   439A      0.129314   440A      0.132978  
     441A      0.133443   442A      0.133674   443A      0.133987  
     444A      0.137368   445A      0.137592   446A      0.141091  
     447A      0.141980   448A      0.142342   449A      0.142749  
     450A      0.143081   451A      0.147298   452A      0.148602  
     453A      0.150596   454A      0.151280   455A      0.152790  
     456A      0.153829   457A      0.154042   458A      0.154199  
     459A      0.156131   460A      0.156546   461A      0.157118  
     462A      0.158395   463A      0.159265   464A      0.159336  
     465A      0.159953   466A      0.160007   467A      0.160679  
     468A      0.161175   469A      0.161683   470A      0.161975  
     471A      0.162174   472A      0.162528   473A      0.165044  
     474A      0.166079   475A      0.166915   476A      0.168288  
     477A      0.168750   478A      0.169529   479A      0.171517  
     480A      0.173070   481A      0.173747   482A      0.173874  
     483A      0.176077   484A      0.176809   485A      0.177245  
     486A      0.177703   487A      0.180184   488A      0.181520  
     489A      0.181737   490A      0.182604   491A      0.183274  
     492A      0.184126   493A      0.185263   494A      0.186585  
     495A      0.188805   496A      0.189406   497A      0.191030  
     498A      0.191467   499A      0.192028   500A      0.193351  
     501A      0.194304   502A      0.194602   503A      0.195931  
     504A      0.198188   505A      0.199154   506A      0.199415  
     507A      0.200209   508A      0.202679   509A      0.202789  
     510A      0.205020   511A      0.206974   512A      0.207452  
     513A      0.208801   514A      0.210394   515A      0.211406  
     516A      0.211777   517A      0.213379   518A      0.214057  
     519A      0.214953   520A      0.215736   521A      0.216789  
     522A      0.217875   523A      0.218707   524A      0.219643  
     525A      0.219825   526A      0.220875   527A      0.222497  
     528A      0.222591   529A      0.224130   530A      0.228376  
     531A      0.228434   532A      0.228816   533A      0.229251  
     534A      0.230080   535A      0.230403   536A      0.230811  
     537A      0.233068   538A      0.233480   539A      0.235224  
     540A      0.236251   541A      0.238000   542A      0.238323  
     543A      0.239833   544A      0.241243   545A      0.242669  
     546A      0.242952   547A      0.243577   548A      0.244853  
     549A      0.245675   550A      0.246055   551A      0.248013  
     552A      0.249499   553A      0.250357   554A      0.250893  
     555A      0.251957   556A      0.253677   557A      0.254569  
     558A      0.255006   559A      0.257654   560A      0.257757  
     561A      0.258606   562A      0.258802   563A      0.260601  
     564A      0.261479   565A      0.264687   566A      0.264808  
     567A      0.266302   568A      0.266854   569A      0.268578  
     570A      0.268681   571A      0.268771   572A      0.270055  
     573A      0.270863   574A      0.271045   575A      0.271439  
     576A      0.271957   577A      0.273113   578A      0.273467  
     579A      0.274495   580A      0.275802   581A      0.277851  
     582A      0.278599   583A      0.280277   584A      0.280463  
     585A      0.280717   586A      0.282218   587A      0.282511  
     588A      0.283626   589A      0.283796   590A      0.286074  
     591A      0.286150   592A      0.287128   593A      0.289285  
     594A      0.289471   595A      0.291227   596A      0.292265  
     597A      0.292941   598A      0.294082   599A      0.295289  
     600A      0.295375   601A      0.296842   602A      0.297126  
     603A      0.297429   604A      0.298338   605A      0.299438  
     606A      0.300039   607A      0.300411   608A      0.301402  
     609A      0.302861   610A      0.305340   611A      0.305502  
     612A      0.307685   613A      0.309358   614A      0.313288  
     615A      0.313395   616A      0.314188   617A      0.316105  
     618A      0.317589   619A      0.317788   620A      0.318475  
     621A      0.319632   622A      0.320131   623A      0.320583  
     624A      0.322903   625A      0.323071   626A      0.324117  
     627A      0.326025   628A      0.326728   629A      0.327642  
     630A      0.329787   631A      0.330086   632A      0.330912  
     633A      0.332036   634A      0.332940   635A      0.333032  
     636A      0.334317   637A      0.336277   638A      0.336783  
     639A      0.339560   640A      0.340677   641A      0.341237  
     642A      0.342432   643A      0.343539   644A      0.344674  
     645A      0.345052   646A      0.345597   647A      0.346043  
     648A      0.346488   649A      0.346701   650A      0.347202  
     651A      0.347781   652A      0.349036   653A      0.350008  
     654A      0.350705   655A      0.351506   656A      0.351793  
     657A      0.352877   658A      0.353589   659A      0.354431  
     660A      0.354884   661A      0.355675   662A      0.356394  
     663A      0.357180   664A      0.359104   665A      0.359270  
     666A      0.359518   667A      0.360612   668A      0.361323  
     669A      0.362007   670A      0.362287   671A      0.363645  
     672A      0.365057   673A      0.365860   674A      0.366720  
     675A      0.367427   676A      0.367861   677A      0.368466  
     678A      0.368883   679A      0.371901   680A      0.374027  
     681A      0.375380   682A      0.376972   683A      0.378054  
     684A      0.379241   685A      0.379467   686A      0.380075  
     687A      0.380810   688A      0.381169   689A      0.382088  
     690A      0.382331   691A      0.383411   692A      0.384039  
     693A      0.385538   694A      0.385891   695A      0.386410  
     696A      0.387823   697A      0.389114   698A      0.389473  
     699A      0.390615   700A      0.393262   701A      0.399069  
     702A      0.400079   703A      0.400318   704A      0.401855  
     705A      0.402393   706A      0.402738   707A      0.403190  
     708A      0.403903   709A      0.404640   710A      0.405605  
     711A      0.405709   712A      0.406875   713A      0.407314  
     714A      0.408953   715A      0.410136   716A      0.411077  
     717A      0.412266   718A      0.413411   719A      0.414606  
     720A      0.415334   721A      0.416526   722A      0.417052  
     723A      0.417341   724A      0.418642   725A      0.418784  
     726A      0.420185   727A      0.421050   728A      0.424258  
     729A      0.424406   730A      0.424831   731A      0.425527  
     732A      0.426178   733A      0.427477   734A      0.428206  
     735A      0.429012   736A      0.429500   737A      0.429664  
     738A      0.432605   739A      0.435104   740A      0.435247  
     741A      0.436223   742A      0.438735   743A      0.439675  
     744A      0.440465   745A      0.441641   746A      0.442875  
     747A      0.443445   748A      0.443913   749A      0.446473  
     750A      0.446835   751A      0.450285   752A      0.451569  
     753A      0.452926   754A      0.453197   755A      0.453510  
     756A      0.453964   757A      0.455081   758A      0.455615  
     759A      0.456531   760A      0.456875   761A      0.462023  
     762A      0.464003   763A      0.464814   764A      0.464989  
     765A      0.466626   766A      0.467153   767A      0.467702  
     768A      0.467882   769A      0.469341   770A      0.471329  
     771A      0.472848   772A      0.473504   773A      0.474374  
     774A      0.477604   775A      0.480089   776A      0.482676  
     777A      0.482739   778A      0.482833   779A      0.486592  
     780A      0.487615   781A      0.489386   782A      0.489545  
     783A      0.491136   784A      0.492974   785A      0.494166  
     786A      0.495293   787A      0.502782   788A      0.506917  
     789A      0.507499   790A      0.509476   791A      0.511147  
     792A      0.511201   793A      0.511768   794A      0.515890  
     795A      0.516768   796A      0.517379   797A      0.520803  
     798A      0.521291   799A      0.521603   800A      0.521813  
     801A      0.524334   802A      0.524811   803A      0.525135  
     804A      0.526678   805A      0.527348   806A      0.527754  
     807A      0.528524   808A      0.528537   809A      0.532203  
     810A      0.535594   811A      0.537573   812A      0.538791  
     813A      0.538848   814A      0.539722   815A      0.542544  
     816A      0.543015   817A      0.546420   818A      0.546603  
     819A      0.547314   820A      0.550442   821A      0.551694  
     822A      0.553014   823A      0.554169   824A      0.555103  
     825A      0.560611   826A      0.565574   827A      0.568059  
     828A      0.568161   829A      0.569290   830A      0.569729  
     831A      0.572610   832A      0.578129   833A      0.579610  
     834A      0.580142   835A      0.581128   836A      0.583549  
     837A      0.586052   838A      0.590204   839A      0.591960  
     840A      0.595031   841A      0.603897   842A      0.604141  
     843A      0.605613   844A      0.607233   845A      0.608288  
     846A      0.608849   847A      0.609034   848A      0.613711  
     849A      0.615744   850A      0.616091   851A      0.621236  
     852A      0.628820   853A      0.629868   854A      0.633509  
     855A      0.634472   856A      0.635905   857A      0.636371  
     858A      0.638958   859A      0.640104   860A      0.640384  
     861A      0.641109   862A      0.643148   863A      0.647730  
     864A      0.648329   865A      0.649567   866A      0.649834  
     867A      0.650337   868A      0.655395   869A      0.655719  
     870A      0.659619   871A      0.666914   872A      0.668261  
     873A      0.670771   874A      0.672666   875A      0.677620  
     876A      0.678219   877A      0.681854   878A      0.684855  
     879A      0.689181   880A      0.689776   881A      0.691205  
     882A      0.692506   883A      0.693661   884A      0.694280  
     885A      0.698413   886A      0.699327   887A      0.699422  
     888A      0.702763   889A      0.704052   890A      0.710914  
     891A      0.717972   892A      0.720906   893A      0.728507  
     894A      0.732633   895A      0.732874   896A      0.735409  
     897A      0.737803   898A      0.739224   899A      0.741923  
     900A      0.743272   901A      0.743459   902A      0.747596  
     903A      0.749952   904A      0.751965   905A      0.752711  
     906A      0.755790   907A      0.756766   908A      0.757267  
     909A      0.760467   910A      0.760919   911A      0.763985  
     912A      0.764434   913A      0.765267   914A      0.767436  
     915A      0.769073   916A      0.770044   917A      0.771531  
     918A      0.777417   919A      0.778045   920A      0.779566  
     921A      0.781246   922A      0.783669   923A      0.784578  
     924A      0.785332   925A      0.786403   926A      0.788732  
     927A      0.791200   928A      0.792195   929A      0.793175  
     930A      0.795044   931A      0.796222   932A      0.797512  
     933A      0.798646   934A      0.802277   935A      0.805213  
     936A      0.806601   937A      0.808147   938A      0.809538  
     939A      0.811046   940A      0.811576   941A      0.814369  
     942A      0.815179   943A      0.818472   944A      0.818624  
     945A      0.819360   946A      0.820782   947A      0.821733  
     948A      0.823964   949A      0.824661   950A      0.825581  
     951A      0.827203   952A      0.827728   953A      0.828957  
     954A      0.830740   955A      0.832095   956A      0.835670  
     957A      0.835917   958A      0.838682   959A      0.839028  
     960A      0.840127   961A      0.840690   962A      0.841232  
     963A      0.843179   964A      0.845979   965A      0.847899  
     966A      0.848903   967A      0.849638   968A      0.851794  
     969A      0.854348   970A      0.856751   971A      0.857261  
     972A      0.862096   973A      0.865543   974A      0.866358  
     975A      0.866677   976A      0.869555   977A      0.870497  
     978A      0.871481   979A      0.871839   980A      0.872208  
     981A      0.872686   982A      0.875418   983A      0.877008  
     984A      0.877611   985A      0.880601   986A      0.881907  
     987A      0.883051   988A      0.883487   989A      0.885260  
     990A      0.887481   991A      0.887842   992A      0.888312  
     993A      0.893863   994A      0.895764   995A      0.897318  
     996A      0.898337   997A      0.900069   998A      0.900196  
     999A      0.900333  1000A      0.901880  1001A      0.902867  
    1002A      0.903072  1003A      0.906004  1004A      0.906069  
    1005A      0.906528  1006A      0.907123  1007A      0.907714  
    1008A      0.915247  1009A      0.915437  1010A      0.916862  
    1011A      0.917571  1012A      0.919335  1013A      0.920137  
    1014A      0.923050  1015A      0.930903  1016A      0.932615  
    1017A      0.932697  1018A      0.935910  1019A      0.942483  
    1020A      0.942974  1021A      0.943211  1022A      0.943520  
    1023A      0.950036  1024A      0.950139  1025A      0.951920  
    1026A      0.953098  1027A      0.954245  1028A      0.954365  
    1029A      0.954750  1030A      0.958895  1031A      0.959963  
    1032A      0.963116  1033A      0.964369  1034A      0.965992  
    1035A      0.968375  1036A      0.969073  1037A      0.969907  
    1038A      0.972010  1039A      0.972411  1040A      0.974702  
    1041A      0.978720  1042A      0.979109  1043A      0.980834  
    1044A      0.982391  1045A      0.982596  1046A      0.985134  
    1047A      0.985861  1048A      0.987421  1049A      0.993986  
    1050A      0.994565  1051A      0.995199  1052A      0.995398  
    1053A      0.995854  1054A      0.996575  1055A      0.996874  
    1056A      0.996964  1057A      0.997763  1058A      1.000829  
    1059A      1.001676  1060A      1.002250  1061A      1.002620  
    1062A      1.002664  1063A      1.009417  1064A      1.010081  
    1065A      1.010487  1066A      1.013156  1067A      1.013691  
    1068A      1.015136  1069A      1.015894  1070A      1.016266  
    1071A      1.017230  1072A      1.018501  1073A      1.018672  
    1074A      1.019604  1075A      1.020425  1076A      1.020593  
    1077A      1.020939  1078A      1.021398  1079A      1.022613  
    1080A      1.023203  1081A      1.023969  1082A      1.025228  
    1083A      1.025695  1084A      1.025773  1085A      1.026594  
    1086A      1.026799  1087A      1.027829  1088A      1.028048  
    1089A      1.028636  1090A      1.029407  1091A      1.029501  
    1092A      1.029857  1093A      1.031411  1094A      1.032114  
    1095A      1.033332  1096A      1.033764  1097A      1.034618  
    1098A      1.036648  1099A      1.037839  1100A      1.038208  
    1101A      1.038696  1102A      1.040064  1103A      1.041379  
    1104A      1.042800  1105A      1.045477  1106A      1.046165  
    1107A      1.046540  1108A      1.048621  1109A      1.048926  
    1110A      1.049379  1111A      1.051130  1112A      1.051295  
    1113A      1.052908  1114A      1.058653  1115A      1.059509  
    1116A      1.060989  1117A      1.061734  1118A      1.067906  
    1119A      1.068872  1120A      1.069004  1121A      1.070319  
    1122A      1.075895  1123A      1.076796  1124A      1.078034  
    1125A      1.079404  1126A      1.079886  1127A      1.082216  
    1128A      1.082501  1129A      1.082843  1130A      1.086117  
    1131A      1.086446  1132A      1.087179  1133A      1.088077  
    1134A      1.091677  1135A      1.093110  1136A      1.093963  
    1137A      1.094993  1138A      1.097283  1139A      1.098264  
    1140A      1.099388  1141A      1.100198  1142A      1.103789  
    1143A      1.105890  1144A      1.106030  1145A      1.108096  
    1146A      1.111307  1147A      1.112017  1148A      1.115266  
    1149A      1.116471  1150A      1.118039  1151A      1.119018  
    1152A      1.123800  1153A      1.124440  1154A      1.126510  
    1155A      1.129679  1156A      1.132620  1157A      1.134267  
    1158A      1.134755  1159A      1.136750  1160A      1.139959  
    1161A      1.140617  1162A      1.141908  1163A      1.141984  
    1164A      1.150233  1165A      1.151049  1166A      1.151263  
    1167A      1.152741  1168A      1.154035  1169A      1.154146  
    1170A      1.156857  1171A      1.160051  1172A      1.161805  
    1173A      1.163544  1174A      1.164256  1175A      1.165305  
    1176A      1.167880  1177A      1.168903  1178A      1.171763  
    1179A      1.172834  1180A      1.174635  1181A      1.176864  
    1182A      1.181271  1183A      1.182522  1184A      1.183314  
    1185A      1.195995  1186A      1.196243  1187A      1.197626  
    1188A      1.201214  1189A      1.201989  1190A      1.204456  
    1191A      1.210530  1192A      1.211029  1193A      1.211233  
    1194A      1.213203  1195A      1.218321  1196A      1.219820  
    1197A      1.220316  1198A      1.221739  1199A      1.226098  
    1200A      1.234503  1201A      1.234830  1202A      1.239023  
    1203A      1.240037  1204A      1.240767  1205A      1.242678  
    1206A      1.244058  1207A      1.244481  1208A      1.246605  
    1209A      1.251479  1210A      1.252282  1211A      1.254983  
    1212A      1.255495  1213A      1.257030  1214A      1.259674  
    1215A      1.261647  1216A      1.262757  1217A      1.263154  
    1218A      1.268796  1219A      1.269054  1220A      1.269174  
    1221A      1.269897  1222A      1.271197  1223A      1.275539  
    1224A      1.276162  1225A      1.278563  1226A      1.279725  
    1227A      1.280634  1228A      1.284821  1229A      1.285089  
    1230A      1.288737  1231A      1.289095  1232A      1.289699  
    1233A      1.291305  1234A      1.293573  1235A      1.296239  
    1236A      1.299967  1237A      1.301696  1238A      1.304674  
    1239A      1.304844  1240A      1.307087  1241A      1.307504  
    1242A      1.310292  1243A      1.312635  1244A      1.312911  
    1245A      1.318053  1246A      1.318368  1247A      1.320063  
    1248A      1.321616  1249A      1.322905  1250A      1.324024  
    1251A      1.335732  1252A      1.336109  1253A      1.338000  
    1254A      1.340399  1255A      1.343825  1256A      1.344386  
    1257A      1.344573  1258A      1.345094  1259A      1.349000  
    1260A      1.355210  1261A      1.356598  1262A      1.356905  
    1263A      1.357009  1264A      1.358433  1265A      1.359958  
    1266A      1.362277  1267A      1.362908  1268A      1.363423  
    1269A      1.365413  1270A      1.370219  1271A      1.371866  
    1272A      1.372364  1273A      1.373932  1274A      1.375879  
    1275A      1.375953  1276A      1.376452  1277A      1.377839  
    1278A      1.379899  1279A      1.381922  1280A      1.384326  
    1281A      1.385430  1282A      1.386795  1283A      1.388644  
    1284A      1.389107  1285A      1.394459  1286A      1.395291  
    1287A      1.396344  1288A      1.398194  1289A      1.399212  
    1290A      1.399315  1291A      1.402263  1292A      1.403922  
    1293A      1.411853  1294A      1.412285  1295A      1.418159  
    1296A      1.418929  1297A      1.419264  1298A      1.420254  
    1299A      1.421219  1300A      1.428203  1301A      1.432525  
    1302A      1.433125  1303A      1.434364  1304A      1.439290  
    1305A      1.439642  1306A      1.444370  1307A      1.444738  
    1308A      1.448005  1309A      1.451976  1310A      1.454140  
    1311A      1.454745  1312A      1.465196  1313A      1.466086  
    1314A      1.480971  1315A      1.486917  1316A      1.489052  
    1317A      1.489110  1318A      1.492247  1319A      1.492789  
    1320A      1.501352  1321A      1.501405  1322A      1.517611  
    1323A      1.531421  1324A      1.533703  1325A      1.541151  
    1326A      1.541708  1327A      1.546256  1328A      1.549468  
    1329A      1.551470  1330A      1.552518  1331A      1.553305  
    1332A      1.554831  1333A      1.555565  1334A      1.558551  
    1335A      1.558906  1336A      1.559394  1337A      1.562123  
    1338A      1.562552  1339A      1.563033  1340A      1.563892  
    1341A      1.564533  1342A      1.567427  1343A      1.568591  
    1344A      1.569073  1345A      1.571449  1346A      1.572928  
    1347A      1.574967  1348A      1.575091  1349A      1.578258  
    1350A      1.578686  1351A      1.579112  1352A      1.583446  
    1353A      1.583574  1354A      1.583858  1355A      1.585377  
    1356A      1.586028  1357A      1.586519  1358A      1.586989  
    1359A      1.587747  1360A      1.588881  1361A      1.590791  
    1362A      1.591453  1363A      1.593428  1364A      1.599737  
    1365A      1.600385  1366A      1.600715  1367A      1.604736  
    1368A      1.604993  1369A      1.605409  1370A      1.612324  
    1371A      1.612839  1372A      1.615823  1373A      1.615968  
    1374A      1.616362  1375A      1.617213  1376A      1.617258  
    1377A      1.618861  1378A      1.621700  1379A      1.624953  
    1380A      1.625483  1381A      1.625924  1382A      1.626776  
    1383A      1.634332  1384A      1.636120  1385A      1.637452  
    1386A      1.640962  1387A      1.643908  1388A      1.644156  
    1389A      1.644868  1390A      1.645694  1391A      1.647895  
    1392A      1.657740  1393A      1.657922  1394A      1.658262  
    1395A      1.662682  1396A      1.664462  1397A      1.664676  
    1398A      1.667559  1399A      1.669096  1400A      1.670171  
    1401A      1.670373  1402A      1.672835  1403A      1.673703  
    1404A      1.677673  1405A      1.684667  1406A      1.685698  
    1407A      1.686462  1408A      1.694327  1409A      1.696081  
    1410A      1.696182  1411A      1.696944  1412A      1.698532  
    1413A      1.699390  1414A      1.711840  1415A      1.713294  
    1416A      1.714267  1417A      1.716838  1418A      1.728300  
    1419A      1.734595  1420A      1.736730  1421A      1.737125  
    1422A      1.748600  1423A      1.750042  1424A      1.750300  
    1425A      1.757573  1426A      1.762255  1427A      1.764524  
    1428A      1.766227  1429A      1.770138  1430A      1.771429  
    1431A      1.772284  1432A      1.775204  1433A      1.775862  
    1434A      1.776524  1435A      1.778362  1436A      1.779517  
    1437A      1.781339  1438A      1.781749  1439A      1.784840  
    1440A      1.784959  1441A      1.785198  1442A      1.786041  
    1443A      1.791915  1444A      1.793389  1445A      1.800466  
    1446A      1.805255  1447A      1.805393  1448A      1.808648  
    1449A      1.809025  1450A      1.811148  1451A      1.811309  
    1452A      1.813559  1453A      1.813784  1454A      1.818596  
    1455A      1.819328  1456A      1.821689  1457A      1.822280  
    1458A      1.824256  1459A      1.825282  1460A      1.826902  
    1461A      1.829985  1462A      1.830964  1463A      1.831533  
    1464A      1.831966  1465A      1.832855  1466A      1.833112  
    1467A      1.833952  1468A      1.834561  1469A      1.835009  
    1470A      1.837481  1471A      1.837910  1472A      1.851683  
    1473A      1.851751  1474A      1.854489  1475A      1.854734  
    1476A      1.859689  1477A      1.860029  1478A      1.863306  
    1479A      1.863982  1480A      1.865312  1481A      1.869054  
    1482A      1.869877  1483A      1.870402  1484A      1.872532  
    1485A      1.873198  1486A      1.873970  1487A      1.874768  
    1488A      1.879540  1489A      1.883881  1490A      1.885969  
    1491A      1.886397  1492A      1.887032  1493A      1.887789  
    1494A      1.888472  1495A      1.888538  1496A      1.890713  
    1497A      1.891790  1498A      1.892761  1499A      1.894461  
    1500A      1.899703  1501A      1.901410  1502A      1.903432  
    1503A      1.906801  1504A      1.907356  1505A      1.909065  
    1506A      1.909170  1507A      1.909632  1508A      1.910867  
    1509A      1.913676  1510A      1.915937  1511A      1.917033  
    1512A      1.918094  1513A      1.919589  1514A      1.920708  
    1515A      1.921537  1516A      1.928824  1517A      1.930038  
    1518A      1.933289  1519A      1.937739  1520A      1.940324  
    1521A      1.940559  1522A      1.941902  1523A      1.942297  
    1524A      1.943586  1525A      1.954875  1526A      1.955758  
    1527A      1.958330  1528A      1.959904  1529A      1.960734  
    1530A      1.963308  1531A      1.964596  1532A      1.964774  
    1533A      1.965270  1534A      1.966594  1535A      1.967550  
    1536A      1.967978  1537A      1.969687  1538A      1.970456  
    1539A      1.972686  1540A      1.976630  1541A      1.978870  
    1542A      1.980920  1543A      1.981910  1544A      1.982656  
    1545A      1.984149  1546A      1.987956  1547A      1.990237  
    1548A      1.990788  1549A      1.995431  1550A      1.998059  
    1551A      2.000208  1552A      2.001565  1553A      2.004148  
    1554A      2.004766  1555A      2.006867  1556A      2.007504  
    1557A      2.008205  1558A      2.008765  1559A      2.014586  
    1560A      2.016924  1561A      2.017112  1562A      2.018876  
    1563A      2.020990  1564A      2.023865  1565A      2.026691  
    1566A      2.027697  1567A      2.028705  1568A      2.028903  
    1569A      2.030531  1570A      2.031021  1571A      2.031257  
    1572A      2.031887  1573A      2.034819  1574A      2.036435  
    1575A      2.036917  1576A      2.038195  1577A      2.039381  
    1578A      2.040027  1579A      2.040532  1580A      2.042035  
    1581A      2.042781  1582A      2.044734  1583A      2.045417  
    1584A      2.046347  1585A      2.046631  1586A      2.049557  
    1587A      2.049773  1588A      2.050694  1589A      2.055323  
    1590A      2.056071  1591A      2.058419  1592A      2.059925  
    1593A      2.060010  1594A      2.060826  1595A      2.061599  
    1596A      2.062634  1597A      2.064900  1598A      2.066487  
    1599A      2.067887  1600A      2.073912  1601A      2.074726  
    1602A      2.075113  1603A      2.075504  1604A      2.075923  
    1605A      2.076647  1606A      2.076875  1607A      2.078826  
    1608A      2.081203  1609A      2.083228  1610A      2.083707  
    1611A      2.085010  1612A      2.085484  1613A      2.090320  
    1614A      2.090745  1615A      2.092579  1616A      2.093378  
    1617A      2.094127  1618A      2.102745  1619A      2.102849  
    1620A      2.104285  1621A      2.104679  1622A      2.106318  
    1623A      2.107469  1624A      2.107923  1625A      2.108621  
    1626A      2.111457  1627A      2.112487  1628A      2.112893  
    1629A      2.119673  1630A      2.120019  1631A      2.128172  
    1632A      2.128990  1633A      2.130542  1634A      2.131084  
    1635A      2.136453  1636A      2.136730  1637A      2.138195  
    1638A      2.138438  1639A      2.140024  1640A      2.141843  
    1641A      2.144542  1642A      2.145424  1643A      2.146635  
    1644A      2.147501  1645A      2.149217  1646A      2.149689  
    1647A      2.151062  1648A      2.152062  1649A      2.152846  
    1650A      2.154560  1651A      2.157536  1652A      2.161574  
    1653A      2.162129  1654A      2.162484  1655A      2.167980  
    1656A      2.171597  1657A      2.172007  1658A      2.172307  
    1659A      2.172493  1660A      2.173783  1661A      2.174173  
    1662A      2.177331  1663A      2.181125  1664A      2.182264  
    1665A      2.183742  1666A      2.184919  1667A      2.186452  
    1668A      2.186661  1669A      2.190416  1670A      2.195079  
    1671A      2.195657  1672A      2.197464  1673A      2.198199  
    1674A      2.210986  1675A      2.211967  1676A      2.212329  
    1677A      2.213093  1678A      2.214815  1679A      2.216046  
    1680A      2.220250  1681A      2.222975  1682A      2.231747  
    1683A      2.232979  1684A      2.237511  1685A      2.239373  
    1686A      2.240811  1687A      2.244169  1688A      2.245893  
    1689A      2.252603  1690A      2.253196  1691A      2.257733  
    1692A      2.260775  1693A      2.263488  1694A      2.271754  
    1695A      2.273379  1696A      2.273657  1697A      2.275827  
    1698A      2.277585  1699A      2.279402  1700A      2.279805  
    1701A      2.280617  1702A      2.281656  1703A      2.283391  
    1704A      2.286946  1705A      2.289798  1706A      2.290492  
    1707A      2.290797  1708A      2.292980  1709A      2.293560  
    1710A      2.294320  1711A      2.296432  1712A      2.296842  
    1713A      2.308466  1714A      2.314247  1715A      2.318721  
    1716A      2.319329  1717A      2.332691  1718A      2.336104  
    1719A      2.337649  1720A      2.339191  1721A      2.339601  
    1722A      2.341550  1723A      2.344325  1724A      2.348973  
    1725A      2.366887  1726A      2.368032  1727A      2.371463  
    1728A      2.376186  1729A      2.379559  1730A      2.390021  
    1731A      2.391763  1732A      2.399785  1733A      2.401018  
    1734A      2.412972  1735A      2.413080  1736A      2.416455  
    1737A      2.416640  1738A      2.420823  1739A      2.421117  
    1740A      2.440437  1741A      2.440883  1742A      2.442296  
    1743A      2.451054  1744A      2.455358  1745A      2.456644  
    1746A      2.457647  1747A      2.460714  1748A      2.465845  
    1749A      2.475190  1750A      2.487170  1751A      2.487346  
    1752A      2.488819  1753A      2.490967  1754A      2.491588  
    1755A      2.492965  1756A      2.496165  1757A      2.497446  
    1758A      2.498596  1759A      2.500308  1760A      2.503666  
    1761A      2.503850  1762A      2.509412  1763A      2.512474  
    1764A      2.519760  1765A      2.521630  1766A      2.530183  
    1767A      2.533889  1768A      2.533966  1769A      2.534549  
    1770A      2.535234  1771A      2.539000  1772A      2.539435  
    1773A      2.541933  1774A      2.544444  1775A      2.550381  
    1776A      2.550549  1777A      2.561586  1778A      2.561820  
    1779A      2.562176  1780A      2.562686  1781A      2.565982  
    1782A      2.566452  1783A      2.580985  1784A      2.585502  
    1785A      2.588844  1786A      2.589890  1787A      2.592027  
    1788A      2.593587  1789A      2.596214  1790A      2.596753  
    1791A      2.597946  1792A      2.602222  1793A      2.605401  
    1794A      2.605593  1795A      2.613083  1796A      2.613942  
    1797A      2.616327  1798A      2.617098  1799A      2.619780  
    1800A      2.620714  1801A      2.621301  1802A      2.626484  
    1803A      2.627389  1804A      2.633034  1805A      2.633955  
    1806A      2.635408  1807A      2.639342  1808A      2.639604  
    1809A      2.639825  1810A      2.641132  1811A      2.644298  
    1812A      2.645697  1813A      2.649056  1814A      2.652305  
    1815A      2.670128  1816A      2.672944  1817A      2.679026  
    1818A      2.679073  1819A      2.679986  1820A      2.681718  
    1821A      2.682037  1822A      2.691206  1823A      2.693025  
    1824A      2.700250  1825A      2.701951  1826A      2.706948  
    1827A      2.707755  1828A      2.717688  1829A      2.719107  
    1830A      2.722626  1831A      2.727578  1832A      2.728283  
    1833A      2.746215  1834A      2.747225  1835A      2.747369  
    1836A      2.748573  1837A      2.749630  1838A      2.749742  
    1839A      2.756230  1840A      2.758300  1841A      2.759039  
    1842A      2.762194  1843A      2.762490  1844A      2.764004  
    1845A      2.764714  1846A      2.774982  1847A      2.775295  
    1848A      2.788056  1849A      2.788428  1850A      2.789790  
    1851A      2.789851  1852A      2.794165  1853A      2.807319  
    1854A      2.808321  1855A      2.812844  1856A      2.813382  
    1857A      2.818966  1858A      2.820150  1859A      2.822544  
    1860A      2.842115  1861A      2.843032  1862A      2.859318  
    1863A      2.867527  1864A      2.867689  1865A      2.877463  
    1866A      2.879565  1867A      2.884288  1868A      2.884414  
    1869A      2.912081  1870A      2.914354  1871A      2.914854  
    1872A      2.925412  1873A      2.927613  1874A      2.941301  
    1875A      2.941505  1876A      2.977291  1877A      2.978086  
    1878A      2.984721  1879A      2.986404  1880A      2.988146  
    1881A      2.995214  1882A      2.996007  1883A      2.998044  
    1884A      3.005415  1885A      3.005570  1886A      3.014491  
    1887A      3.021317  1888A      3.057683  1889A      3.058489  
    1890A      3.062585  1891A      3.062889  1892A      3.071032  
    1893A      3.074887  1894A      3.075447  1895A      3.076256  
    1896A      3.081159  1897A      3.082909  1898A      3.091399  
    1899A      3.092598  1900A      3.096667  1901A      3.097017  
    1902A      3.098997  1903A      3.099795  1904A      3.103381  
    1905A      3.112283  1906A      3.114776  1907A      3.122849  
    1908A      3.124808  1909A      3.125044  1910A      3.142818  
    1911A      3.143671  1912A      3.170175  1913A      3.201741  
    1914A      3.208581  1915A      3.209409  1916A      3.209612  
    1917A      3.210575  1918A      3.212826  1919A      3.216898  
    1920A      3.220353  1921A      3.223861  1922A      3.224326  
    1923A      3.241522  1924A      3.243402  1925A      3.244261  
    1926A      3.251332  1927A      3.308647  1928A      3.309658  
    1929A      3.317295  1930A      3.362799  1931A      3.376799  
    1932A      3.379041  1933A      3.381475  1934A      3.391271  
    1935A      3.396086  1936A      3.407125  1937A      3.411486  
    1938A      3.412496  1939A      3.418264  1940A      3.420978  
    1941A      3.427931  1942A      3.432947  1943A      3.440432  
    1944A      3.449614  1945A      3.456123  1946A      3.486086  
    1947A      3.521707  1948A      3.523391  1949A      3.530345  
    1950A      3.538378  1951A      3.538750  1952A      3.585861  
    1953A      3.587017  1954A      3.612133  1955A      3.615009  
    1956A      3.652600  1957A      3.694294  1958A      3.697717  
    1959A      3.698555  1960A      3.709736  1961A      3.725808  
    1962A      3.727543  1963A      3.790517  1964A      3.791590  
    1965A      3.820009  1966A      3.822961  1967A      3.852676  
    1968A      3.860468  1969A      3.884138  1970A      3.886262  
    1971A      3.896386  1972A      3.897483  1973A      3.905778  
    1974A      3.910520  1975A      3.917559  1976A      3.971611  
    1977A      3.974135  1978A      4.017028  1979A      4.174258  
    1980A      4.246375  1981A      4.337917  

    Final Occupation by Irrep:
              A 
    DOCC [   326 ]
    NA   [   326 ]
    NB   [   326 ]

  @DF-RHF Final Energy: -3953.64626801832583

   => Energetics <=

    Nuclear Repulsion Energy =          17661.7510050582459371
    One-Electron Energy =              -40535.6446220310026547
    Two-Electron Energy =               18920.2473489544317999
    Total Energy =                      -3953.6462680183249176

Computation Completed


Properties will be evaluated at   0.000000,   0.000000,   0.000000 [a0]

Properties computed using the SCF density matrix


 Multipole Moments:

 ------------------------------------------------------------------------------------
     Multipole            Electronic (a.u.)      Nuclear  (a.u.)        Total (a.u.)
 ------------------------------------------------------------------------------------

 L = 1.  Multiply by 2.5417464519 to convert [e a0] to [Debye]
 Dipole X            :         -0.0024272            0.0004804           -0.0019468
 Dipole Y            :         -6.8331402            8.7122315            1.8790913
 Dipole Z            :         31.6302798          -43.0554821          -11.4252023
 Magnitude           :                                                   11.5786975

 ------------------------------------------------------------------------------------

*** tstop() called on n2cn0267 at Wed Jan 24 20:08:11 2024
Module time:
	user time   =   27932.85 seconds =     465.55 minutes
	system time =    1410.82 seconds =      23.51 minutes
	total time  =       5941 seconds =      99.02 minutes
Total time:
	user time   =   27932.85 seconds =     465.55 minutes
	system time =    1410.82 seconds =      23.51 minutes
	total time  =       5941 seconds =      99.02 minutes

  //>>>>>>>>>>>>>>>>>>>>>>>>>>>>>>>>>>>//
  //            Monomer A HF           //
  //<<<<<<<<<<<<<<<<<<<<<<<<<<<<<<<<<<<//

   => Libint2 <=

    Primary   basis highest AM E, G, H:  5, 4, 3
    Auxiliary basis highest AM E, G, H:  6, 5, 4
    Onebody   basis highest AM E, G, H:  6, 5, 4
    Solid Harmonics ordering:            gaussian

*** tstart() called on n2cn0267
*** at Wed Jan 24 20:08:12 2024

   => Loading Basis Set <=

    Name: JUN-CC-PVDZ
    Role: ORBITAL
    Keyword: BASIS
    atoms 1-2, 4-5, 10, 17-34, 41-53, 56-70, 73-89, 92-104, 109-119, 122-130 entry C          line   164 file /opt/software/pc2/EB-SW/software/PSI4/1.9-foss-2022a/share/psi4/basis/jun-cc-pvdz.gbs 
    atoms 3, 6                                                               entry N          line   198 file /opt/software/pc2/EB-SW/software/PSI4/1.9-foss-2022a/share/psi4/basis/jun-cc-pvdz.gbs 
    atoms 7-9, 11-16, 35-40, 54-55, 71-72, 90-91, 105-108, 120-121, 131-136  entry H          line    36 file /opt/software/pc2/EB-SW/software/PSI4/1.9-foss-2022a/share/psi4/basis/jun-cc-pvdz.gbs 


         ---------------------------------------------------------
                                   SCF
               by Justin Turney, Rob Parrish, Andy Simmonett
                          and Daniel G. A. Smith
                              RHF Reference
                       16 Threads,  44822 MiB Core
         ---------------------------------------------------------

  ==> Geometry <==

    Molecular point group: c1
    Full point group: C1

    Geometry (in Angstrom), charge = 1, multiplicity = 1:

       Center              X                  Y                   Z               Mass       
    ------------   -----------------  -----------------  -----------------  -----------------
         C            0.680062820275     1.308604348936    -8.051741938463    12.000000000000
         C           -0.680508179725     1.310632348936    -8.051357938463    12.000000000000
         N           -1.085639179725     1.311630348936    -6.733033938463    14.003074004430
         C            0.000103820275     1.314906348936    -5.951632938463    12.000000000000
[...]
    1579A      2.162550  1580A      2.162896  1581A      2.171240  
    1582A      2.171585  1583A      2.179646  1584A      2.179996  
    1585A      2.181288  1586A      2.181931  1587A      2.182905  
    1588A      2.188370  1589A      2.188777  1590A      2.190437  
    1591A      2.191475  1592A      2.192440  1593A      2.193279  
    1594A      2.195137  1595A      2.197195  1596A      2.198264  
    1597A      2.199911  1598A      2.200478  1599A      2.200854  
    1600A      2.201065  1601A      2.201818  1602A      2.203847  
    1603A      2.205037  1604A      2.205708  1605A      2.209294  
    1606A      2.213791  1607A      2.214107  1608A      2.217915  
    1609A      2.220157  1610A      2.222281  1611A      2.222742  
    1612A      2.224336  1613A      2.224841  1614A      2.224902  
    1615A      2.228826  1616A      2.232055  1617A      2.232327  
    1618A      2.233397  1619A      2.238776  1620A      2.238945  
    1621A      2.239566  1622A      2.241126  1623A      2.244335  
    1624A      2.247732  1625A      2.248144  1626A      2.248801  
    1627A      2.251010  1628A      2.260592  1629A      2.261510  
    1630A      2.263432  1631A      2.264958  1632A      2.266584  
    1633A      2.269658  1634A      2.271843  1635A      2.275596  
    1636A      2.281832  1637A      2.282830  1638A      2.284319  
    1639A      2.290261  1640A      2.291000  1641A      2.296375  
    1642A      2.296804  1643A      2.303322  1644A      2.303764  
    1645A      2.304252  1646A      2.309069  1647A      2.315148  
    1648A      2.324486  1649A      2.324900  1650A      2.325215  
    1651A      2.325364  1652A      2.327168  1653A      2.329402  
    1654A      2.330570  1655A      2.331087  1656A      2.333035  
    1657A      2.334379  1658A      2.335134  1659A      2.339775  
    1660A      2.341344  1661A      2.342138  1662A      2.342356  
    1663A      2.344748  1664A      2.345794  1665A      2.346321  
    1666A      2.348484  1667A      2.349240  1668A      2.349424  
    1669A      2.350794  1670A      2.368264  1671A      2.372624  
    1672A      2.372940  1673A      2.383678  1674A      2.388006  
    1675A      2.389880  1676A      2.391582  1677A      2.393019  
    1678A      2.393331  1679A      2.397027  1680A      2.418334  
    1681A      2.419535  1682A      2.423523  1683A      2.427550  
    1684A      2.431918  1685A      2.441669  1686A      2.443352  
    1687A      2.449690  1688A      2.451665  1689A      2.453068  
    1690A      2.453748  1691A      2.461094  1692A      2.464313  
    1693A      2.464405  1694A      2.467740  1695A      2.468022  
    1696A      2.471896  1697A      2.472163  1698A      2.472710  
    1699A      2.479663  1700A      2.491069  1701A      2.491486  
    1702A      2.494650  1703A      2.501790  1704A      2.506315  
    1705A      2.507071  1706A      2.511481  1707A      2.516218  
    1708A      2.516671  1709A      2.539105  1710A      2.539179  
    1711A      2.540140  1712A      2.542142  1713A      2.542782  
    1714A      2.545283  1715A      2.547662  1716A      2.548455  
    1717A      2.549216  1718A      2.551166  1719A      2.556543  
    1720A      2.556688  1721A      2.564212  1722A      2.571108  
    1723A      2.571643  1724A      2.579960  1725A      2.581383  
    1726A      2.583682  1727A      2.584283  1728A      2.585110  
    1729A      2.586238  1730A      2.588551  1731A      2.588857  
    1732A      2.593203  1733A      2.593508  1734A      2.601299  
    1735A      2.601461  1736A      2.612767  1737A      2.612965  
    1738A      2.613297  1739A      2.613744  1740A      2.617209  
    1741A      2.617595  1742A      2.632799  1743A      2.637421  
    1744A      2.640588  1745A      2.641544  1746A      2.643646  
    1747A      2.645414  1748A      2.647282  1749A      2.648621  
    1750A      2.649174  1751A      2.650332  1752A      2.652722  
    1753A      2.654477  1754A      2.655825  1755A      2.656164  
    1756A      2.662723  1757A      2.666009  1758A      2.666118  
    1759A      2.667550  1760A      2.670485  1761A      2.670601  
    1762A      2.673575  1763A      2.676899  1764A      2.677596  
    1765A      2.678139  1766A      2.684621  1767A      2.685678  
    1768A      2.687246  1769A      2.691213  1770A      2.691295  
    1771A      2.691572  1772A      2.692440  1773A      2.696060  
    1774A      2.697288  1775A      2.704246  1776A      2.720750  
    1777A      2.730716  1778A      2.730885  1779A      2.731001  
    1780A      2.731428  1781A      2.731705  1782A      2.741371  
    1783A      2.750642  1784A      2.752763  1785A      2.760303  
    1786A      2.760873  1787A      2.769400  1788A      2.772546  
    1789A      2.775975  1790A      2.779896  1791A      2.780422  
    1792A      2.799118  1793A      2.799861  1794A      2.801586  
    1795A      2.802169  1796A      2.802208  1797A      2.807886  
    1798A      2.811501  1799A      2.812504  1800A      2.815133  
    1801A      2.815539  1802A      2.816298  1803A      2.816334  
    1804A      2.828137  1805A      2.828355  1806A      2.839719  
    1807A      2.840189  1808A      2.840845  1809A      2.841902  
    1810A      2.842252  1811A      2.845823  1812A      2.860354  
    1813A      2.865238  1814A      2.865426  1815A      2.870140  
    1816A      2.871484  1817A      2.874506  1818A      2.880621  
    1819A      2.893871  1820A      2.895905  1821A      2.896791  
    1822A      2.912560  1823A      2.913935  1824A      2.917705  
    1825A      2.917888  1826A      2.925935  1827A      2.927423  
    1828A      2.929742  1829A      2.934906  1830A      2.934996  
    1831A      2.952708  1832A      2.963134  1833A      2.964833  
    1834A      2.965332  1835A      2.975720  1836A      2.976462  
    1837A      2.992083  1838A      2.992591  1839A      3.003812  
    1840A      3.016331  1841A      3.029204  1842A      3.030055  
    1843A      3.035604  1844A      3.038652  1845A      3.043602  
    1846A      3.046863  1847A      3.047591  1848A      3.048102  
    1849A      3.057502  1850A      3.057690  1851A      3.063426  
    1852A      3.072857  1853A      3.108659  1854A      3.112919  
    1855A      3.113166  1856A      3.122484  1857A      3.127256  
    1858A      3.127836  1859A      3.132569  1860A      3.134311  
    1861A      3.142044  1862A      3.143044  1863A      3.144260  
    1864A      3.148600  1865A      3.148937  1866A      3.149522  
    1867A      3.150125  1868A      3.153575  1869A      3.162194  
    1870A      3.167778  1871A      3.173165  1872A      3.175053  
    1873A      3.175214  1874A      3.193163  1875A      3.193971  
    1876A      3.220111  1877A      3.252876  1878A      3.259476  
    1879A      3.260885  1880A      3.261485  1881A      3.262024  
    1882A      3.264270  1883A      3.268142  1884A      3.271284  
    1885A      3.274719  1886A      3.275412  1887A      3.287358  
    1888A      3.293106  1889A      3.295152  1890A      3.296272  
    1891A      3.302633  1892A      3.310977  1893A      3.322657  
    1894A      3.361277  1895A      3.362231  1896A      3.370074  
    1897A      3.409015  1898A      3.415695  1899A      3.430006  
    1900A      3.432248  1901A      3.436974  1902A      3.445135  
    1903A      3.450006  1904A      3.461026  1905A      3.464495  
    1906A      3.465500  1907A      3.471194  1908A      3.474023  
    1909A      3.480914  1910A      3.486504  1911A      3.493698  
    1912A      3.509097  1913A      3.524993  1914A      3.539588  
    1915A      3.571934  1916A      3.574439  1917A      3.576087  
    1918A      3.583080  1919A      3.589972  1920A      3.638632  
    1921A      3.639870  1922A      3.645450  1923A      3.664829  
    1924A      3.666819  1925A      3.705031  1926A      3.747654  
    1927A      3.749284  1928A      3.750512  1929A      3.758080  
    1930A      3.763319  1931A      3.778647  1932A      3.779503  
    1933A      3.816526  1934A      3.841928  1935A      3.843353  
    1936A      3.868656  1937A      3.871472  1938A      3.874603  
    1939A      3.904678  1940A      3.912948  1941A      3.937787  
    1942A      3.940069  1943A      3.948233  1944A      3.949152  
    1945A      3.958446  1946A      3.963021  1947A      3.964471  
    1948A      3.970875  1949A      4.024637  1950A      4.027430  
    1951A      4.070972  1952A      4.207010  1953A      4.210638  
    1954A      4.229323  1955A      4.301852  1956A      4.350047  
    1957A      4.361837  1958A      4.393230  1959A      4.488386  
    1960A      4.739344  1961A      4.777485  1962A      4.831704  
    1963A      4.847249  1964A      4.936745  1965A      5.052181  
    1966A      5.057815  1967A      5.067055  1968A      5.111576  
    1969A      5.136337  1970A      5.392954  1971A      5.423072  
    1972A      5.733279  1973A      5.758016  1974A      6.067979  
    1975A     18.198982  1976A     18.455637  1977A     18.472681  
    1978A     18.560479  1979A     18.831901  1980A     25.339581  
    1981A     25.375567  

    Final Occupation by Irrep:
              A 
    DOCC [   300 ]
    NA   [   300 ]
    NB   [   300 ]

  @DF-RHF Final Energy: -3650.33783481416640

   => Energetics <=

    Nuclear Repulsion Energy =          15611.4211649754306563
    One-Electron Energy =              -36072.0834221536715631
    Two-Electron Energy =               16810.3244223640758719
    Total Energy =                      -3650.3378348141668539

Computation Completed


Properties will be evaluated at   0.000000,   0.000000,   0.000000 [a0]

Properties computed using the SCF density matrix


 Multipole Moments:

 ------------------------------------------------------------------------------------
     Multipole            Electronic (a.u.)      Nuclear  (a.u.)        Total (a.u.)
 ------------------------------------------------------------------------------------

 L = 1.  Multiply by 2.5417464519 to convert [e a0] to [Debye]
 Dipole X            :         -0.0009261            0.0002112           -0.0007149
 Dipole Y            :        123.2133925         -123.2131634            0.0002291
 Dipole Z            :       -639.6939797          639.6988098            0.0048301
 Magnitude           :                                                    0.0048881

 ------------------------------------------------------------------------------------

*** tstop() called on n2cn0267 at Wed Jan 24 22:02:37 2024
Module time:
	user time   =   20088.53 seconds =     334.81 minutes
	system time =    1054.19 seconds =      17.57 minutes
	total time  =       4597 seconds =      76.62 minutes
Total time:
	user time   =   54457.11 seconds =     907.62 minutes
	system time =    2819.03 seconds =      46.98 minutes
	total time  =      12807 seconds =     213.45 minutes
  Constructing Basis Sets for SAPT...

   => Loading Basis Set <=

    Name: (JUN-CC-PVDZ AUX)
    Role: RIFIT
    Keyword: DF_BASIS_SAPT
    atoms 1-2, 4-5, 10, 17-34, 41-53, 56-70, 73-89, 92-104, 109-119, 122-130 entry C          line   100 file /opt/software/pc2/EB-SW/software/PSI4/1.9-foss-2022a/share/psi4/basis/jun-cc-pvdz-ri.gbs 
    atoms 3, 6                                                               entry N          line   144 file /opt/software/pc2/EB-SW/software/PSI4/1.9-foss-2022a/share/psi4/basis/jun-cc-pvdz-ri.gbs 
    atoms 7-9, 11-16, 35-40, 54-55, 71-72, 90-91, 105-108, 120-121, 131-136  entry H          line    30 file /opt/software/pc2/EB-SW/software/PSI4/1.9-foss-2022a/share/psi4/basis/jun-cc-pvdz-ri.gbs 

   => Loading Basis Set <=

    Name: (JUN-CC-PVDZ AUX)
    Role: JKFIT
    Keyword: DF_BASIS_ELST
    atoms 1-2, 4-5, 10, 17-34, 41-53, 56-70, 73-89, 92-104, 109-119, 122-130 entry C          line   146 file /opt/software/pc2/EB-SW/software/PSI4/1.9-foss-2022a/share/psi4/basis/jun-cc-pvdz-jkfit.gbs 
    atoms 3, 6                                                               entry N          line   202 file /opt/software/pc2/EB-SW/software/PSI4/1.9-foss-2022a/share/psi4/basis/jun-cc-pvdz-jkfit.gbs 
    atoms 7-9, 11-16, 35-40, 54-55, 71-72, 90-91, 105-108, 120-121, 131-136  entry H          line    70 file /opt/software/pc2/EB-SW/software/PSI4/1.9-foss-2022a/share/psi4/basis/jun-cc-pvdz-jkfit.gbs 


  //>>>>>>>>>>>>>>>>>>>>>>>>>>>>>>>>>>>//
  //               SSAPT0              //
  //<<<<<<<<<<<<<<<<<<<<<<<<<<<<<<<<<<<//


*** tstart() called on n2cn0267
*** at Wed Jan 24 22:02:39 2024

        SAPT0  
    Ed Hohenstein
     6 June 2009

      Orbital Information
  --------------------------
    NSO        =      2019
    NMO        =      1981
    NRI        =      7157
    NRI (Elst) =      8896
    NOCC A     =        26
    NOCC B     =       300
    FOCC A     =         7
    FOCC B     =        96
    NVIR A     =      1955
    NVIR B     =      1681

    Elst10,r            =    -0.008053891412 [Eh]
    Exch10              =    -0.000000137632 [Eh]
    Exch10 (S^2)        =    -0.000000137631 [Eh]

    Iter     Energy [mEh]          dE [mEh]         Residual      Time [s]
       1      -0.01441910       0.014419101       1.135623037           523
       2      -0.01363129      -0.000787806       0.292197742           995
       3      -0.01496721       0.001335915       0.079628351          1470
       4      -0.01504818       0.000080966       0.035784875          2031
       5      -0.01498800      -0.000060181       0.011459281          2416
       6      -0.01498734      -0.000000658       0.003692720          2880
       7      -0.01499187       0.000004536       0.001189147          3363
       8      -0.01499259       0.000000721       0.000337622          3862
       9      -0.01499240      -0.000000198       0.000117637          4378
      10      -0.01499230      -0.000000095       0.000031770          4982
      11      -0.01499231       0.000000007       0.000008723          5507
      12      -0.01499231       0.000000006       0.000002700          6821
      13      -0.01499231       0.000000001       0.000000897          7388

    CHF Iterations converged


    Iter     Energy [mEh]          dE [mEh]         Residual      Time [s]
       1      -4.67202578       4.672025784      37.185310451           655
       2      -3.02576538      -1.646260401       4.398563561          1192
       3      -3.01244753      -0.013317849       1.512761047          1706
       4      -3.06915620       0.056708671       0.496650313          2241
       5      -3.07679752       0.007641315       0.197510917          2827
       6      -3.07548346      -0.001314054       0.133004642          3368
       7      -3.07366869      -0.001814777       0.051669223          3957
       8      -3.07380962       0.000140937       0.021646499          4536
       9      -3.07409379       0.000284162       0.007853139          5076
      10      -3.07407643      -0.000017356       0.005222402          5653
      11      -3.07404043      -0.000035999       0.002741842          6275
      12      -3.07403443      -0.000006001       0.001994567          6887
      13      -3.07404684       0.000012406       0.001210740          7390
      14      -3.07405123       0.000004394       0.000731094          8047
      15      -3.07404818      -0.000003051       0.000459826          8748
      16      -3.07404512      -0.000003062       0.000176373          9237
      17      -3.07404643       0.000001314       0.000086515          9835
      18      -3.07404693       0.000000499       0.000045742         10307
      19      -3.07404673      -0.000000197       0.000032948         10776
      20      -3.07404656      -0.000000177       0.000013482         11229
      21      -3.07404659       0.000000037       0.000006388         11666
      22      -3.07404663       0.000000033       0.000002484         12282
      23      -3.07404663      -0.000000000       0.000000866         12698

    CHF Iterations converged

    Ind20,r (A<-B)      =    -0.000014992314 [Eh]
    Ind20,r (B<-A)      =    -0.003074046627 [Eh]
    Ind20,r             =    -0.003089038941 [Eh]
    Exch-Ind20,r (A<-B) =     0.000000032014 [Eh]
    Exch-Ind20,r (B<-A) =     0.000000452912 [Eh]
    Exch-Ind20,r        =     0.000000484926 [Eh]
    Disp20              =    -0.001413737119 [Eh]
    Disp20 (SS)         =    -0.000706868559 [Eh]
    Disp20 (OS)         =    -0.000706868559 [Eh]
    Exch-Disp20         =     0.000000151439 [Eh]
    Exch-Disp20 (SS)    =     0.000000114226 [Eh]
    Exch-Disp20 (OS)    =     0.000000037213 [Eh]

    SAPT Results 
  --------------------------------------------------------------------------------------------------------
    Electrostatics                 -8.05389141 [mEh]      -5.05389316 [kcal/mol]     -21.14548899 [kJ/mol]
      Elst10,r                     -8.05389141 [mEh]      -5.05389316 [kcal/mol]     -21.14548899 [kJ/mol]

    Exchange                       -0.00013763 [mEh]      -0.00008637 [kcal/mol]      -0.00036135 [kJ/mol]
      Exch10                       -0.00013763 [mEh]      -0.00008637 [kcal/mol]      -0.00036135 [kJ/mol]
      Exch10(S^2)                  -0.00013763 [mEh]      -0.00008637 [kcal/mol]      -0.00036135 [kJ/mol]

    Induction                      -3.14319322 [mEh]      -1.97238353 [kcal/mol]      -8.25245267 [kJ/mol]
      Ind20,r                      -3.08903894 [mEh]      -1.93840120 [kcal/mol]      -8.11027062 [kJ/mol]
      Exch-Ind20,r                  0.00048493 [mEh]       0.00030430 [kcal/mol]       0.00127317 [kJ/mol]
      delta HF,r (2)               -0.05463921 [mEh]      -0.03428662 [kcal/mol]      -0.14345522 [kJ/mol]

    Dispersion                     -1.41358568 [mEh]      -0.88703841 [kcal/mol]      -3.71136869 [kJ/mol]
      Disp20                       -1.41373712 [mEh]      -0.88713344 [kcal/mol]      -3.71176629 [kJ/mol]
      Exch-Disp20                   0.00015144 [mEh]       0.00009503 [kcal/mol]       0.00039760 [kJ/mol]
      Disp20 (SS)                  -0.70686856 [mEh]      -0.44356672 [kcal/mol]      -1.85588315 [kJ/mol]
      Disp20 (OS)                  -0.70686856 [mEh]      -0.44356672 [kcal/mol]      -1.85588315 [kJ/mol]
      Exch-Disp20 (SS)              0.00011423 [mEh]       0.00007168 [kcal/mol]       0.00029990 [kJ/mol]
      Exch-Disp20 (OS)              0.00003721 [mEh]       0.00002335 [kcal/mol]       0.00009770 [kJ/mol]

  Total HF                        -11.19722227 [mEh]      -7.02636305 [kcal/mol]     -29.39830301 [kJ/mol]
  Total SAPT0                     -12.61080795 [mEh]      -7.91340146 [kcal/mol]     -33.10967171 [kJ/mol]

  Special recipe for scaled SAPT0 (see Manual):
    Electrostatics sSAPT0          -8.05389141 [mEh]      -5.05389316 [kcal/mol]     -21.14548899 [kJ/mol]
    Exchange sSAPT0                -0.00013763 [mEh]      -0.00008637 [kcal/mol]      -0.00036135 [kJ/mol]
    Induction sSAPT0               -3.14319322 [mEh]      -1.97238353 [kcal/mol]      -8.25245267 [kJ/mol]
    Dispersion sSAPT0              -1.41358568 [mEh]      -0.88703841 [kcal/mol]      -3.71136869 [kJ/mol]
  Total sSAPT0                    -12.61080795 [mEh]      -7.91340146 [kcal/mol]     -33.10967171 [kJ/mol]
  --------------------------------------------------------------------------------------------------------

*** tstop() called on n2cn0267 at Thu Jan 25 13:24:28 2024
Module time:
	user time   =   81227.90 seconds =    1353.80 minutes
	system time =    3415.07 seconds =      56.92 minutes
	total time  =      55309 seconds =     921.82 minutes
Total time:
	user time   =  135686.58 seconds =    2261.44 minutes
	system time =    6234.11 seconds =     103.90 minutes
	total time  =      68118 seconds =    1135.30 minutes

    Psi4 stopped on: Thursday, 25 January 2024 01:24PM
    Psi4 wall time for execution: 18:55:19.65

*** Psi4 exiting successfully. Buy a developer a beer!
