
    -----------------------------------------------------------------------
          Psi4: An Open-Source Ab Initio Electronic Structure Package
                               Psi4 1.9 release

                         Git: Rev {} zzzzzzz 


    D. G. A. Smith, L. A. Burns, A. C. Simmonett, R. M. Parrish,
    M. C. Schieber, R. Galvelis, P. Kraus, H. Kruse, R. Di Remigio,
    A. Alenaizan, A. M. James, S. Lehtola, J. P. Misiewicz, M. Scheurer,
    R. A. Shaw, J. B. Schriber, Y. Xie, Z. L. Glick, D. A. Sirianni,
    J. S. O'Brien, J. M. Waldrop, A. Kumar, E. G. Hohenstein,
    B. P. Pritchard, B. R. Brooks, H. F. Schaefer III, A. Yu. Sokolov,
    K. Patkowski, A. E. DePrince III, U. Bozkaya, R. A. King,
    F. A. Evangelista, J. M. Turney, T. D. Crawford, C. D. Sherrill,
    J. Chem. Phys. 152(18) 184108 (2020). https://doi.org/10.1063/5.0006002

                            Additional Code Authors
    E. T. Seidl, C. L. Janssen, E. F. Valeev, M. L. Leininger,
    J. F. Gonthier, R. M. Richard, H. R. McAlexander, M. Saitow, X. Wang,
    P. Verma, M. H. Lechner, A. Jiang, S. Behnle, A. G. Heide,
    M. F. Herbst, and D. L. Poole

             Previous Authors, Complete List of Code Contributors,
                       and Citations for Specific Modules
    https://github.com/psi4/psi4/blob/master/codemeta.json
    https://github.com/psi4/psi4/graphs/contributors
    http://psicode.org/psi4manual/master/introduction.html#citing-psifour

    -----------------------------------------------------------------------


    Psi4 started on: Saturday, 10 February 2024 01:46PM

    Process ID: 1014550
    Host:       n2cn0179
    PSIDATADIR: /opt/software/pc2/EB-SW/software/PSI4/1.9-foss-2022a/share/psi4
    Memory:     500.0 MiB
    Threads:    16
    
  ==> Input File <==

--------------------------------------------------------------------------
memory 80 GB # how much memory is available ! Depends on the nodes/cores !

molecule dimer {
# monomer A
+1 1    # Charge and multiplicity
C  0.680067 1.417258 -5.915929
C -0.680504 1.419286 -5.915545
N -1.085635 1.420284 -4.597221
C  0.000108 1.423560 -3.815820
C -2.477365 1.469690 -4.129242
N  1.085222 1.420284 -4.597221
H  1.385146 1.409430 -6.733368
H -1.385302 1.419096 -6.733214
H -0.000009 1.425307 -2.734731
C  2.478117 1.403392 -4.132123
H  2.490592 1.430737 -3.041870
H  2.967028 0.489946 -4.479299
H  3.001428 2.278875 -4.523595
H -2.857359 2.491761 -4.209201
H -3.082679 0.799606 -4.742306
H -2.518128 1.142706 -3.089294
--
# monomer B
0 1     # Charge and multiplicity
C   -3.66844126402057      7.80375217008252      0.00190004133558
C   -4.84759871934653      7.13124183134024     -0.00046653359696
C   -4.89495929917518      5.69633040353158     -0.00103944469517
C   -3.65374067877320      4.98073034095895      0.00662099703436
C   -2.40942512149445      7.11398103667468      0.00209438359570
C   -2.42547734410473      5.68112195090346     -0.00491050527438
C   -1.19474401643570      7.78614419430947      0.00356656413763
C   0.03795902893699      7.09942164575698      0.00139585983271
C   0.03033258741920      5.66948955970466     -0.00408752508301
C   -1.20098450790502      4.96927034791531      0.00488220885047
C   1.27795782581485      7.77285944319479      0.00277170839332
C   2.48535808472416      7.08769688523756      0.00049722048857
C   2.48612868491717      5.65477081024076     -0.00644052849921
C   1.25408291964399      4.95607811366431      0.00518741308898
C   3.75171459140595      7.76391215098033      0.00062407186893
C   4.92356605618520      7.07878077698995     -0.00143240883900
C   4.95560727132542      5.64344746336949     -0.00159282164606
C   3.70680153420475      4.94121020833308      0.00349873852374
H   -3.65852113775815      8.89082741913536      0.00358502958574
H   -1.18921332975660      8.87412108735996      0.00753844057883
H   1.28429423888630      8.86083343548850      0.00693053253426
H   3.75354208679975      8.85103527897216      0.00214659618464
H   5.86995870320703      7.61379483465560     -0.00235777588134
H   -5.78823170750226      7.67630221293400     -0.00202638095293
C   -6.09197395869619      4.99326001364347     -0.00291168518608
C   -6.12866148031747      3.58258016879823     -0.00171050815740
C   -3.66457974004527      3.56418217974434     -0.00463560277484
C   -4.89429820469869      2.86108077590057      0.00453338221034
C   -2.43733499489796      2.84761165708481      0.00719617576166
C   -1.20922785759670      3.54788693497833     -0.00648285103018
C   1.24714157216223      3.53468075142962     -0.00729145743546
C   0.01517603956900      2.83311183930540      0.00439272578912
C   2.46764517244071      2.82128997725533      0.00449278391269
C   3.70254947457969      3.52466015442405     -0.00899517692985
C   6.14498038638375      4.92757236613191     -0.00282626685777
C   6.16658835886151      3.51658447594213     -0.00065971342101
C   4.92460995845939      2.80840792535402      0.00587903281610
H   7.08990550964105      5.46688776622306     -0.00658814770723
H   -7.03104175110130      5.54268795285765     -0.00714490013730
C   -7.33969804112295      2.85841153457957     -0.00333767559888
C   -7.36488195805880      1.47032337158330     -0.00157213747140
C   -4.90350460894690      1.44442681216000     -0.00628840166334
C   -6.13225715261081      0.73993935705394      0.00600164231964
C   -3.67687480051673      0.72669714267312      0.00433931473643
C   -2.44565658606518      1.42964113326212     -0.00597039546461
C   -1.22360068130162      0.71532450163492      0.00545886906656
C   0.00763786931376      1.41738314923765      0.00392452278437
C   1.23121980774686      0.70211669058719     -0.01490206287210
C   2.46082110053113      1.40329203612573      0.00460244601878
C   3.68443025419614      0.68719842821222      0.00377365974158
C   4.91870890153864      1.39173456118907     -0.00862816189375
C   7.36980207796101      2.77948220318441     -0.00242013321349
C   7.38016266612146      1.39121750785509     -0.00087345036788
C   6.13979953912259      0.67411862320065      0.00545489144369
H   -8.27919079934664      3.40711804112415     -0.00763522772059
H   8.31511347147953      3.31811809662368     -0.00663070901292
C   -8.59175593758115      0.72483255304480     -0.00123170985383
C   -8.59902460370342     -0.63263980622873      0.00089141472904
C   -6.13981313911873     -0.67413663715361     -0.00609792660607
C   -7.38018411213749     -1.39126618958160      0.00131813493501
C   -4.91868448025621     -1.39175501803000      0.00624257154343
C   -3.68443829568458     -0.68723731573599     -0.00478966852105
C   -2.46081704024768     -1.40334517882457      0.00575341766833
C   -1.23116201232071     -0.70217386488055     -0.00636696112346
C   -0.00756962538737     -1.41741884941102      0.00108956317991
C   1.22364771588843     -0.71527537726392      0.01109518512883
C   2.44567064933149     -1.42964328900682     -0.00065482763106
C   3.67686670284649     -0.72670743155550     -0.00479541202602
C   6.13224884641929     -0.73997883984993     -0.00632338623858
C   4.90351914550401     -1.44445752054090      0.00751768830159
C   8.59901484869081      0.63260386666793     -0.00101133422380
C   8.59174548810050     -0.72485086719319      0.00072504603735
C   7.36486276438985     -1.47033266560598      0.00049486934466
H   -9.52830597181814      1.27684744919284     -0.00270163681798
H   9.54141097460619      1.17457248844457     -0.00206336648518
C   -7.36983790976868     -2.77954514593389      0.00312634335708
C   -4.92459910905015     -2.80843725734101     -0.00460528907921
C   -6.16662249566744     -3.51665219282533      0.00169655107992
C   -3.70251035970491     -3.52468154912026      0.00571878010666
C   -2.46764698511392     -2.82132596280400     -0.00632585824990
C   -0.01513347410770     -2.83314164539971     -0.00604426974092
C   -1.24712184122656     -3.53473217556300      0.00551968366725
C   1.20924506964357     -3.54791467864352      0.00805871345849
C   2.43733602215464     -2.84764173817541     -0.00608104485234
C   4.89430234377080     -2.86112296828604     -0.00526030478103
C   3.66461525504104     -3.56421984553201      0.00761911515957
C   6.12863901474565     -3.58258405771778      0.00096495711699
C   7.33967266469532     -2.85841330737039      0.00248018319869
H   -9.54144911125902     -1.17456346666430      0.00226083090216
H   9.52826186807155     -1.27691907390448      0.00197485379837
H   -8.31516504384864     -3.31814985321231      0.00729857188773
H   8.27915514249207     -3.40714078989363      0.00681973918158
C   -6.14499418870218     -4.92764727278338      0.00302254913999
C   -3.70678334799751     -4.94126171411716     -0.00679841894792
C   -4.95559005800169     -5.64349397349412      0.00116871569699
C   -2.48612132622665     -5.65478557440947      0.00614125209662
C   -1.25405833548005     -4.95612205000132     -0.00503435388927
C   1.20101257386816     -4.96928038819302     -0.00385322963129
C   -0.03033667441341     -5.66952030313900      0.00398997003238
C   3.65375010132847     -4.98074377541453     -0.00309522988330
C   2.42549269587528     -5.68117463552727      0.00628170066869
C   6.09196561781097     -4.99325796338655      0.00325918379042
C   4.89497644461045     -5.69634842095790      0.00202298796027
H   -7.08989238804069     -5.46699984223871      0.00742531082125
H   7.03105520920009     -5.54265853633254      0.00683896355417
C   -4.92354532219813     -7.07882109967734      0.00061394679214
C   -2.48534208823777     -7.08772807792913     -0.00189594564379
C   -3.75168589177895     -7.76394715763627     -0.00170126671874
C   -0.03794895698805     -7.09946487446944     -0.00168022049625
C   -1.27795610040136     -7.77290438466689     -0.00366491325785
C   2.40944432072629     -7.11402201200282     -0.00081701968533
C   1.19474993715296     -7.78618536556242     -0.00296931056689
C   4.84762105249800     -7.13126211057943      0.00168979497423
C   3.66847160587561     -7.80378799294376     -0.00065863938960
H   -5.86994035041618     -7.61383059804164      0.00215798365757
H   5.78824962538815     -7.67633218931421      0.00281691445618
H   -3.75352693944918     -8.85107156923607     -0.00353718114765
H   -1.28430440589466     -8.86087539249706     -0.00809229711623
H   1.18922157469537     -8.87416062058945     -0.00706194725726
H   3.65854661482387     -8.89086063405326     -0.00231318081200

    units angstrom      # Angstroms are the default
    no_reorient         # Geometry fixed, default
    symmetry c1         # C1 symmetry, default
}

set {
    scf_type DF         # Density fitting, faster than exact integrals
    freeze_core True    # Freeze core electrons
    basis jun-cc-pVDZ   # Jun-cc-pVDZ basis set, recommended for sSAPT0 in https://doi.org/10.1063/1.4867135
}

energy('ssapt0')        # Compute sSAPT0 energy, includes also SAPT0
--------------------------------------------------------------------------

  Memory set to  74.506 GiB by Python driver.

Scratch directory: /tmp/
   => Loading Basis Set <=

    Name: JUN-CC-PVDZ
    Role: ORBITAL
    Keyword: BASIS
    atoms 1-2, 4-5, 10, 17-34, 41-53, 56-70, 73-89, 92-104, 109-119, 122-130 entry C          line   164 file /opt/software/pc2/EB-SW/software/PSI4/1.9-foss-2022a/share/psi4/basis/jun-cc-pvdz.gbs 
    atoms 3, 6                                                               entry N          line   198 file /opt/software/pc2/EB-SW/software/PSI4/1.9-foss-2022a/share/psi4/basis/jun-cc-pvdz.gbs 
    atoms 7-9, 11-16, 35-40, 54-55, 71-72, 90-91, 105-108, 120-121, 131-136  entry H          line    36 file /opt/software/pc2/EB-SW/software/PSI4/1.9-foss-2022a/share/psi4/basis/jun-cc-pvdz.gbs 

   => Loading Basis Set <=

    Name: JUN-CC-PVDZ
    Role: ORBITAL
    Keyword: BASIS
    atoms 1-2, 4-5, 10, 17-34, 41-53, 56-70, 73-89, 92-104, 109-119, 122-130 entry C          line   164 file /opt/software/pc2/EB-SW/software/PSI4/1.9-foss-2022a/share/psi4/basis/jun-cc-pvdz.gbs 
    atoms 3, 6                                                               entry N          line   198 file /opt/software/pc2/EB-SW/software/PSI4/1.9-foss-2022a/share/psi4/basis/jun-cc-pvdz.gbs 
    atoms 7-9, 11-16, 35-40, 54-55, 71-72, 90-91, 105-108, 120-121, 131-136  entry H          line    36 file /opt/software/pc2/EB-SW/software/PSI4/1.9-foss-2022a/share/psi4/basis/jun-cc-pvdz.gbs 


  //>>>>>>>>>>>>>>>>>>>>>>>>>>>>>>>>>>>//
  //              Dimer HF             //
  //<<<<<<<<<<<<<<<<<<<<<<<<<<<<<<<<<<<//

   => Libint2 <=

    Primary   basis highest AM E, G, H:  5, 4, 3
    Auxiliary basis highest AM E, G, H:  6, 5, 4
    Onebody   basis highest AM E, G, H:  6, 5, 4
    Solid Harmonics ordering:            gaussian

*** tstart() called on n2cn0179
*** at Sat Feb 10 13:46:24 2024

   => Loading Basis Set <=

    Name: JUN-CC-PVDZ
    Role: ORBITAL
    Keyword: BASIS
    atoms 1-2, 4-5, 10, 17-34, 41-53, 56-70, 73-89, 92-104, 109-119, 122-130 entry C          line   164 file /opt/software/pc2/EB-SW/software/PSI4/1.9-foss-2022a/share/psi4/basis/jun-cc-pvdz.gbs 
    atoms 3, 6                                                               entry N          line   198 file /opt/software/pc2/EB-SW/software/PSI4/1.9-foss-2022a/share/psi4/basis/jun-cc-pvdz.gbs 
    atoms 7-9, 11-16, 35-40, 54-55, 71-72, 90-91, 105-108, 120-121, 131-136  entry H          line    36 file /opt/software/pc2/EB-SW/software/PSI4/1.9-foss-2022a/share/psi4/basis/jun-cc-pvdz.gbs 


         ---------------------------------------------------------
                                   SCF
               by Justin Turney, Rob Parrish, Andy Simmonett
                          and Daniel G. A. Smith
                              RHF Reference
                       16 Threads,  76293 MiB Core
         ---------------------------------------------------------

  ==> Geometry <==

    Molecular point group: c1
    Full point group: C1

    Geometry (in Angstrom), charge = 1, multiplicity = 1:

       Center              X                  Y                   Z               Mass       
    ------------   -----------------  -----------------  -----------------  -----------------
         C            0.680062820275     1.308604348936    -5.557596082539    12.000000000000
         C           -0.680508179725     1.310632348936    -5.557212082539    12.000000000000
         N           -1.085639179725     1.311630348936    -4.238888082539    14.003074004430
         C            0.000103820275     1.314906348936    -3.457487082539    12.000000000000
         C           -2.477369179725     1.361036348936    -3.770909082539    12.000000000000
         N            1.085217820275     1.311630348936    -4.238888082539    14.003074004430
         H            1.385141820275     1.300776348936    -6.375035082539     1.007825032230
         H           -1.385306179725     1.310442348936    -6.374881082539     1.007825032230
         H           -0.000013179725     1.316653348936    -2.376398082539     1.007825032230
         C            2.478112820275     1.294738348936    -3.773790082539    12.000000000000
         H            2.490587820275     1.322083348936    -2.683537082539     1.007825032230
         H            2.967023820275     0.381292348936    -4.120966082539     1.007825032230
         H            3.001423820275     2.170221348936    -4.165262082539     1.007825032230
         H           -2.857363179725     2.383107348936    -3.850868082539     1.007825032230
         H           -3.082683179725     0.690952348936    -4.383973082539     1.007825032230
         H           -2.518132179725     1.034052348936    -2.730961082539     1.007825032230
         C           -3.668445443746     7.695098519018     0.360232958796    12.000000000000
         C           -4.847602899072     7.022588180276     0.357866383864    12.000000000000
         C           -4.894963478901     5.587676752467     0.357293472766    12.000000000000
         C           -3.653744858499     4.872076689895     0.364953914495    12.000000000000
         C           -2.409429301220     7.005327385610     0.360427301057    12.000000000000
         C           -2.425481523830     5.572468299839     0.353422412186    12.000000000000
         C           -1.194748196161     7.677490543245     0.361899481598    12.000000000000
         C            0.037954849212     6.990767994693     0.359728777294    12.000000000000
         C            0.030328407694     5.560835908640     0.354245392378    12.000000000000
         C           -1.200988687630     4.860616696851     0.363215126311    12.000000000000
         C            1.277953646089     7.664205792130     0.361104625854    12.000000000000
         C            2.485353904999     6.979043234173     0.358830137949    12.000000000000
         C            2.486124505192     5.546117159176     0.351892388962    12.000000000000
         C            1.254078739919     4.847424462600     0.363520330550    12.000000000000
         C            3.751710411681     7.655258499916     0.358956989330    12.000000000000
         C            4.923561876460     6.970127125926     0.356900508622    12.000000000000
         C            4.955603091600     5.534793812305     0.356740095815    12.000000000000
         C            3.706797354479     4.832556557269     0.361831655985    12.000000000000
         H           -3.658525317484     8.782173768071     0.361917947047     1.007825032230
         H           -1.189217509482     8.765467436296     0.365871358040     1.007825032230
         H            1.284290059161     8.752179784424     0.365263449995     1.007825032230
         H            3.753537907074     8.742381627908     0.360479513645     1.007825032230
         H            5.869954523482     7.505141183591     0.355975141579     1.007825032230
         H           -5.788235887228     7.567648561870     0.356306536508     1.007825032230
         C           -6.091978138422     4.884606362579     0.355421232275    12.000000000000
         C           -6.128665660043     3.473926517734     0.356622409303    12.000000000000
         C           -3.664583919771     3.455528528680     0.353697314686    12.000000000000
         C           -4.894302384424     2.752427124836     0.362866299671    12.000000000000
         C           -2.437339174623     2.738958006020     0.365529093222    12.000000000000
         C           -1.209232037322     3.439233283914     0.351850066431    12.000000000000
         C            1.247137392437     3.426027100365     0.351041460025    12.000000000000
         C            0.015171859844     2.724458188241     0.362725643250    12.000000000000
         C            2.467640992715     2.712636326191     0.362825701374    12.000000000000
         C            3.702545294854     3.416006503360     0.349337740531    12.000000000000
         C            6.144976206658     4.818918715067     0.355506650603    12.000000000000
         C            6.166584179136     3.407930824878     0.357673204040    12.000000000000
         C            4.924605778734     2.699754274290     0.364211950277    12.000000000000
         H            7.089901329916     5.358234115159     0.351744769754     1.007825032230
         H           -7.031045930827     5.434034301793     0.351188017324     1.007825032230
         C           -7.339702220848     2.749757883515     0.354995241862    12.000000000000
         C           -7.364886137784     1.361669720519     0.356760779989    12.000000000000
         C           -4.903508788672     1.335773161096     0.352044515797    12.000000000000
         C           -6.132261332336     0.631285705989     0.364334559780    12.000000000000
         C           -3.676878980242     0.618043491609     0.362672232197    12.000000000000
         C           -2.445660765791     1.320987482198     0.352362521996    12.000000000000
         C           -1.223604861027     0.606670850570     0.363791786527    12.000000000000
         C            0.007633689588     1.308729498173     0.362257440245    12.000000000000
         C            1.231215628021     0.593463039523     0.343430854589    12.000000000000
         C            2.460816920806     1.294638385061     0.362935363480    12.000000000000
         C            3.684426074471     0.578544777148     0.362106577202    12.000000000000
         C            4.918704721813     1.283080910125     0.349704755567    12.000000000000
         C            7.369797898236     2.670828552120     0.355912784247    12.000000000000
         C            7.380158486396     1.282563856791     0.357459467093    12.000000000000
         C            6.139795359397     0.565464972136     0.363787808905    12.000000000000
         H           -8.279194979072     3.298464390060     0.350697689740     1.007825032230
         H            8.315109291754     3.209464445559     0.351702208448     1.007825032230
         C           -8.591760117307     0.616178901980     0.357101207607    12.000000000000
         C           -8.599028783429    -0.741293457293     0.359224332190    12.000000000000
         C           -6.139817318844    -0.782790288218     0.352234990855    12.000000000000
         C           -7.380188291863    -1.499919840646     0.359651052396    12.000000000000
         C           -4.918688659982    -1.500408669094     0.364575489004    12.000000000000
         C           -3.684442475410    -0.795890966800     0.353543248940    12.000000000000
         C           -2.460821219973    -1.511998829889     0.364086335129    12.000000000000
         C           -1.231166192046    -0.810827515945     0.351965956337    12.000000000000
         C           -0.007573805113    -1.526072500475     0.359422480641    12.000000000000
         C            1.223643536163    -0.823929028328     0.369428102590    12.000000000000
         C            2.445666469606    -1.538296940071     0.357678089830    12.000000000000
         C            3.676862523121    -0.835361082620     0.353537505435    12.000000000000
         C            6.132244666694    -0.848632490914     0.352009531222    12.000000000000
         C            4.903514965779    -1.553111171605     0.365850605762    12.000000000000
         C            8.599010668965     0.523950215603     0.357321583237    12.000000000000
         C            8.591741308375    -0.833504518258     0.359057963498    12.000000000000
         C            7.364858584664    -1.578986316670     0.358827786805    12.000000000000
         H           -9.528310151544     1.168193798128     0.355631280643     1.007825032230
         H            9.541406794881     1.065918837380     0.356269550976     1.007825032230
         C           -7.369842089494    -2.888198796998     0.361459260818    12.000000000000
         C           -4.924603288776    -2.917090908405     0.353727628382    12.000000000000
         C           -6.166626675393    -3.625305843890     0.360029468541    12.000000000000
         C           -3.702514539430    -3.633335200185     0.364051697567    12.000000000000
         C           -2.467651164839    -2.929979613868     0.352007059211    12.000000000000
         C           -0.015137653833    -2.941795296464     0.352288647720    12.000000000000
         C           -1.247126020952    -3.643385826627     0.363852601128    12.000000000000
         C            1.209240889918    -3.656568329708     0.366391630919    12.000000000000
         C            2.437331842429    -2.956295389240     0.352251872608    12.000000000000
         C            4.894298164045    -2.969776619350     0.353072612680    12.000000000000
         C            3.664611075316    -3.672873496596     0.365952032620    12.000000000000
         C            6.128634835020    -3.691237708782     0.359297874578    12.000000000000
         C            7.339668484970    -2.967066958435     0.360813100660    12.000000000000
         H           -9.541453290984    -1.283217117729     0.360593748363     1.007825032230
         H            9.528257688346    -1.385572724969     0.360307771259     1.007825032230
         H           -8.315169223574    -3.426803504277     0.365631489349     1.007825032230
         H            8.279150962767    -3.515794440958     0.365152656642     1.007825032230
         C           -6.144998368428    -5.036300923848     0.361355466601    12.000000000000
         C           -3.706787527723    -5.049915365182     0.351534498513    12.000000000000
         C           -4.955594237727    -5.752147624559     0.359501633158    12.000000000000
         C           -2.486125505952    -5.763439225474     0.364474169557    12.000000000000
         C           -1.254062515205    -5.064775701066     0.353298563572    12.000000000000
         C            1.201008394143    -5.077934039257     0.354479687830    12.000000000000
         C           -0.030340854139    -5.778173954203     0.362322887493    12.000000000000
         C            3.653745921603    -5.089397426479     0.355237687578    12.000000000000
         C            2.425488516150    -5.789828286592     0.364614618130    12.000000000000
         C            6.091961438086    -5.101911614451     0.361592101251    12.000000000000
         C            4.894972264885    -5.805002072022     0.360355905421    12.000000000000
         H           -7.089896567766    -5.575653493303     0.365758228282     1.007825032230
         H            7.031051029475    -5.651312187397     0.365171881015     1.007825032230
         C           -4.923549501924    -7.187474750742     0.358946864253    12.000000000000
         C           -2.485346267963    -7.196381728994     0.356436971817    12.000000000000
         C           -3.751690071504    -7.872600808701     0.356631650742    12.000000000000
         C           -0.037953136713    -7.208118525534     0.356652696965    12.000000000000
         C           -1.277960280127    -7.881558035731     0.354668004203    12.000000000000
         C            2.409440141001    -7.222675663067     0.357515897776    12.000000000000
         C            1.194745757428    -7.894839016627     0.355363606894    12.000000000000
         C            4.847616872773    -7.239915761644     0.360022712435    12.000000000000
         C            3.668467426150    -7.912441644008     0.357674278071    12.000000000000
         H           -5.869944530142    -7.722484249106     0.360490901118     1.007825032230
         H            5.788245445663    -7.784985840379     0.361149831917     1.007825032230
         H           -3.753531119175    -8.959725220301     0.354795736313     1.007825032230
         H           -1.284308585620    -8.969529043562     0.350240620345     1.007825032230
         H            1.189217394970    -8.982814271654     0.351270970204     1.007825032230
         H            3.658542435098    -8.999514285118     0.356019736649     1.007825032230

  Running in c1 symmetry.

  Rotational constants: A =      0.00064  B =      0.00064  C =      0.00035 [cm^-1]
  Rotational constants: A =     19.33541  B =     19.30722  C =     10.47585 [MHz]
  Nuclear repulsion = 18146.503477678379568

  Charge       = 1
  Multiplicity = 1
  Electrons    = 652
  Nalpha       = 326
  Nbeta        = 326

  ==> Algorithm <==

  SCF Algorithm Type is DF.
  DIIS enabled.
  MOM disabled.
  Fractional occupation disabled.
  Guess Type is SAD.
  Energy threshold   = 1.00e-08
  Density threshold  = 1.00e-08
  Integral threshold = 1.00e-12

  ==> Primary Basis <==

  Basis Set: JUN-CC-PVDZ
    Blend: JUN-CC-PVDZ
    Number of shells: 923
    Number of basis functions: 2019
    Number of Cartesian functions: 2122
    Spherical Harmonics?: true
    Max angular momentum: 2

   => Loading Basis Set <=

    Name: (JUN-CC-PVDZ AUX)
    Role: JKFIT
    Keyword: DF_BASIS_SCF
    atoms 1-2, 4-5, 10, 17-34, 41-53, 56-70, 73-89, 92-104, 109-119, 122-130 entry C          line   146 file /opt/software/pc2/EB-SW/software/PSI4/1.9-foss-2022a/share/psi4/basis/jun-cc-pvdz-jkfit.gbs 
    atoms 3, 6                                                               entry N          line   202 file /opt/software/pc2/EB-SW/software/PSI4/1.9-foss-2022a/share/psi4/basis/jun-cc-pvdz-jkfit.gbs 
    atoms 7-9, 11-16, 35-40, 54-55, 71-72, 90-91, 105-108, 120-121, 131-136  entry H          line    70 file /opt/software/pc2/EB-SW/software/PSI4/1.9-foss-2022a/share/psi4/basis/jun-cc-pvdz-jkfit.gbs 

  ==> Integral Setup <==

  ==> DiskDFJK: Density-Fitted J/K Matrices <==

    J tasked:                  Yes
    K tasked:                  Yes
    wK tasked:                  No
    OpenMP threads:             16
    Integrals threads:          16
    Memory [MiB]:            57220
    Algorithm:                Disk
    Integral Cache:           SAVE
    Schwarz Cutoff:          1E-12
    Fitting Condition:       1E-10

   => Auxiliary Basis Set <=

  Basis Set: (JUN-CC-PVDZ AUX)
    Blend: JUN-CC-PVDZ-JKFIT
    Number of shells: 3078
    Number of basis functions: 8896
    Number of Cartesian functions: 10198
    Spherical Harmonics?: true
    Max angular momentum: 3

  Minimum eigenvalue in the overlap matrix is 7.8366084375E-11.
  Reciprocal condition number of the overlap matrix is 3.2741135739E-12.
    Using canonical orthogonalization.
  Overall, 39 of 2019 possible MOs eliminated.


  ==> Pre-Iterations <==

  SCF Guess: Superposition of Atomic Densities via on-the-fly atomic UHF (no occupation information).

   -------------------------
    Irrep   Nso     Nmo    
   -------------------------
     A       2019    1980 
   -------------------------
    Total    2019    1980
   -------------------------

  ==> Iterations <==

                           Total Energy        Delta E     RMS |[F,P]|

   @DF-RHF iter SAD: -3967.28540209333823   -3.96729e+03   0.00000e+00 
   @DF-RHF iter   1: -3952.12098184035085    1.51644e+01   7.15904e-04 DIIS/ADIIS
   @DF-RHF iter   2: -3953.50511333787608   -1.38413e+00   2.38936e-04 DIIS/ADIIS
   @DF-RHF iter   3: -3953.62721754007589   -1.22104e-01   1.12826e-04 DIIS/ADIIS
   @DF-RHF iter   4: -3953.65399394781343   -2.67764e-02   4.88213e-05 DIIS
   @DF-RHF iter   5: -3953.66013919204579   -6.14524e-03   1.18502e-05 DIIS
   @DF-RHF iter   6: -3953.66067114457110   -5.31953e-04   4.68980e-06 DIIS
   @DF-RHF iter   7: -3953.66086776432485   -1.96620e-04   2.24762e-06 DIIS
   @DF-RHF iter   8: -3953.66093292593223   -6.51616e-05   1.11471e-06 DIIS
   @DF-RHF iter   9: -3953.66095111401319   -1.81881e-05   3.67517e-07 DIIS
   @DF-RHF iter  10: -3953.66095236205456   -1.24804e-06   1.49848e-07 DIIS
   @DF-RHF iter  11: -3953.66095252031482   -1.58260e-07   6.17475e-08 DIIS
   @DF-RHF iter  12: -3953.66095255342043   -3.31056e-08   3.21013e-08 DIIS
   @DF-RHF iter  13: -3953.66095256123390   -7.81347e-09   1.06863e-08 DIIS
   @DF-RHF iter  14: -3953.66095256187600   -6.42103e-10   4.50286e-09 DIIS
  Energy and wave function converged.


  ==> Post-Iterations <==

    Orbital Energies [Eh]
    ---------------------

    Doubly Occupied:                                                      

       1A    -15.799491     2A    -15.799036     3A    -11.492346  
       4A    -11.428621     5A    -11.427064     6A    -11.414267  
       7A    -11.414188     8A    -11.339684     9A    -11.338185  
      10A    -11.338136    11A    -11.337666    12A    -11.336492  
      13A    -11.336351    14A    -11.335489    15A    -11.335329  
      16A    -11.335013    17A    -11.334752    18A    -11.334502  
      19A    -11.334348    20A    -11.332962    21A    -11.332712  
      22A    -11.332615    23A    -11.332196    24A    -11.332083  
      25A    -11.331136    26A    -11.331044    27A    -11.330466  
      28A    -11.330309    29A    -11.330256    30A    -11.330053  
      31A    -11.330001    32A    -11.328716    33A    -11.328704  
      34A    -11.328519    35A    -11.328398    36A    -11.327456  
      37A    -11.327407    38A    -11.327319    39A    -11.327290  
      40A    -11.327239    41A    -11.326612    42A    -11.326581  
      43A    -11.326417    44A    -11.326366    45A    -11.326359  
      46A    -11.326309    47A    -11.326264    48A    -11.325570  
      49A    -11.325526    50A    -11.325110    51A    -11.325047  
      52A    -11.324957    53A    -11.324937    54A    -11.324641  
      55A    -11.324586    56A    -11.324485    57A    -11.324457  
      58A    -11.323851    59A    -11.323812    60A    -11.323482  
      61A    -11.323413    62A    -11.323360    63A    -11.323307  
      64A    -11.322911    65A    -11.322879    66A    -11.321940  
      67A    -11.321911    68A    -11.321695    69A    -11.321658  
      70A    -11.321652    71A    -11.321635    72A    -11.321131  
      73A    -11.320701    74A    -11.320679    75A    -11.320066  
      76A    -11.320014    77A    -11.319992    78A    -11.319178  
      79A    -11.319174    80A    -11.317566    81A    -11.317562  
      82A    -11.317514    83A    -11.317486    84A    -11.315951  
      85A    -11.315875    86A    -11.315078    87A    -11.315025  
      88A    -11.314985    89A    -11.314959    90A    -11.313597  
      91A    -11.313543    92A    -11.312996    93A    -11.312946  
      94A    -11.312919    95A    -11.312907    96A    -11.312479  
      97A    -11.312396    98A    -11.311366    99A    -11.311317  
     100A    -11.309943   101A    -11.309933   102A    -11.308430  
     103A    -11.308422   104A     -1.543673   105A     -1.399085  
     106A     -1.324530   107A     -1.306320   108A     -1.305615  
     109A     -1.285576   110A     -1.285565   111A     -1.283031  
     112A     -1.264634   113A     -1.259968   114A     -1.255252  
     115A     -1.254876   116A     -1.236968   117A     -1.236938  
     118A     -1.221823   119A     -1.221775   120A     -1.219484  
     121A     -1.207455   122A     -1.207420   123A     -1.205095  
     124A     -1.193254   125A     -1.180688   126A     -1.178996  
     127A     -1.178701   128A     -1.175765   129A     -1.173890  
     130A     -1.154419   131A     -1.152919   132A     -1.152866  
     133A     -1.139370   134A     -1.139353   135A     -1.133026  
     136A     -1.132896   137A     -1.131014   138A     -1.110627  
     139A     -1.110570   140A     -1.104481   141A     -1.101085  
     142A     -1.101073   143A     -1.091614   144A     -1.089098  
     145A     -1.088920   146A     -1.084234   147A     -1.071494  
     148A     -1.070241   149A     -1.067215   150A     -1.065657  
     151A     -1.065600   152A     -1.052912   153A     -1.035503  
     154A     -1.035423   155A     -1.018771   156A     -1.018688  
     157A     -0.988948   158A     -0.972950   159A     -0.972800  
     160A     -0.972128   161A     -0.967274   162A     -0.967233  
     163A     -0.962026   164A     -0.959122   165A     -0.959050  
     166A     -0.956485   167A     -0.955814   168A     -0.953812  
     169A     -0.934615   170A     -0.929675   171A     -0.915273  
     172A     -0.913708   173A     -0.913227   174A     -0.910676  
     175A     -0.907545   176A     -0.898092   177A     -0.897991  
     178A     -0.889851   179A     -0.889819   180A     -0.882552  
     181A     -0.850534   182A     -0.850357   183A     -0.848254  
     184A     -0.846560   185A     -0.845924   186A     -0.845210  
     187A     -0.844897   188A     -0.831263   189A     -0.827167  
     190A     -0.816138   191A     -0.815424   192A     -0.795887  
     193A     -0.791179   194A     -0.790848   195A     -0.789328  
     196A     -0.788536   197A     -0.788326   198A     -0.783932  
     199A     -0.783471   200A     -0.778877   201A     -0.778756  
     202A     -0.777112   203A     -0.762430   204A     -0.762422  
     205A     -0.756532   206A     -0.752023   207A     -0.751561  
     208A     -0.749703   209A     -0.748794   210A     -0.748741  
     211A     -0.745480   212A     -0.745472   213A     -0.742847  
     214A     -0.716277   215A     -0.715386   216A     -0.715334  
     217A     -0.713987   218A     -0.713739   219A     -0.711841  
     220A     -0.706081   221A     -0.705914   222A     -0.703136  
     223A     -0.701914   224A     -0.700227   225A     -0.700176  
     226A     -0.698511   227A     -0.692718   228A     -0.691472  
     229A     -0.685718   230A     -0.683125   231A     -0.677325  
     232A     -0.677246   233A     -0.672020   234A     -0.671974  
     235A     -0.666418   236A     -0.665875   237A     -0.664490  
     238A     -0.664022   239A     -0.663471   240A     -0.662484  
     241A     -0.658463   242A     -0.658196   243A     -0.658115  
     244A     -0.657767   245A     -0.654304   246A     -0.654267  
     247A     -0.653356   248A     -0.640801   249A     -0.640726  
     250A     -0.638653   251A     -0.638642   252A     -0.637748  
     253A     -0.636681   254A     -0.633636   255A     -0.633401  
     256A     -0.629565   257A     -0.629308   258A     -0.622657  
     259A     -0.622633   260A     -0.621568   261A     -0.619663  
     262A     -0.617707   263A     -0.613875   264A     -0.608425  
     265A     -0.607899   266A     -0.602690   267A     -0.602201  
     268A     -0.596803   269A     -0.596533   270A     -0.593223  
     271A     -0.590513   272A     -0.590474   273A     -0.581062  
     274A     -0.580934   275A     -0.578138   276A     -0.578089  
     277A     -0.571778   278A     -0.571599   279A     -0.562658  
     280A     -0.561182   281A     -0.560342   282A     -0.560272  
     283A     -0.559887   284A     -0.559805   285A     -0.557029  
     286A     -0.543548   287A     -0.539615   288A     -0.539568  
     289A     -0.536824   290A     -0.534169   291A     -0.530381  
     292A     -0.530165   293A     -0.523460   294A     -0.512774  
     295A     -0.512562   296A     -0.507977   297A     -0.507694  
     298A     -0.507083   299A     -0.496283   300A     -0.495981  
     301A     -0.491547   302A     -0.471970   303A     -0.471886  
     304A     -0.452260   305A     -0.452161   306A     -0.450362  
     307A     -0.447376   308A     -0.447320   309A     -0.418181  
     310A     -0.418112   311A     -0.414829   312A     -0.407102  
     313A     -0.405514   314A     -0.405316   315A     -0.394247  
     316A     -0.394153   317A     -0.372862   318A     -0.368342  
     319A     -0.368232   320A     -0.363967   321A     -0.349116  
     322A     -0.319287   323A     -0.319243   324A     -0.316746  
     325A     -0.267862   326A     -0.267634  

    Virtual:                                                              

     327A     -0.075349   328A     -0.075095   329A     -0.038042  
     330A     -0.033551   331A     -0.031016   332A     -0.030962  
     333A     -0.029741   334A     -0.020341   335A     -0.016782  
     336A     -0.008534   337A     -0.006940   338A     -0.005332  
     339A     -0.004126   340A     -0.000541   341A      0.000488  
     342A      0.000865   343A      0.002740   344A      0.004083  
     345A      0.004115   346A      0.005123   347A      0.005947  
     348A      0.008447   349A      0.008999   350A      0.011357  
     351A      0.013537   352A      0.013849   353A      0.014923  
     354A      0.015301   355A      0.015416   356A      0.018324  
     357A      0.021218   358A      0.021318   359A      0.021779  
     360A      0.026058   361A      0.026254   362A      0.026450  
     363A      0.028562   364A      0.032420   365A      0.032759  
     366A      0.035157   367A      0.036403   368A      0.037702  
     369A      0.038603   370A      0.040980   371A      0.043284  
     372A      0.043592   373A      0.044368   374A      0.045953  
     375A      0.047403   376A      0.048427   377A      0.051902  
     378A      0.052987   379A      0.053309   380A      0.053549  
     381A      0.053810   382A      0.053923   383A      0.055422  
     384A      0.055649   385A      0.056311   386A      0.057226  
     387A      0.059134   388A      0.060313   389A      0.063390  
     390A      0.065246   391A      0.066432   392A      0.068286  
     393A      0.068488   394A      0.069690   395A      0.070017  
     396A      0.075103   397A      0.075704   398A      0.076799  
     399A      0.077342   400A      0.078179   401A      0.080805  
     402A      0.081542   403A      0.082973   404A      0.083873  
     405A      0.086768   406A      0.086936   407A      0.089391  
     408A      0.089847   409A      0.092031   410A      0.092885  
     411A      0.092980   412A      0.095875   413A      0.097379  
     414A      0.100145   415A      0.100267   416A      0.102986  
     417A      0.103630   418A      0.106557   419A      0.106975  
     420A      0.107198   421A      0.107993   422A      0.109098  
     423A      0.110166   424A      0.111207   425A      0.112534  
     426A      0.113687   427A      0.115081   428A      0.115702  
     429A      0.115904   430A      0.116995   431A      0.117544  
     432A      0.118461   433A      0.118683   434A      0.123019  
     435A      0.126729   436A      0.127404   437A      0.127878  
     438A      0.131177   439A      0.132096   440A      0.133138  
     441A      0.134073   442A      0.135260   443A      0.136066  
     444A      0.136294   445A      0.136730   446A      0.138207  
     447A      0.139282   448A      0.143481   449A      0.144209  
     450A      0.145171   451A      0.147180   452A      0.147533  
     453A      0.148789   454A      0.149683   455A      0.149849  
     456A      0.150642   457A      0.151385   458A      0.152649  
     459A      0.153384   460A      0.153611   461A      0.154175  
     462A      0.155197   463A      0.156397   464A      0.157878  
     465A      0.158367   466A      0.158865   467A      0.159587  
     468A      0.160629   469A      0.161721   470A      0.163229  
     471A      0.164240   472A      0.164332   473A      0.166560  
     474A      0.166825   475A      0.166945   476A      0.168369  
     477A      0.169016   478A      0.170731   479A      0.171258  
     480A      0.174085   481A      0.174544   482A      0.175075  
     483A      0.175835   484A      0.177252   485A      0.177739  
     486A      0.178914   487A      0.180485   488A      0.181005  
     489A      0.182910   490A      0.183880   491A      0.185689  
     492A      0.187219   493A      0.187974   494A      0.189116  
     495A      0.190186   496A      0.191251   497A      0.192144  
     498A      0.192489   499A      0.192891   500A      0.194079  
     501A      0.195730   502A      0.197120   503A      0.197297  
     504A      0.198931   505A      0.199483   506A      0.203197  
     507A      0.203407   508A      0.203722   509A      0.206635  
     510A      0.207220   511A      0.207580   512A      0.208683  
     513A      0.209370   514A      0.210472   515A      0.211302  
     516A      0.212513   517A      0.213272   518A      0.213323  
     519A      0.215183   520A      0.216706   521A      0.218222  
     522A      0.218790   523A      0.220777   524A      0.220826  
     525A      0.221528   526A      0.222648   527A      0.222932  
     528A      0.224621   529A      0.225753   530A      0.226039  
     531A      0.227190   532A      0.229470   533A      0.229866  
     534A      0.230581   535A      0.230929   536A      0.233950  
     537A      0.234919   538A      0.236285   539A      0.236746  
     540A      0.236979   541A      0.237246   542A      0.238570  
     543A      0.240216   544A      0.242077   545A      0.244463  
     546A      0.245451   547A      0.246083   548A      0.246305  
     549A      0.247180   550A      0.247512   551A      0.249509  
     552A      0.250233   553A      0.250850   554A      0.251839  
     555A      0.252945   556A      0.253922   557A      0.255641  
     558A      0.257325   559A      0.257568   560A      0.258542  
     561A      0.260391   562A      0.261673   563A      0.262014  
     564A      0.262465   565A      0.263221   566A      0.263331  
     567A      0.264091   568A      0.264857   569A      0.266742  
     570A      0.267188   571A      0.268781   572A      0.270326  
     573A      0.271537   574A      0.272054   575A      0.272393  
     576A      0.273749   577A      0.274140   578A      0.274496  
     579A      0.274927   580A      0.275231   581A      0.275556  
     582A      0.276439   583A      0.277211   584A      0.278791  
     585A      0.279323   586A      0.281512   587A      0.281993  
     588A      0.284074   589A      0.284303   590A      0.285020  
     591A      0.287272   592A      0.289012   593A      0.289265  
     594A      0.289375   595A      0.289608   596A      0.290084  
     597A      0.291144   598A      0.292380   599A      0.293995  
     600A      0.295946   601A      0.296823   602A      0.297991  
     603A      0.300186   604A      0.301579   605A      0.302115  
     606A      0.303027   607A      0.303330   608A      0.305601  
     609A      0.305936   610A      0.306651   611A      0.307532  
     612A      0.308423   613A      0.309478   614A      0.310137  
     615A      0.310449   616A      0.310812   617A      0.311544  
     618A      0.313568   619A      0.314155   620A      0.315735  
     621A      0.317910   622A      0.319148   623A      0.320241  
     624A      0.320834   625A      0.321866   626A      0.323013  
     627A      0.323990   628A      0.324264   629A      0.324632  
     630A      0.325936   631A      0.327072   632A      0.327789  
     633A      0.329370   634A      0.331108   635A      0.331763  
     636A      0.333531   637A      0.333855   638A      0.334181  
     639A      0.334638   640A      0.334929   641A      0.336296  
     642A      0.337049   643A      0.337402   644A      0.338099  
     645A      0.338906   646A      0.340038   647A      0.340699  
     648A      0.342686   649A      0.343526   650A      0.343896  
     651A      0.343917   652A      0.344844   653A      0.345434  
     654A      0.345900   655A      0.347053   656A      0.347654  
     657A      0.347974   658A      0.350135   659A      0.350688  
     660A      0.351411   661A      0.351868   662A      0.353155  
     663A      0.354202   664A      0.354426   665A      0.354881  
     666A      0.357114   667A      0.357230   668A      0.357786  
     669A      0.358653   670A      0.360196   671A      0.360763  
     672A      0.361899   673A      0.363085   674A      0.365270  
     675A      0.365544   676A      0.367052   677A      0.367615  
     678A      0.368673   679A      0.369533   680A      0.370084  
     681A      0.370560   682A      0.371147   683A      0.372278  
     684A      0.372971   685A      0.374931   686A      0.375861  
     687A      0.376145   688A      0.379412   689A      0.379848  
     690A      0.380229   691A      0.380640   692A      0.382146  
     693A      0.384207   694A      0.385344   695A      0.387365  
     696A      0.388315   697A      0.390441   698A      0.391476  
     699A      0.391881   700A      0.393410   701A      0.394166  
     702A      0.394874   703A      0.395171   704A      0.395942  
     705A      0.396603   706A      0.396948   707A      0.398078  
     708A      0.400157   709A      0.401796   710A      0.402797  
     711A      0.403201   712A      0.404449   713A      0.404689  
     714A      0.405712   715A      0.405958   716A      0.406318  
     717A      0.407620   718A      0.409806   719A      0.411181  
     720A      0.411472   721A      0.412287   722A      0.412793  
     723A      0.413651   724A      0.414868   725A      0.415516  
     726A      0.416050   727A      0.417091   728A      0.417306  
     729A      0.418525   730A      0.420040   731A      0.420808  
     732A      0.423710   733A      0.425854   734A      0.426804  
     735A      0.428334   736A      0.428828   737A      0.429702  
     738A      0.431619   739A      0.432140   740A      0.434058  
     741A      0.435851   742A      0.436808   743A      0.437234  
     744A      0.438011   745A      0.440152   746A      0.441406  
     747A      0.442496   748A      0.443655   749A      0.444272  
     750A      0.445607   751A      0.447412   752A      0.447757  
     753A      0.448776   754A      0.450029   755A      0.450983  
     756A      0.452414   757A      0.454608   758A      0.455028  
     759A      0.456281   760A      0.457569   761A      0.458591  
     762A      0.458708   763A      0.460382   764A      0.461229  
     765A      0.461947   766A      0.462470   767A      0.465039  
     768A      0.467083   769A      0.467456   770A      0.469534  
     771A      0.469826   772A      0.471395   773A      0.472438  
     774A      0.474978   775A      0.477629   776A      0.479263  
     777A      0.479987   778A      0.480101   779A      0.482060  
     780A      0.483258   781A      0.485545   782A      0.490340  
     783A      0.492500   784A      0.498532   785A      0.498964  
     786A      0.500384   787A      0.501838   788A      0.503057  
     789A      0.503212   790A      0.504333   791A      0.505143  
     792A      0.505950   793A      0.506862   794A      0.508218  
     795A      0.508616   796A      0.509755   797A      0.511557  
     798A      0.513314   799A      0.513976   800A      0.514917  
     801A      0.516600   802A      0.517921   803A      0.518699  
     804A      0.519277   805A      0.522492   806A      0.523680  
     807A      0.524555   808A      0.525289   809A      0.527675  
     810A      0.529036   811A      0.530596   812A      0.530822  
     813A      0.532766   814A      0.534222   815A      0.536099  
     816A      0.537160   817A      0.540227   818A      0.542327  
     819A      0.542720   820A      0.543867   821A      0.544304  
     822A      0.546046   823A      0.553499   824A      0.557135  
     825A      0.558620   826A      0.559006   827A      0.559470  
     828A      0.563350   829A      0.564480   830A      0.567711  
     831A      0.568696   832A      0.570037   833A      0.572074  
     834A      0.574853   835A      0.578435   836A      0.579477  
     837A      0.584866   838A      0.587372   839A      0.590250  
     840A      0.592745   841A      0.593976   842A      0.594686  
     843A      0.597038   844A      0.597808   845A      0.599248  
     846A      0.603678   847A      0.604454   848A      0.605786  
     849A      0.611187   850A      0.617317   851A      0.620126  
     852A      0.622638   853A      0.623760   854A      0.626226  
     855A      0.626551   856A      0.628388   857A      0.629136  
     858A      0.631098   859A      0.635768   860A      0.636170  
     861A      0.636564   862A      0.637905   863A      0.643028  
     864A      0.643479   865A      0.644126   866A      0.650433  
     867A      0.656444   868A      0.660073   869A      0.665771  
     870A      0.671313   871A      0.674555   872A      0.677691  
     873A      0.678202   874A      0.678646   875A      0.680039  
     876A      0.680493   877A      0.681940   878A      0.686395  
     879A      0.687449   880A      0.690942   881A      0.697291  
     882A      0.705007   883A      0.709726   884A      0.719496  
     885A      0.722181   886A      0.724682   887A      0.725102  
     888A      0.726816   889A      0.730804   890A      0.732396  
     891A      0.734075   892A      0.736584   893A      0.740550  
     894A      0.741312   895A      0.743273   896A      0.744306  
     897A      0.746452   898A      0.750442   899A      0.751095  
     900A      0.751837   901A      0.752967   902A      0.755526  
     903A      0.756112   904A      0.757682   905A      0.760458  
     906A      0.762675   907A      0.763170   908A      0.764842  
     909A      0.766989   910A      0.769211   911A      0.770226  
     912A      0.773399   913A      0.773728   914A      0.774993  
     915A      0.775302   916A      0.777554   917A      0.781530  
     918A      0.784205   919A      0.786524   920A      0.787460  
     921A      0.789005   922A      0.790419   923A      0.791902  
     924A      0.793723   925A      0.796516   926A      0.797255  
     927A      0.798371   928A      0.800009   929A      0.800982  
     930A      0.803220   931A      0.804891   932A      0.808528  
     933A      0.809369   934A      0.809840   935A      0.811550  
     936A      0.813201   937A      0.814706   938A      0.817078  
     939A      0.818477   940A      0.820952   941A      0.823837  
     942A      0.825811   943A      0.826396   944A      0.827775  
     945A      0.828156   946A      0.829216   947A      0.831569  
     948A      0.832946   949A      0.833653   950A      0.835500  
     951A      0.836941   952A      0.839148   953A      0.840093  
     954A      0.843710   955A      0.845378   956A      0.845857  
     957A      0.848535   958A      0.850966   959A      0.851487  
     960A      0.854340   961A      0.855712   962A      0.857134  
     963A      0.858074   964A      0.859047   965A      0.860166  
     966A      0.861298   967A      0.862053   968A      0.863940  
     969A      0.864939   970A      0.865198   971A      0.866643  
     972A      0.871601   973A      0.872439   974A      0.872864  
     975A      0.874199   976A      0.875009   977A      0.876086  
     978A      0.876776   979A      0.882664   980A      0.883311  
     981A      0.884437   982A      0.886172   983A      0.887365  
     984A      0.887701   985A      0.889333   986A      0.890772  
     987A      0.892243   988A      0.892609   989A      0.893378  
     990A      0.894814   991A      0.895670   992A      0.897385  
     993A      0.898085   994A      0.898470   995A      0.900689  
     996A      0.903514   997A      0.906082   998A      0.906476  
     999A      0.907341  1000A      0.910449  1001A      0.911898  
    1002A      0.916769  1003A      0.920428  1004A      0.922198  
    1005A      0.922838  1006A      0.925765  1007A      0.927833  
    1008A      0.929303  1009A      0.930797  1010A      0.931138  
    1011A      0.932917  1012A      0.936150  1013A      0.938428  
    1014A      0.939699  1015A      0.941094  1016A      0.941601  
    1017A      0.942429  1018A      0.944125  1019A      0.944771  
    1020A      0.945546  1021A      0.948773  1022A      0.950350  
    1023A      0.953253  1024A      0.953372  1025A      0.954884  
    1026A      0.956472  1027A      0.959337  1028A      0.960412  
    1029A      0.961783  1030A      0.964734  1031A      0.967780  
    1032A      0.968884  1033A      0.969800  1034A      0.972051  
    1035A      0.972506  1036A      0.975465  1037A      0.976276  
    1038A      0.977291  1039A      0.978879  1040A      0.981853  
    1041A      0.982520  1042A      0.983515  1043A      0.984135  
    1044A      0.985790  1045A      0.987570  1046A      0.987951  
    1047A      0.988781  1048A      0.989247  1049A      0.991262  
    1050A      0.992834  1051A      0.994379  1052A      0.995911  
    1053A      0.997145  1054A      0.999873  1055A      1.001238  
    1056A      1.002621  1057A      1.002878  1058A      1.003864  
    1059A      1.004381  1060A      1.004976  1061A      1.006062  
    1062A      1.007589  1063A      1.008270  1064A      1.009167  
    1065A      1.009931  1066A      1.010109  1067A      1.010521  
    1068A      1.011836  1069A      1.012707  1070A      1.013547  
    1071A      1.013939  1072A      1.014444  1073A      1.015274  
    1074A      1.015693  1075A      1.016917  1076A      1.017807  
    1077A      1.018510  1078A      1.020566  1079A      1.020981  
    1080A      1.021952  1081A      1.022339  1082A      1.022751  
    1083A      1.023427  1084A      1.024385  1085A      1.025215  
    1086A      1.026054  1087A      1.026696  1088A      1.027612  
    1089A      1.028005  1090A      1.029220  1091A      1.030062  
    1092A      1.030552  1093A      1.031867  1094A      1.035667  
    1095A      1.036308  1096A      1.038134  1097A      1.038227  
    1098A      1.038938  1099A      1.039428  1100A      1.041805  
    1101A      1.043464  1102A      1.045261  1103A      1.047429  
    1104A      1.048682  1105A      1.050657  1106A      1.052264  
    1107A      1.054000  1108A      1.055249  1109A      1.057186  
    1110A      1.058611  1111A      1.059965  1112A      1.063099  
    1113A      1.063280  1114A      1.065412  1115A      1.066465  
    1116A      1.070000  1117A      1.070523  1118A      1.070622  
    1119A      1.071718  1120A      1.073652  1121A      1.074327  
    1122A      1.075695  1123A      1.076030  1124A      1.078366  
    1125A      1.082116  1126A      1.083546  1127A      1.085408  
    1128A      1.086624  1129A      1.088230  1130A      1.089237  
    1131A      1.091048  1132A      1.091963  1133A      1.093447  
    1134A      1.093830  1135A      1.095020  1136A      1.096336  
    1137A      1.099830  1138A      1.102237  1139A      1.103599  
    1140A      1.105003  1141A      1.106196  1142A      1.107812  
    1143A      1.108937  1144A      1.111160  1145A      1.113061  
    1146A      1.115269  1147A      1.116325  1148A      1.119219  
    1149A      1.119733  1150A      1.120638  1151A      1.124562  
    1152A      1.125392  1153A      1.128742  1154A      1.132317  
    1155A      1.138730  1156A      1.139347  1157A      1.140343  
    1158A      1.140964  1159A      1.142986  1160A      1.145154  
    1161A      1.146673  1162A      1.149533  1163A      1.151633  
    1164A      1.152679  1165A      1.155307  1166A      1.157159  
    1167A      1.158489  1168A      1.159619  1169A      1.162473  
    1170A      1.163828  1171A      1.166448  1172A      1.168222  
    1173A      1.170788  1174A      1.171890  1175A      1.175598  
    1176A      1.178603  1177A      1.180725  1178A      1.182236  
    1179A      1.183531  1180A      1.187481  1181A      1.189751  
    1182A      1.190861  1183A      1.191922  1184A      1.197908  
    1185A      1.199654  1186A      1.200573  1187A      1.200963  
    1188A      1.201767  1189A      1.203708  1190A      1.208502  
    1191A      1.210101  1192A      1.210663  1193A      1.213283  
    1194A      1.217828  1195A      1.220263  1196A      1.225955  
    1197A      1.226610  1198A      1.228069  1199A      1.229369  
    1200A      1.230615  1201A      1.232956  1202A      1.233863  
    1203A      1.234529  1204A      1.238300  1205A      1.239809  
    1206A      1.242884  1207A      1.246519  1208A      1.247556  
    1209A      1.248358  1210A      1.250017  1211A      1.251827  
    1212A      1.253865  1213A      1.256405  1214A      1.257532  
    1215A      1.258932  1216A      1.259701  1217A      1.261681  
    1218A      1.262199  1219A      1.266218  1220A      1.266613  
    1221A      1.269978  1222A      1.272003  1223A      1.273229  
    1224A      1.275289  1225A      1.276651  1226A      1.277093  
    1227A      1.277403  1228A      1.280466  1229A      1.282393  
    1230A      1.284119  1231A      1.289092  1232A      1.291557  
    1233A      1.291922  1234A      1.297658  1235A      1.298753  
    1236A      1.300769  1237A      1.301235  1238A      1.303007  
    1239A      1.303890  1240A      1.305810  1241A      1.308959  
    1242A      1.311343  1243A      1.311714  1244A      1.313549  
    1245A      1.314159  1246A      1.324947  1247A      1.325229  
    1248A      1.328930  1249A      1.331163  1250A      1.333862  
    1251A      1.334384  1252A      1.335413  1253A      1.336945  
    1254A      1.343846  1255A      1.345715  1256A      1.346607  
    1257A      1.347216  1258A      1.351411  1259A      1.352821  
    1260A      1.353320  1261A      1.355063  1262A      1.355654  
    1263A      1.358974  1264A      1.363022  1265A      1.364348  
    1266A      1.365604  1267A      1.366413  1268A      1.368195  
    1269A      1.370789  1270A      1.372166  1271A      1.373242  
    1272A      1.373660  1273A      1.374883  1274A      1.376661  
    1275A      1.377211  1276A      1.379554  1277A      1.380877  
    1278A      1.384532  1279A      1.384800  1280A      1.387870  
    1281A      1.390438  1282A      1.390799  1283A      1.393912  
    1284A      1.395366  1285A      1.400105  1286A      1.402230  
    1287A      1.406388  1288A      1.406948  1289A      1.409829  
    1290A      1.410182  1291A      1.410930  1292A      1.412202  
    1293A      1.413890  1294A      1.420437  1295A      1.422566  
    1296A      1.423989  1297A      1.425498  1298A      1.427837  
    1299A      1.433425  1300A      1.435531  1301A      1.439199  
    1302A      1.440028  1303A      1.442783  1304A      1.444378  
    1305A      1.448573  1306A      1.452994  1307A      1.454768  
    1308A      1.459183  1309A      1.473681  1310A      1.476857  
    1311A      1.478795  1312A      1.479201  1313A      1.488481  
    1314A      1.488871  1315A      1.491762  1316A      1.502809  
    1317A      1.512375  1318A      1.519607  1319A      1.524143  
    1320A      1.529570  1321A      1.531462  1322A      1.533529  
    1323A      1.535832  1324A      1.537948  1325A      1.540385  
    1326A      1.542669  1327A      1.543581  1328A      1.544978  
    1329A      1.547478  1330A      1.547877  1331A      1.548359  
    1332A      1.549594  1333A      1.550651  1334A      1.551925  
    1335A      1.554912  1336A      1.555726  1337A      1.558143  
    1338A      1.558840  1339A      1.560909  1340A      1.562821  
    1341A      1.563503  1342A      1.565106  1343A      1.565881  
    1344A      1.566156  1345A      1.568465  1346A      1.568776  
    1347A      1.571031  1348A      1.573035  1349A      1.573444  
    1350A      1.575220  1351A      1.575394  1352A      1.575792  
    1353A      1.578656  1354A      1.579845  1355A      1.581608  
    1356A      1.583849  1357A      1.586904  1358A      1.587816  
    1359A      1.590759  1360A      1.592407  1361A      1.593241  
    1362A      1.593938  1363A      1.597611  1364A      1.600186  
    1365A      1.601353  1366A      1.603097  1367A      1.603228  
    1368A      1.603883  1369A      1.605938  1370A      1.606661  
    1371A      1.607335  1372A      1.609918  1373A      1.610319  
    1374A      1.612290  1375A      1.613970  1376A      1.614341  
    1377A      1.615550  1378A      1.619817  1379A      1.625082  
    1380A      1.625836  1381A      1.629692  1382A      1.631592  
    1383A      1.633234  1384A      1.636155  1385A      1.636688  
    1386A      1.638055  1387A      1.641390  1388A      1.645250  
    1389A      1.645836  1390A      1.649962  1391A      1.650621  
    1392A      1.651980  1393A      1.653614  1394A      1.655864  
    1395A      1.656965  1396A      1.657937  1397A      1.660290  
    1398A      1.661950  1399A      1.666084  1400A      1.670177  
    1401A      1.675050  1402A      1.676228  1403A      1.678599  
    1404A      1.684208  1405A      1.684550  1406A      1.685692  
    1407A      1.691658  1408A      1.693117  1409A      1.695993  
    1410A      1.701507  1411A      1.703465  1412A      1.705915  
    1413A      1.716312  1414A      1.719530  1415A      1.725942  
    1416A      1.727452  1417A      1.730427  1418A      1.735922  
    1419A      1.736290  1420A      1.738159  1421A      1.749176  
    1422A      1.750296  1423A      1.757439  1424A      1.759626  
    1425A      1.763144  1426A      1.764779  1427A      1.765855  
    1428A      1.767227  1429A      1.768647  1430A      1.770316  
    1431A      1.771623  1432A      1.773197  1433A      1.773912  
    1434A      1.775122  1435A      1.776200  1436A      1.776683  
    1437A      1.780902  1438A      1.781907  1439A      1.783207  
    1440A      1.795019  1441A      1.795862  1442A      1.797538  
    1443A      1.797733  1444A      1.798856  1445A      1.799061  
    1446A      1.803494  1447A      1.805672  1448A      1.808574  
    1449A      1.810200  1450A      1.810455  1451A      1.813922  
    1452A      1.814399  1453A      1.817302  1454A      1.819239  
    1455A      1.820245  1456A      1.820742  1457A      1.821607  
    1458A      1.823325  1459A      1.824289  1460A      1.824382  
    1461A      1.825145  1462A      1.825582  1463A      1.826769  
    1464A      1.834756  1465A      1.840538  1466A      1.842433  
    1467A      1.844321  1468A      1.845851  1469A      1.846051  
    1470A      1.849044  1471A      1.851142  1472A      1.852482  
    1473A      1.854502  1474A      1.855868  1475A      1.857407  
    1476A      1.857952  1477A      1.858643  1478A      1.859033  
    1479A      1.861407  1480A      1.864002  1481A      1.864498  
    1482A      1.870627  1483A      1.873889  1484A      1.875945  
    1485A      1.876881  1486A      1.877508  1487A      1.878031  
    1488A      1.879119  1489A      1.879981  1490A      1.882278  
    1491A      1.884002  1492A      1.885047  1493A      1.888212  
    1494A      1.889773  1495A      1.891597  1496A      1.894066  
    1497A      1.894738  1498A      1.897406  1499A      1.898778  
    1500A      1.901366  1501A      1.902448  1502A      1.903126  
    1503A      1.905891  1504A      1.907907  1505A      1.908315  
    1506A      1.910957  1507A      1.911021  1508A      1.912981  
    1509A      1.915022  1510A      1.918317  1511A      1.918648  
    1512A      1.921512  1513A      1.924851  1514A      1.929491  
    1515A      1.930763  1516A      1.931896  1517A      1.933282  
    1518A      1.934218  1519A      1.934476  1520A      1.938280  
    1521A      1.944186  1522A      1.947499  1523A      1.948277  
    1524A      1.951851  1525A      1.952204  1526A      1.954061  
    1527A      1.954762  1528A      1.955293  1529A      1.955912  
    1530A      1.956842  1531A      1.958838  1532A      1.959861  
    1533A      1.961870  1534A      1.962680  1535A      1.966346  
    1536A      1.967789  1537A      1.968016  1538A      1.969789  
    1539A      1.974780  1540A      1.977862  1541A      1.978710  
    1542A      1.980367  1543A      1.980546  1544A      1.985540  
    1545A      1.988005  1546A      1.989675  1547A      1.993076  
    1548A      1.994575  1549A      1.995724  1550A      1.996952  
    1551A      1.997915  1552A      1.998425  1553A      1.999273  
    1554A      2.001076  1555A      2.004384  1556A      2.007041  
    1557A      2.007745  1558A      2.008232  1559A      2.009272  
    1560A      2.015255  1561A      2.017091  1562A      2.018191  
    1563A      2.018962  1564A      2.019370  1565A      2.020112  
    1566A      2.021202  1567A      2.022652  1568A      2.023171  
    1569A      2.024395  1570A      2.024960  1571A      2.027442  
    1572A      2.028516  1573A      2.029610  1574A      2.030623  
    1575A      2.030775  1576A      2.030980  1577A      2.033143  
    1578A      2.036367  1579A      2.037843  1580A      2.038948  
    1581A      2.039749  1582A      2.040056  1583A      2.042162  
    1584A      2.045168  1585A      2.046070  1586A      2.047961  
    1587A      2.050902  1588A      2.051097  1589A      2.051914  
    1590A      2.053275  1591A      2.053989  1592A      2.055562  
    1593A      2.056650  1594A      2.057021  1595A      2.058597  
    1596A      2.062927  1597A      2.063876  1598A      2.065534  
    1599A      2.066194  1600A      2.066399  1601A      2.067706  
    1602A      2.068646  1603A      2.069256  1604A      2.071703  
    1605A      2.076221  1606A      2.077771  1607A      2.079864  
    1608A      2.080372  1609A      2.082341  1610A      2.083317  
    1611A      2.083433  1612A      2.086610  1613A      2.089885  
    1614A      2.093074  1615A      2.094913  1616A      2.095653  
    1617A      2.097349  1618A      2.097721  1619A      2.098804  
    1620A      2.100010  1621A      2.100742  1622A      2.102866  
    1623A      2.106643  1624A      2.109632  1625A      2.110798  
    1626A      2.114701  1627A      2.117423  1628A      2.119656  
    1629A      2.120198  1630A      2.123077  1631A      2.123510  
    1632A      2.126430  1633A      2.127142  1634A      2.127652  
    1635A      2.129689  1636A      2.131212  1637A      2.133612  
    1638A      2.134136  1639A      2.136870  1640A      2.138352  
    1641A      2.140196  1642A      2.140853  1643A      2.142558  
    1644A      2.145029  1645A      2.147108  1646A      2.149987  
    1647A      2.150931  1648A      2.151565  1649A      2.155758  
    1650A      2.157074  1651A      2.159602  1652A      2.160517  
    1653A      2.162202  1654A      2.163243  1655A      2.165243  
    1656A      2.167442  1657A      2.169232  1658A      2.170234  
    1659A      2.172292  1660A      2.174171  1661A      2.174433  
    1662A      2.175764  1663A      2.176315  1664A      2.180429  
    1665A      2.187919  1666A      2.188476  1667A      2.189776  
    1668A      2.191687  1669A      2.196585  1670A      2.204282  
    1671A      2.204859  1672A      2.206614  1673A      2.208509  
    1674A      2.210519  1675A      2.211498  1676A      2.216919  
    1677A      2.218285  1678A      2.221153  1679A      2.222649  
    1680A      2.227762  1681A      2.230806  1682A      2.233264  
    1683A      2.234395  1684A      2.236185  1685A      2.241682  
    1686A      2.242840  1687A      2.246367  1688A      2.251883  
    1689A      2.257795  1690A      2.261122  1691A      2.262047  
    1692A      2.262757  1693A      2.266174  1694A      2.266752  
    1695A      2.268013  1696A      2.268618  1697A      2.269147  
    1698A      2.270511  1699A      2.271821  1700A      2.275229  
    1701A      2.276590  1702A      2.278230  1703A      2.279327  
    1704A      2.279815  1705A      2.280805  1706A      2.281779  
    1707A      2.282123  1708A      2.284590  1709A      2.285199  
    1710A      2.291675  1711A      2.304536  1712A      2.308349  
    1713A      2.309844  1714A      2.322175  1715A      2.324955  
    1716A      2.329887  1717A      2.332357  1718A      2.333199  
    1719A      2.338778  1720A      2.345694  1721A      2.355614  
    1722A      2.358042  1723A      2.360440  1724A      2.363251  
    1725A      2.365401  1726A      2.368327  1727A      2.379539  
    1728A      2.381255  1729A      2.387958  1730A      2.388975  
    1731A      2.401124  1732A      2.402984  1733A      2.404008  
    1734A      2.405187  1735A      2.405755  1736A      2.409416  
    1737A      2.409778  1738A      2.419434  1739A      2.429062  
    1740A      2.430792  1741A      2.431209  1742A      2.440756  
    1743A      2.446262  1744A      2.446769  1745A      2.450096  
    1746A      2.455781  1747A      2.475300  1748A      2.475560  
    1749A      2.476845  1750A      2.479400  1751A      2.481247  
    1752A      2.482340  1753A      2.484951  1754A      2.487454  
    1755A      2.488081  1756A      2.489788  1757A      2.490316  
    1758A      2.490907  1759A      2.500784  1760A      2.508650  
    1761A      2.511271  1762A      2.513010  1763A      2.519464  
    1764A      2.523144  1765A      2.523952  1766A      2.525312  
    1767A      2.526207  1768A      2.529644  1769A      2.530222  
    1770A      2.530529  1771A      2.535500  1772A      2.538194  
    1773A      2.540146  1774A      2.540456  1775A      2.548693  
    1776A      2.551056  1777A      2.551983  1778A      2.552461  
    1779A      2.555607  1780A      2.557281  1781A      2.559363  
    1782A      2.570565  1783A      2.579113  1784A      2.579858  
    1785A      2.581840  1786A      2.583917  1787A      2.585487  
    1788A      2.586131  1789A      2.589530  1790A      2.593103  
    1791A      2.596238  1792A      2.596764  1793A      2.599479  
    1794A      2.602599  1795A      2.607036  1796A      2.608271  
    1797A      2.610131  1798A      2.611407  1799A      2.617505  
    1800A      2.619904  1801A      2.623521  1802A      2.625151  
    1803A      2.625800  1804A      2.627958  1805A      2.629153  
    1806A      2.630518  1807A      2.631029  1808A      2.632645  
    1809A      2.634097  1810A      2.637402  1811A      2.642474  
    1812A      2.659995  1813A      2.666266  1814A      2.667837  
    1815A      2.668671  1816A      2.671677  1817A      2.672259  
    1818A      2.678054  1819A      2.691769  1820A      2.694065  
    1821A      2.698235  1822A      2.703921  1823A      2.709416  
    1824A      2.715864  1825A      2.717119  1826A      2.719503  
    1827A      2.728726  1828A      2.734124  1829A      2.734522  
    1830A      2.736758  1831A      2.737138  1832A      2.738334  
    1833A      2.748650  1834A      2.749264  1835A      2.750037  
    1836A      2.751801  1837A      2.753513  1838A      2.755276  
    1839A      2.757308  1840A      2.766137  1841A      2.768251  
    1842A      2.776150  1843A      2.778177  1844A      2.779562  
    1845A      2.781057  1846A      2.783152  1847A      2.785626  
    1848A      2.792146  1849A      2.798567  1850A      2.799657  
    1851A      2.801610  1852A      2.803763  1853A      2.809006  
    1854A      2.809892  1855A      2.812253  1856A      2.821762  
    1857A      2.827701  1858A      2.828678  1859A      2.838699  
    1860A      2.855317  1861A      2.857812  1862A      2.858874  
    1863A      2.869044  1864A      2.870099  1865A      2.874780  
    1866A      2.875378  1867A      2.897940  1868A      2.901786  
    1869A      2.906431  1870A      2.908233  1871A      2.915179  
    1872A      2.932935  1873A      2.934117  1874A      2.962868  
    1875A      2.965357  1876A      2.966765  1877A      2.976903  
    1878A      2.980435  1879A      2.984315  1880A      2.986611  
    1881A      2.989036  1882A      2.993841  1883A      2.994379  
    1884A      3.006069  1885A      3.009999  1886A      3.042817  
    1887A      3.048462  1888A      3.053374  1889A      3.054253  
    1890A      3.060782  1891A      3.067597  1892A      3.068026  
    1893A      3.073050  1894A      3.074684  1895A      3.082762  
    1896A      3.083361  1897A      3.088407  1898A      3.089257  
    1899A      3.091978  1900A      3.093515  1901A      3.094703  
    1902A      3.101276  1903A      3.101799  1904A      3.102018  
    1905A      3.113390  1906A      3.115149  1907A      3.116766  
    1908A      3.123625  1909A      3.133493  1910A      3.135074  
    1911A      3.160506  1912A      3.192268  1913A      3.198557  
    1914A      3.199583  1915A      3.199812  1916A      3.200690  
    1917A      3.203073  1918A      3.208588  1919A      3.210113  
    1920A      3.214146  1921A      3.214768  1922A      3.236175  
    1923A      3.237495  1924A      3.242308  1925A      3.247367  
    1926A      3.297504  1927A      3.298119  1928A      3.307324  
    1929A      3.350924  1930A      3.367001  1931A      3.372748  
    1932A      3.377546  1933A      3.386415  1934A      3.392288  
    1935A      3.401512  1936A      3.403125  1937A      3.404324  
    1938A      3.410336  1939A      3.420733  1940A      3.421929  
    1941A      3.426133  1942A      3.443779  1943A      3.456457  
    1944A      3.483220  1945A      3.499849  1946A      3.514526  
    1947A      3.521761  1948A      3.527375  1949A      3.535966  
    1950A      3.581962  1951A      3.588582  1952A      3.590315  
    1953A      3.609111  1954A      3.624554  1955A      3.643223  
    1956A      3.687837  1957A      3.692160  1958A      3.694655  
    1959A      3.702190  1960A      3.716371  1961A      3.725835  
    1962A      3.780297  1963A      3.783520  1964A      3.812853  
    1965A      3.813204  1966A      3.853475  1967A      3.866504  
    1968A      3.877608  1969A      3.884242  1970A      3.885797  
    1971A      3.894242  1972A      3.906184  1973A      3.911748  
    1974A      3.922664  1975A      3.958200  1976A      3.960229  
    1977A      4.022285  1978A      4.180015  1979A      4.248973  
    1980A      4.352176  

    Final Occupation by Irrep:
              A 
    DOCC [   326 ]
    NA   [   326 ]
    NB   [   326 ]

  @DF-RHF Final Energy: -3953.66095256187600

   => Energetics <=

    Nuclear Repulsion Energy =          18146.5034776783795678
    One-Electron Energy =              -41498.8016397047904320
    Two-Electron Energy =               19398.6372094645339530
    Total Energy =                      -3953.6609525618769112

Computation Completed


Properties will be evaluated at   0.000000,   0.000000,   0.000000 [a0]

Properties computed using the SCF density matrix


 Multipole Moments:

 ------------------------------------------------------------------------------------
     Multipole            Electronic (a.u.)      Nuclear  (a.u.)        Total (a.u.)
 ------------------------------------------------------------------------------------

 L = 1.  Multiply by 2.5417464519 to convert [e a0] to [Debye]
 Dipole X            :         -0.0041659            0.0004804           -0.0036855
 Dipole Y            :         -7.2336687            8.7122315            1.4785628
 Dipole Z            :         20.5728623          -26.6578675           -6.0850052
 Magnitude           :                                                    6.2620644

 ------------------------------------------------------------------------------------

*** tstop() called on n2cn0179 at Sat Feb 10 15:21:01 2024
Module time:
	user time   =   31382.33 seconds =     523.04 minutes
	system time =    6970.74 seconds =     116.18 minutes
	total time  =       5677 seconds =      94.62 minutes
Total time:
	user time   =   31382.33 seconds =     523.04 minutes
	system time =    6970.74 seconds =     116.18 minutes
	total time  =       5677 seconds =      94.62 minutes

  //>>>>>>>>>>>>>>>>>>>>>>>>>>>>>>>>>>>//
  //            Monomer A HF           //
  //<<<<<<<<<<<<<<<<<<<<<<<<<<<<<<<<<<<//

   => Libint2 <=

    Primary   basis highest AM E, G, H:  5, 4, 3
    Auxiliary basis highest AM E, G, H:  6, 5, 4
    Onebody   basis highest AM E, G, H:  6, 5, 4
    Solid Harmonics ordering:            gaussian

*** tstart() called on n2cn0179
*** at Sat Feb 10 15:21:01 2024

   => Loading Basis Set <=

    Name: JUN-CC-PVDZ
    Role: ORBITAL
    Keyword: BASIS
    atoms 1-2, 4-5, 10, 17-34, 41-53, 56-70, 73-89, 92-104, 109-119, 122-130 entry C          line   164 file /opt/software/pc2/EB-SW/software/PSI4/1.9-foss-2022a/share/psi4/basis/jun-cc-pvdz.gbs 
    atoms 3, 6                                                               entry N          line   198 file /opt/software/pc2/EB-SW/software/PSI4/1.9-foss-2022a/share/psi4/basis/jun-cc-pvdz.gbs 
    atoms 7-9, 11-16, 35-40, 54-55, 71-72, 90-91, 105-108, 120-121, 131-136  entry H          line    36 file /opt/software/pc2/EB-SW/software/PSI4/1.9-foss-2022a/share/psi4/basis/jun-cc-pvdz.gbs 


         ---------------------------------------------------------
                                   SCF
               by Justin Turney, Rob Parrish, Andy Simmonett
                          and Daniel G. A. Smith
                              RHF Reference
                       16 Threads,  76293 MiB Core
         ---------------------------------------------------------

  ==> Geometry <==

    Molecular point group: c1
    Full point group: C1

    Geometry (in Angstrom), charge = 1, multiplicity = 1:

       Center              X                  Y                   Z               Mass       
    ------------   -----------------  -----------------  -----------------  -----------------
         C            0.680062820275     1.308604348936    -5.557596082539    12.000000000000
         C           -0.680508179725     1.310632348936    -5.557212082539    12.000000000000
         N           -1.085639179725     1.311630348936    -4.238888082539    14.003074004430
[...]
    1585A      2.195189  1586A      2.195749  1587A      2.199543  
    1588A      2.200484  1589A      2.200917  1590A      2.201050  
    1591A      2.202189  1592A      2.204160  1593A      2.205068  
    1594A      2.205983  1595A      2.208819  1596A      2.210618  
    1597A      2.210910  1598A      2.215681  1599A      2.217074  
    1600A      2.219401  1601A      2.220290  1602A      2.221941  
    1603A      2.223047  1604A      2.224264  1605A      2.225938  
    1606A      2.226464  1607A      2.229383  1608A      2.231332  
    1609A      2.232163  1610A      2.232630  1611A      2.235117  
    1612A      2.235548  1613A      2.236967  1614A      2.238890  
    1615A      2.240120  1616A      2.241632  1617A      2.245683  
    1618A      2.246566  1619A      2.252078  1620A      2.252628  
    1621A      2.258306  1622A      2.259515  1623A      2.263911  
    1624A      2.267964  1625A      2.268254  1626A      2.268480  
    1627A      2.270016  1628A      2.272605  1629A      2.280735  
    1630A      2.284209  1631A      2.284827  1632A      2.292262  
    1633A      2.293423  1634A      2.296405  1635A      2.297468  
    1636A      2.301082  1637A      2.303959  1638A      2.306425  
    1639A      2.308814  1640A      2.313894  1641A      2.317082  
    1642A      2.323486  1643A      2.325651  1644A      2.325980  
    1645A      2.329345  1646A      2.330291  1647A      2.330715  
    1648A      2.331336  1649A      2.333959  1650A      2.335309  
    1651A      2.335960  1652A      2.339472  1653A      2.340430  
    1654A      2.342097  1655A      2.344107  1656A      2.345007  
    1657A      2.346202  1658A      2.346625  1659A      2.347099  
    1660A      2.349092  1661A      2.349108  1662A      2.353145  
    1663A      2.362509  1664A      2.371667  1665A      2.376410  
    1666A      2.379162  1667A      2.384965  1668A      2.385689  
    1669A      2.388629  1670A      2.391491  1671A      2.395811  
    1672A      2.397380  1673A      2.398975  1674A      2.405869  
    1675A      2.412839  1676A      2.418866  1677A      2.420685  
    1678A      2.424768  1679A      2.428269  1680A      2.433223  
    1681A      2.434703  1682A      2.442669  1683A      2.447001  
    1684A      2.453289  1685A      2.454798  1686A      2.456662  
    1687A      2.464790  1688A      2.466478  1689A      2.468376  
    1690A      2.469140  1691A      2.471993  1692A      2.472446  
    1693A      2.472637  1694A      2.491388  1695A      2.492945  
    1696A      2.496686  1697A      2.500585  1698A      2.503340  
    1699A      2.508013  1700A      2.509713  1701A      2.512386  
    1702A      2.516500  1703A      2.522732  1704A      2.534065  
    1705A      2.537394  1706A      2.539732  1707A      2.540270  
    1708A      2.542285  1709A      2.545657  1710A      2.545837  
    1711A      2.547952  1712A      2.550145  1713A      2.550495  
    1714A      2.552601  1715A      2.554227  1716A      2.557072  
    1717A      2.558047  1718A      2.564434  1719A      2.566702  
    1720A      2.571677  1721A      2.572028  1722A      2.580310  
    1723A      2.581624  1724A      2.585941  1725A      2.586372  
    1726A      2.587297  1727A      2.588866  1728A      2.590029  
    1729A      2.591113  1730A      2.593374  1731A      2.594954  
    1732A      2.602503  1733A      2.602720  1734A      2.613477  
    1735A      2.614352  1736A      2.614868  1737A      2.615531  
    1738A      2.618829  1739A      2.620830  1740A      2.633499  
    1741A      2.640994  1742A      2.643365  1743A      2.644196  
    1744A      2.644784  1745A      2.646338  1746A      2.649366  
    1747A      2.650527  1748A      2.653803  1749A      2.655929  
    1750A      2.657674  1751A      2.659205  1752A      2.666440  
    1753A      2.667697  1754A      2.669128  1755A      2.671214  
    1756A      2.671695  1757A      2.673181  1758A      2.674818  
    1759A      2.678372  1760A      2.681253  1761A      2.684226  
    1762A      2.686989  1763A      2.689253  1764A      2.691417  
    1765A      2.691953  1766A      2.692911  1767A      2.694060  
    1768A      2.696426  1769A      2.697578  1770A      2.704141  
    1771A      2.705690  1772A      2.712849  1773A      2.717918  
    1774A      2.723365  1775A      2.728549  1776A      2.731205  
    1777A      2.731780  1778A      2.732730  1779A      2.734841  
    1780A      2.737007  1781A      2.756724  1782A      2.761186  
    1783A      2.764158  1784A      2.775716  1785A      2.778960  
    1786A      2.780533  1787A      2.780978  1788A      2.785875  
    1789A      2.787650  1790A      2.795436  1791A      2.799984  
    1792A      2.800586  1793A      2.802592  1794A      2.802797  
    1795A      2.805202  1796A      2.815726  1797A      2.816098  
    1798A      2.817381  1799A      2.818970  1800A      2.820527  
    1801A      2.821158  1802A      2.831723  1803A      2.837439  
    1804A      2.841047  1805A      2.843493  1806A      2.843835  
    1807A      2.844713  1808A      2.848048  1809A      2.865415  
    1810A      2.866698  1811A      2.867240  1812A      2.871745  
    1813A      2.873279  1814A      2.876578  1815A      2.896184  
    1816A      2.897090  1817A      2.905999  1818A      2.916180  
    1819A      2.919604  1820A      2.920662  1821A      2.924782  
    1822A      2.928206  1823A      2.932131  1824A      2.933136  
    1825A      2.934942  1826A      2.936963  1827A      2.953159  
    1828A      2.961131  1829A      2.965489  1830A      2.967921  
    1831A      2.970830  1832A      2.977269  1833A      2.992086  
    1834A      2.995454  1835A      2.997033  1836A      3.006451  
    1837A      3.031114  1838A      3.032453  1839A      3.037939  
    1840A      3.042101  1841A      3.043113  1842A      3.048621  
    1843A      3.050704  1844A      3.053704  1845A      3.058410  
    1846A      3.059857  1847A      3.065284  1848A      3.073651  
    1849A      3.082856  1850A      3.095010  1851A      3.109029  
    1852A      3.113679  1853A      3.114512  1854A      3.124296  
    1855A      3.125301  1856A      3.131435  1857A      3.131905  
    1858A      3.138253  1859A      3.140055  1860A      3.144606  
    1861A      3.145334  1862A      3.151598  1863A      3.154388  
    1864A      3.154906  1865A      3.158344  1866A      3.158798  
    1867A      3.162523  1868A      3.168445  1869A      3.173416  
    1870A      3.176957  1871A      3.177914  1872A      3.184731  
    1873A      3.194882  1874A      3.196231  1875A      3.220905  
    1876A      3.254650  1877A      3.261117  1878A      3.262335  
    1879A      3.263388  1880A      3.264360  1881A      3.266846  
    1882A      3.270969  1883A      3.272235  1884A      3.276255  
    1885A      3.276746  1886A      3.299178  1887A      3.300852  
    1888A      3.302522  1889A      3.306345  1890A      3.310476  
    1891A      3.343524  1892A      3.363361  1893A      3.363831  
    1894A      3.373570  1895A      3.401549  1896A      3.417487  
    1897A      3.431720  1898A      3.439628  1899A      3.451633  
    1900A      3.452836  1901A      3.459904  1902A      3.466410  
    1903A      3.470044  1904A      3.472672  1905A      3.475653  
    1906A      3.483839  1907A      3.488981  1908A      3.493793  
    1909A      3.501448  1910A      3.510407  1911A      3.523715  
    1912A      3.546177  1913A      3.554218  1914A      3.580831  
    1915A      3.582151  1916A      3.591334  1917A      3.594108  
    1918A      3.631447  1919A      3.650951  1920A      3.653591  
    1921A      3.657614  1922A      3.676951  1923A      3.689499  
    1924A      3.708858  1925A      3.754464  1926A      3.756634  
    1927A      3.760177  1928A      3.764439  1929A      3.768978  
    1930A      3.779162  1931A      3.792029  1932A      3.830622  
    1933A      3.844713  1934A      3.847825  1935A      3.875439  
    1936A      3.876089  1937A      3.878931  1938A      3.917821  
    1939A      3.930860  1940A      3.943344  1941A      3.949208  
    1942A      3.949758  1943A      3.959654  1944A      3.974987  
    1945A      3.979017  1946A      3.989448  1947A      4.015688  
    1948A      4.025052  1949A      4.027747  1950A      4.090456  
    1951A      4.225072  1952A      4.246621  1953A      4.253938  
    1954A      4.325047  1955A      4.407268  1956A      4.418347  
    1957A      4.430042  1958A      4.511542  1959A      4.785357  
    1960A      4.848228  1961A      4.867820  1962A      4.885564  
    1963A      4.967687  1964A      5.080489  1965A      5.085952  
    1966A      5.092150  1967A      5.131269  1968A      5.214005  
    1969A      5.413421  1970A      5.439122  1971A      5.761940  
    1972A      5.785838  1973A      6.078011  1974A     18.205112  
    1975A     18.481400  1976A     18.504113  1977A     18.584154  
    1978A     18.852631  1979A     25.354893  1980A     25.389814  

    Final Occupation by Irrep:
              A 
    DOCC [   300 ]
    NA   [   300 ]
    NB   [   300 ]

  @DF-RHF Final Energy: -3650.34083922065474

   => Energetics <=

    Nuclear Repulsion Energy =          15611.4211649754306563
    One-Electron Energy =              -36072.1722464232516359
    Two-Electron Energy =               16810.4102422271680553
    Total Energy =                      -3650.3408392206547433

Computation Completed


Properties will be evaluated at   0.000000,   0.000000,   0.000000 [a0]

Properties computed using the SCF density matrix


 Multipole Moments:

 ------------------------------------------------------------------------------------
     Multipole            Electronic (a.u.)      Nuclear  (a.u.)        Total (a.u.)
 ------------------------------------------------------------------------------------

 L = 1.  Multiply by 2.5417464519 to convert [e a0] to [Debye]
 Dipole X            :         -0.0007692            0.0002112           -0.0005581
 Dipole Y            :        123.2191120         -123.2131634            0.0059486
 Dipole Z            :       -406.2872897          406.2940373            0.0067477
 Magnitude           :                                                    0.0090127

 ------------------------------------------------------------------------------------

*** tstop() called on n2cn0179 at Sat Feb 10 16:46:23 2024
Module time:
	user time   =   21306.51 seconds =     355.11 minutes
	system time =    4852.69 seconds =      80.88 minutes
	total time  =       3405 seconds =      56.75 minutes
Total time:
	user time   =   59667.70 seconds =     994.46 minutes
	system time =   12889.28 seconds =     214.82 minutes
	total time  =      10799 seconds =     179.98 minutes
  Constructing Basis Sets for SAPT...

   => Loading Basis Set <=

    Name: (JUN-CC-PVDZ AUX)
    Role: RIFIT
    Keyword: DF_BASIS_SAPT
    atoms 1-2, 4-5, 10, 17-34, 41-53, 56-70, 73-89, 92-104, 109-119, 122-130 entry C          line   100 file /opt/software/pc2/EB-SW/software/PSI4/1.9-foss-2022a/share/psi4/basis/jun-cc-pvdz-ri.gbs 
    atoms 3, 6                                                               entry N          line   144 file /opt/software/pc2/EB-SW/software/PSI4/1.9-foss-2022a/share/psi4/basis/jun-cc-pvdz-ri.gbs 
    atoms 7-9, 11-16, 35-40, 54-55, 71-72, 90-91, 105-108, 120-121, 131-136  entry H          line    30 file /opt/software/pc2/EB-SW/software/PSI4/1.9-foss-2022a/share/psi4/basis/jun-cc-pvdz-ri.gbs 

   => Loading Basis Set <=

    Name: (JUN-CC-PVDZ AUX)
    Role: JKFIT
    Keyword: DF_BASIS_ELST
    atoms 1-2, 4-5, 10, 17-34, 41-53, 56-70, 73-89, 92-104, 109-119, 122-130 entry C          line   146 file /opt/software/pc2/EB-SW/software/PSI4/1.9-foss-2022a/share/psi4/basis/jun-cc-pvdz-jkfit.gbs 
    atoms 3, 6                                                               entry N          line   202 file /opt/software/pc2/EB-SW/software/PSI4/1.9-foss-2022a/share/psi4/basis/jun-cc-pvdz-jkfit.gbs 
    atoms 7-9, 11-16, 35-40, 54-55, 71-72, 90-91, 105-108, 120-121, 131-136  entry H          line    70 file /opt/software/pc2/EB-SW/software/PSI4/1.9-foss-2022a/share/psi4/basis/jun-cc-pvdz-jkfit.gbs 


  //>>>>>>>>>>>>>>>>>>>>>>>>>>>>>>>>>>>//
  //               SSAPT0              //
  //<<<<<<<<<<<<<<<<<<<<<<<<<<<<<<<<<<<//


*** tstart() called on n2cn0179
*** at Sat Feb 10 16:46:26 2024

        SAPT0  
    Ed Hohenstein
     6 June 2009

      Orbital Information
  --------------------------
    NSO        =      2019
    NMO        =      1980
    NRI        =      7157
    NRI (Elst) =      8896
    NOCC A     =        26
    NOCC B     =       300
    FOCC A     =         7
    FOCC B     =        96
    NVIR A     =      1954
    NVIR B     =      1680

    Elst10,r            =    -0.012997540144 [Eh]
    Exch10              =     0.004493418094 [Eh]
    Exch10 (S^2)        =     0.004486928588 [Eh]

    Iter     Energy [mEh]          dE [mEh]         Residual      Time [s]
       1      -0.20503302       0.205033022       2.146269711           170
       2      -0.22855338       0.023520354       0.802217894           363
       3      -0.23962904       0.011075668       0.095427130           539
       4      -0.23933125      -0.000297798       0.035601868           697
       5      -0.23924190      -0.000089346       0.013013286           885
       6      -0.23928569       0.000043788       0.005009949          1077
       7      -0.23929170       0.000006015       0.001750845          1221
       8      -0.23928866      -0.000003045       0.000579365          1377
       9      -0.23928754      -0.000001123       0.000172833          1534
      10      -0.23928762       0.000000081       0.000053918          1693
      11      -0.23928776       0.000000143       0.000014680          1874
      12      -0.23928776      -0.000000000       0.000004947          2029
      13      -0.23928775      -0.000000010       0.000001135          2207
      14      -0.23928775       0.000000000       0.000000398          2338

    CHF Iterations converged


    Iter     Energy [mEh]          dE [mEh]         Residual      Time [s]
       1     -18.99823614      18.998236139      73.687762112           234
       2     -12.55886620      -6.439369936       9.555913677           448
       3     -12.58453924       0.025673034       3.617334404           636
       4     -12.89658760       0.312048361       1.128463286           849
       5     -12.93105824       0.034470646       0.424219138          1065
       6     -12.92131395      -0.009744292       0.274681398          1244
       7     -12.91420179      -0.007112161       0.109725088          1441
       8     -12.91533776       0.001135972       0.051393281          1651
       9     -12.91664978       0.001312018       0.019153170          1839
      10     -12.91654253      -0.000107250       0.015446951          2039
      11     -12.91630087      -0.000241665       0.009783718          2244
      12     -12.91629431      -0.000006552       0.006505105          2428
      13     -12.91639113       0.000096813       0.003446126          2626
      14     -12.91640672       0.000015596       0.001941335          2830
      15     -12.91638787      -0.000018858       0.001032626          3019
      16     -12.91637641      -0.000011455       0.000368646          3231
      17     -12.91638106       0.000004644       0.000175376          3487
      18     -12.91638332       0.000002264       0.000092120          3680
      19     -12.91638288      -0.000000437       0.000068064          3858
      20     -12.91638187      -0.000001011       0.000035904          4069
      21     -12.91638204       0.000000164       0.000018713          4289
      22     -12.91638227       0.000000239       0.000007588          4475
      23     -12.91638227      -0.000000000       0.000003262          4686
      24     -12.91638224      -0.000000038       0.000001762          4892
      25     -12.91638223      -0.000000009       0.000000918          5083

    CHF Iterations converged

    Ind20,r (A<-B)      =    -0.000239287749 [Eh]
    Ind20,r (B<-A)      =    -0.012916382227 [Eh]
    Ind20,r             =    -0.013155669976 [Eh]
    Exch-Ind20,r (A<-B) =     0.000209113578 [Eh]
    Exch-Ind20,r (B<-A) =     0.000859630715 [Eh]
    Exch-Ind20,r        =     0.001068744292 [Eh]
    Disp20              =    -0.014551575953 [Eh]
    Disp20 (SS)         =    -0.007275787977 [Eh]
    Disp20 (OS)         =    -0.007275787977 [Eh]
    Exch-Disp20         =     0.000424490557 [Eh]
    Exch-Disp20 (SS)    =     0.000267400855 [Eh]
    Exch-Disp20 (OS)    =     0.000157089702 [Eh]

    SAPT Results 
  --------------------------------------------------------------------------------------------------------
    Electrostatics                -12.99754014 [mEh]      -8.15607958 [kcal/mol]     -34.12503695 [kJ/mol]
      Elst10,r                    -12.99754014 [mEh]      -8.15607958 [kcal/mol]     -34.12503695 [kJ/mol]

    Exchange                        4.49341809 [mEh]       2.81966242 [kcal/mol]      11.79746758 [kJ/mol]
      Exch10                        4.49341809 [mEh]       2.81966242 [kcal/mol]      11.79746758 [kJ/mol]
      Exch10(S^2)                   4.48692859 [mEh]       2.81559020 [kcal/mol]      11.78042939 [kJ/mol]

    Induction                     -13.55127861 [mEh]      -8.50355571 [kcal/mol]     -35.57887708 [kJ/mol]
      Ind20,r                     -13.15566998 [mEh]      -8.25530754 [kcal/mol]     -34.54020676 [kJ/mol]
      Exch-Ind20,r                  1.06874429 [mEh]       0.67064717 [kcal/mol]       2.80598775 [kJ/mol]
      delta HF,r (2)               -1.46435292 [mEh]      -0.91889533 [kcal/mol]      -3.84465807 [kJ/mol]

    Dispersion                    -14.12708540 [mEh]      -8.86487992 [kcal/mol]     -37.09065760 [kJ/mol]
      Disp20                      -14.55157595 [mEh]      -9.13125177 [kcal/mol]     -38.20515740 [kJ/mol]
      Exch-Disp20                   0.42449056 [mEh]       0.26637185 [kcal/mol]       1.11449980 [kJ/mol]
      Disp20 (SS)                  -7.27578798 [mEh]      -4.56562588 [kcal/mol]     -19.10257870 [kJ/mol]
      Disp20 (OS)                  -7.27578798 [mEh]      -4.56562588 [kcal/mol]     -19.10257870 [kJ/mol]
      Exch-Disp20 (SS)              0.26740086 [mEh]       0.16779657 [kcal/mol]       0.70206085 [kJ/mol]
      Exch-Disp20 (OS)              0.15708970 [mEh]       0.09857528 [kcal/mol]       0.41243896 [kJ/mol]

  Total HF                        -22.05540066 [mEh]     -13.83997286 [kcal/mol]     -57.90644644 [kJ/mol]
  Total SAPT0                     -36.18248605 [mEh]     -22.70485278 [kcal/mol]     -94.99710404 [kJ/mol]

  Special recipe for scaled SAPT0 (see Manual):
    Electrostatics sSAPT0         -12.99754014 [mEh]      -8.15607958 [kcal/mol]     -34.12503695 [kJ/mol]
    Exchange sSAPT0                 4.49341809 [mEh]       2.81966242 [kcal/mol]      11.79746758 [kJ/mol]
    Induction sSAPT0              -13.54663468 [mEh]      -8.50064160 [kcal/mol]     -35.56668445 [kJ/mol]
    Dispersion sSAPT0             -14.12524089 [mEh]      -8.86372248 [kcal/mol]     -37.08581485 [kJ/mol]
  Total sSAPT0                    -36.17599762 [mEh]     -22.70078123 [kcal/mol]     -94.98006867 [kJ/mol]
  --------------------------------------------------------------------------------------------------------

*** tstop() called on n2cn0179 at Sat Feb 10 21:54:51 2024
Module time:
	user time   =   90405.30 seconds =    1506.75 minutes
	system time =   10792.63 seconds =     179.88 minutes
	total time  =      18505 seconds =     308.42 minutes
Total time:
	user time   =  150075.84 seconds =    2501.26 minutes
	system time =   23681.94 seconds =     394.70 minutes
	total time  =      29307 seconds =     488.45 minutes

    Psi4 stopped on: Saturday, 10 February 2024 09:54PM
    Psi4 wall time for execution: 8:08:29.61

*** Psi4 exiting successfully. Buy a developer a beer!
