LAMMPS data file via write_data, version 2 Aug 2023, timestep = 3010000, units = real

6545 atoms
12 atom types
7524 bonds
10 bond types
11373 angles
12 angle types
18657 dihedrals
17 dihedral types
2240 impropers
1 improper types

0 34.08 xlo xhi
0 34.433 ylo yhi
0 200 zlo zhi

Masses

1 12.011
2 11.611
3 10.811
4 18.998
5 14.007
6 12.011
7 12.011
8 12.011
9 1.008
10 1.008
11 1.008
12 0.4

Bond Coeffs # harmonic

1 350 1.42
2 386.592 1.394
3 477.055 1.315
4 427.103 1.378
5 520.076 1.341
6 336.998 1.466
7 339.986 1.08
8 339.986 1.08
9 339.986 1.09
10 500 0

Angle Coeffs

   1    cosine/squared 66.665   120.000000  # C-C-C
   2    harmonic       80.007170   109.500000  # F-B-F
   3    harmonic       70.004780   126.400000  # CR-NA-CT
   4    harmonic       70.004780   108.000000  # CW-NA-CR
   5    harmonic       70.004780   125.600000  # CW-NA-CT
   6    harmonic       70.004780   109.800000  # NA-CR-NA
   7    harmonic       35.002390   125.100000  # NA-CR-HA
   8    harmonic       70.004780   107.100000  # NA-CW-CW
   9    harmonic       35.002390   122.000000  # NA-CW-HA
  10    harmonic       35.002390   130.900000  # CW-CW-HA
  11    harmonic       37.500000   110.700000  # NA-CT-HC
  12    harmonic       32.994742   107.800000  # HC-CT-HC

Dihedral Coeffs

   1    harmonic      3.125000    -1            2                      # C-C-C-C
   2    opls          0.000000     4.651052     0.000000     0.000000  # CT-NA-CR-NA
   3    opls          0.000000     4.651052     0.000000     0.000000  # CW-NA-CR-NA
   4    opls          0.000000     4.651052     0.000000     0.000000  # CT-NA-CR-HA
   5    opls          0.000000     4.651052     0.000000     0.000000  # CW-NA-CR-HA
   6    opls          0.000000     3.000000     0.000000     0.000000  # CR-NA-CW-CW
   7    opls          0.000000     3.000000     0.000000     0.000000  # CT-NA-CW-CW
   8    opls          0.000000     3.000000     0.000000     0.000000  # CR-NA-CW-HA
   9    opls          0.000000     3.000000     0.000000     0.000000  # CT-NA-CW-HA
  10    opls          0.000000    10.750478     0.000000     0.000000  # NA-CW-CW-HA
  11    opls          0.000000    10.750478     0.000000     0.000000  # HA-CW-CW-HA
  12    opls          0.000000    10.750478     0.000000     0.000000  # NA-CW-CW-NA
  13    opls          0.000000     0.000000     0.000000     0.000000  # CR-NA-CT-HC
  14    opls          0.000000     0.000000     0.124044     0.000000  # CW-NA-CT-HC
  15    opls          0.000000     2.000000     0.000000     0.000000  # CR-CW-NA-CT
  16    opls          0.000000     2.200000     0.000000     0.000000  # NA-NA-CR-HA
  17    opls          0.000000     2.200000     0.000000     0.000000  # NA-CW-CW-HA
  
Improper Coeffs # umbrella

1 40 0

Atoms # full

1 1 1 0 0.71 0 0 0 0 0
2 1 1 0 2.13 0 0 0 0 0
3 1 1 0 0 1.23 0 0 0 0
4 1 1 0 2.84 1.23 0 0 0 0
5 1 1 0 4.97 0 0 0 0 0
6 1 1 0 6.39 0 0 0 0 0
7 1 1 0 4.26 1.23 0 0 0 0
8 1 1 0 7.1 1.23 0 0 0 0
33 1 1 0 0.71 2.46 0 0 0 0
34 1 1 0 2.13 2.46 0 0 0 0
35 1 1 0 0 3.689 0 0 0 0
36 1 1 0 2.84 3.689 0 0 0 0
37 1 1 0 4.97 2.46 0 0 0 0
38 1 1 0 6.39 2.46 0 0 0 0
39 1 1 0 4.26 3.689 0 0 0 0
40 1 1 0 7.1 3.689 0 0 0 0
65 1 1 0 0.71 4.919 0 0 0 0
66 1 1 0 2.13 4.919 0 0 0 0
67 1 1 0 0 6.149 0 0 0 0
68 1 1 0 2.84 6.149 0 0 0 0
69 1 1 0 4.97 4.919 0 0 0 0
70 1 1 0 6.39 4.919 0 0 0 0
71 1 1 0 4.26 6.149 0 0 0 0
72 1 1 0 7.1 6.149 0 0 0 0
97 1 1 0 0.71 7.379 0 0 0 0
98 1 1 0 2.13 7.379 0 0 0 0
99 1 1 0 0 8.608 0 0 0 0
100 1 1 0 2.84 8.608 0 0 0 0
101 1 1 0 4.97 7.379 0 0 0 0
102 1 1 0 6.39 7.379 0 0 0 0
103 1 1 0 4.26 8.608 0 0 0 0
104 1 1 0 7.1 8.608 0 0 0 0
449 1 1 0 2.13 0 3.35 0 0 0
450 1 1 0 3.55 0 3.35 0 0 0
451 1 1 0 1.42 1.23 3.35 0 0 0
452 1 1 0 4.26 1.23 3.35 0 0 0
453 1 1 0 6.39 0 3.35 0 0 0
454 1 1 0 7.81 0 3.35 0 0 0
455 1 1 0 5.68 1.23 3.35 0 0 0
480 1 1 0 0 1.23 3.35 1 0 0
481 1 1 0 2.13 2.46 3.35 0 0 0
482 1 1 0 3.55 2.46 3.35 0 0 0
483 1 1 0 1.42 3.689 3.35 0 0 0
484 1 1 0 4.26 3.689 3.35 0 0 0
485 1 1 0 6.39 2.46 3.35 0 0 0
486 1 1 0 7.81 2.46 3.35 0 0 0
487 1 1 0 5.68 3.689 3.35 0 0 0
512 1 1 0 0 3.689 3.35 1 0 0
513 1 1 0 2.13 4.919 3.35 0 0 0
514 1 1 0 3.55 4.919 3.35 0 0 0
515 1 1 0 1.42 6.149 3.35 0 0 0
516 1 1 0 4.26 6.149 3.35 0 0 0
517 1 1 0 6.39 4.919 3.35 0 0 0
518 1 1 0 7.81 4.919 3.35 0 0 0
519 1 1 0 5.68 6.149 3.35 0 0 0
544 1 1 0 0 6.149 3.35 1 0 0
545 1 1 0 2.13 7.379 3.35 0 0 0
546 1 1 0 3.55 7.379 3.35 0 0 0
547 1 1 0 1.42 8.608 3.35 0 0 0
548 1 1 0 4.26 8.608 3.35 0 0 0
549 1 1 0 6.39 7.379 3.35 0 0 0
550 1 1 0 7.81 7.379 3.35 0 0 0
551 1 1 0 5.68 8.608 3.35 0 0 0
576 1 1 0 0 8.608 3.35 1 0 0
900 1 2 1.85204 2.848345360108642 1.150064377914829 6.888378730931962 0 0 0
903 1 2 1.85204 4.283717574544617 1.1277090230783557 6.8902097892258745 0 0 0
904 1 2 1.85204 7.081610750761026 1.0855990092066423 6.748758602386505 0 0 0
929 1 2 1.85204 0.7858541676745007 2.3835958405425317 6.727951485632346 0 0 0
930 1 2 1.85204 2.1777086750271994 2.3684011033832078 6.7919531450699555 0 0 0
932 1 2 1.85204 2.8932075571422438 3.615775915787946 6.780781837212801 0 0 0
933 1 2 1.85204 4.998403180947996 2.381580662424713 6.833225201506758 0 0 0
934 1 2 1.85204 6.38474303322636 2.35986168243174 6.815729969537483 0 0 0
935 1 2 1.85204 4.296713471965998 3.6033125233750263 6.76699623364951 0 0 0
936 1 2 1.85204 7.113170640318475 3.572955237546652 6.77791945440377 0 0 0
961 1 2 1.85204 0.6950824482797996 4.8260895520670655 6.794400867989326 0 0 0
962 1 2 1.85204 2.1509497814865903 4.789171726140116 6.734678746554898 0 0 0
964 1 2 1.85204 2.8281960137625073 6.012711831883706 6.720048197919185 0 0 0
965 1 2 1.85204 4.967462078764868 4.855722593969814 6.794760892124264 0 0 0
966 1 2 1.85204 6.366025260340295 4.813428762746248 6.788156916071487 0 0 0
967 1 2 1.85204 4.2818510192226515 6.044503695624926 6.779370049675202 0 0 0
968 1 2 1.85204 7.187287837287712 6.044423234047837 6.769964503184222 0 0 0
993 1 2 1.85204 0.7147377015402437 7.239724114537964 6.8875432288550416 0 0 0
994 1 2 1.85204 2.1297395309126155 7.247304389224903 6.810299500897558 0 0 0
997 1 2 1.85204 5.033526101886563 7.260178744959954 6.761427216325576 0 0 0
998 1 2 1.85204 6.424834359194545 7.2770149882245 6.821033827399224 0 0 0
1347 1 2 1.85204 1.4046183441498545 1.1780883338593837 10.072542247991372 0 0 0
1348 1 2 1.85204 4.216392036927583 1.2106443561025322 10.216361523803975 0 0 0
1351 1 2 1.85204 5.653170082841968 1.1705117910967187 10.171664767908004 0 0 0
1377 1 2 1.85204 2.0928850754728026 2.3871333312717375 10.115843665468258 0 0 0
1378 1 2 1.85204 3.5698968586202424 2.4105479874835436 10.209351340686874 0 0 0
1379 1 2 1.85204 1.3905793362692749 3.5908658497250863 10.034206615282196 0 0 0
1380 1 2 1.85204 4.194405250236416 3.637705863484135 10.154551997001725 0 0 0
1381 1 2 1.85204 6.342633111916233 2.4060514734797223 10.233382617629902 0 0 0
1383 1 2 1.85204 5.603171628431603 3.6290264813312314 10.181631146249865 0 0 0
1409 1 2 1.85204 2.1230445862070146 4.860804668988923 10.073275193858764 0 0 0
1410 1 2 1.85204 3.543452405362295 4.918836904413699 10.168789543812753 0 0 0
1411 1 2 1.85204 1.3420602203780572 6.054716908924692 10.057964679441069 0 0 0
1412 1 2 1.85204 4.261551394896263 6.136427470940797 10.290432750373233 0 0 0
1413 1 2 1.85204 6.376718582920975 4.8943273997913765 10.2084000529915 0 0 0
1415 1 2 1.85204 5.643909508560046 6.096194455880042 10.293083041071538 0 0 0
1441 1 2 1.85204 2.057557369350598 7.308964031294697 10.059070384011516 0 0 0
1442 1 2 1.85204 3.4951181496080044 7.336199938555506 10.185089874784847 0 0 0
1445 1 2 1.85204 6.385528841060661 7.330238570613048 10.342597176616827 0 0 0
1446 1 2 1.85204 7.807578331542051 7.300430867320211 10.22653893047 0 0 0
1796 1 2 1.85204 2.9293807278197237 1.439243121912586 13.549490783669638 0 0 0
1799 1 2 1.85204 4.338512699276016 1.4195943045883055 13.633697529327087 0 0 0
1800 1 2 1.85204 7.117108140682712 1.4004814125790914 13.655306984753857 0 0 0
1826 1 2 1.85204 2.15973155123335 2.6348839171897667 13.542556619313926 0 0 0
1828 1 2 1.85204 2.827510296925621 3.846053305798763 13.487339712776242 0 0 0
1829 1 2 1.85204 4.964270024781426 2.6945740540582537 13.610079235297636 0 0 0
1830 1 2 1.85204 6.3758713909951785 2.6295485232234785 13.606328960259459 0 0 0
1831 1 2 1.85204 4.301335064985927 3.893350152820865 13.481266791648736 0 0 0
1832 1 2 1.85204 7.138185079758465 3.8073528422037257 13.609122518289045 0 0 0
1858 1 2 1.85204 2.1183731400160366 5.071494735762552 13.477642375700896 0 0 0
1860 1 2 1.85204 2.825969810353459 6.293568415385957 13.50855600679261 0 0 0
1861 1 2 1.85204 4.994858176436999 5.128075573086352 13.534611589347877 0 0 0
1862 1 2 1.85204 6.445987564122748 5.10311739443153 13.618686639013546 0 0 0
1863 1 2 1.85204 4.258887989609392 6.383754464447859 13.525980805679477 0 0 0
1864 1 2 1.85204 7.189366557990392 6.323389331118013 13.640412854625485 0 0 0
1890 1 2 1.85204 2.2393736208489594 7.532965302025056 13.552578184569208 0 0 0
1893 1 2 1.85204 5.103449755144181 7.57860516054395 13.502699783061374 0 0 0
1894 1 2 1.85204 6.526725814621581 7.539183528956345 13.589886551303787 0 0 0
5205 1 12 -1.85204 2.8451786395886214 1.150269295897455 6.890112060313001 0 0 0
5208 1 12 -1.85204 4.282880773435515 1.1253613461597678 6.890463214543795 0 0 0
5209 1 12 -1.85204 7.082703198158248 1.0829140766336232 6.748891187833041 0 0 0
5234 1 12 -1.85204 0.7847256255313251 2.381935313099038 6.725247666048354 0 0 0
5235 1 12 -1.85204 2.177709154813155 2.3654555651934777 6.790445486122153 0 0 0
5237 1 12 -1.85204 2.8923067039782455 3.6179313662870336 6.7794665465678134 0 0 0
5238 1 12 -1.85204 4.99882688192346 2.3815963527207824 6.835082014935158 0 0 0
5239 1 12 -1.85204 6.3840763606532 2.3572617621022407 6.815842596825345 0 0 0
5240 1 12 -1.85204 4.295504279498542 3.6033171981269088 6.7684873898078735 0 0 0
5241 1 12 -1.85204 7.115137500831699 3.5706711590776576 6.77847731623189 0 0 0
5266 1 12 -1.85204 0.6955939940548217 4.8260736185870465 6.795812586453124 0 0 0
5267 1 12 -1.85204 2.152377634402274 4.788368056887376 6.7324129550734915 0 0 0
5269 1 12 -1.85204 2.824601798270704 6.011584784881496 6.722135273264073 0 0 0
5270 1 12 -1.85204 4.964994894852391 4.855387554194799 6.795086172162326 0 0 0
5271 1 12 -1.85204 6.36051742733866 4.811728491143985 6.787273863085584 0 0 0
5272 1 12 -1.85204 4.282941747787932 6.044976450896725 6.781348574681074 0 0 0
5273 1 12 -1.85204 7.189159453074407 6.045600597847747 6.770176781633829 0 0 0
5298 1 12 -1.85204 0.7143302049546598 7.239376620085582 6.887148037852139 0 0 0
5299 1 12 -1.85204 2.1286208001533202 7.245059478045685 6.809679130536872 0 0 0
5302 1 12 -1.85204 5.035628093636718 7.264154732528532 6.761727545474746 0 0 0
5303 1 12 -1.85204 6.4243404739550956 7.277329453377454 6.823192923534324 0 0 0
5652 1 12 -1.85204 1.405188980607355 1.1779208209041971 10.075505966190333 0 0 0
5653 1 12 -1.85204 4.214627867455635 1.2109663158712631 10.216616775651511 0 0 0
5656 1 12 -1.85204 5.656238646278189 1.1708043750089248 10.16886890903556 0 0 0
5682 1 12 -1.85204 2.0880731660935345 2.389390229856356 10.116730888985122 0 0 0
5683 1 12 -1.85204 3.5753778212675833 2.4112349185251825 10.211142160702343 0 0 0
5684 1 12 -1.85204 1.3907776088037025 3.5868438682715436 10.03389529028671 0 0 0
5685 1 12 -1.85204 4.1888565197231 3.635214184626595 10.152862851678762 0 0 0
5686 1 12 -1.85204 6.34931778195265 2.4040072799377317 10.235750190109648 0 0 0
5688 1 12 -1.85204 5.605543060636618 3.6298013767131767 10.179144570054921 0 0 0
5714 1 12 -1.85204 2.1266566744105058 4.864452577950189 10.073434208853406 0 0 0
5715 1 12 -1.85204 3.5456193185252984 4.921258622731163 10.166392587184976 0 0 0
5716 1 12 -1.85204 1.338745244952021 6.055029151903846 10.060769833592932 0 0 0
5717 1 12 -1.85204 4.2632961881399885 6.135773580003644 10.296398987340583 0 0 0
5718 1 12 -1.85204 6.380374397594275 4.895301969414547 10.207473387642983 0 0 0
5720 1 12 -1.85204 5.641945424590569 6.094875743497489 10.292997204317663 0 0 0
5746 1 12 -1.85204 2.0591794258854312 7.308279022787829 10.056364308233514 0 0 0
5747 1 12 -1.85204 3.4944783320077817 7.3338151256191875 10.184086990329938 0 0 0
5750 1 12 -1.85204 6.388857833973526 7.329776434374023 10.344166858634221 0 0 0
5751 1 12 -1.85204 7.810017269861887 7.300183651128516 10.224408846268346 0 0 0
6101 1 12 -1.85204 2.9304294240157738 1.4373879980891473 13.540394817674956 0 0 0
6104 1 12 -1.85204 4.343001451456166 1.413218690573348 13.63072115357903 0 0 0
6105 1 12 -1.85204 7.112404317492201 1.4043856243950492 13.650952311087451 0 0 0
6131 1 12 -1.85204 2.1546252845321736 2.631910215396223 13.531387993844806 0 0 0
6133 1 12 -1.85204 2.8228227803056543 3.8464977197967407 13.475197816417953 0 0 0
6134 1 12 -1.85204 4.968537812409144 2.69385623477872 13.606138073085761 0 0 0
6135 1 12 -1.85204 6.378701077738876 2.6353091187489595 13.61391068806778 0 0 0
6136 1 12 -1.85204 4.309709163741101 3.894224779896676 13.470244830538189 0 0 0
6137 1 12 -1.85204 7.136475993175511 3.804331573117348 13.62230513087718 0 0 0
6163 1 12 -1.85204 2.109351478600778 5.076133714410975 13.473490354875018 0 0 0
6165 1 12 -1.85204 2.82115031190391 6.292709403630433 13.506531732631968 0 0 0
6166 1 12 -1.85204 5.002550283117566 5.126066208114611 13.533668082307264 0 0 0
6167 1 12 -1.85204 6.448207236306209 5.09997989300476 13.630015134962266 0 0 0
6168 1 12 -1.85204 4.257891339114013 6.380021669941878 13.52330993276781 0 0 0
6169 1 12 -1.85204 7.190936809653742 6.319551464810466 13.642996039232345 0 0 0
6195 1 12 -1.85204 2.242624033001546 7.530569191534411 13.559072062160032 0 0 0
6198 1 12 -1.85204 5.10444202541408 7.576391987657961 13.4963420866935 0 0 0
6199 1 12 -1.85204 6.529463086812042 7.530157576452004 13.587248672543451 0 0 0
6130 1 12 -1.85204 0.7291842672525545 2.6605394529730786 13.42296563659879 0 0 0
1382 1 2 1.85204 7.7540323164109495 2.451616149275416 10.149581280655502 0 0 0
1414 1 2 1.85204 7.7921415275472 4.825929157471125 10.156394242863025 0 0 0
5687 1 12 -1.85204 7.74916691166638 2.454079454901465 10.150000862655045 0 0 0
5719 1 12 -1.85204 7.793402512913862 4.825080856035606 10.155388609031329 0 0 0
1825 1 2 1.85204 0.7370126779090631 2.657310980628736 13.422747178307324 0 0 0
1889 1 2 1.85204 0.79753390987486 7.5853932391714345 13.425947568808756 0 0 0
1857 1 2 1.85204 0.7413353586951715 5.071128880792257 13.399470557146826 0 0 0
6162 1 12 -1.85204 0.7341698093063772 5.068835227877186 13.405652434270804 0 0 0
6194 1 12 -1.85204 0.8012941330675692 7.582535732984001 13.430844612270233 0 0 0
4683 251 10 0.21 6.8021704292456375 3.4778974779121734 15.825066052614304 -1 0 0
1424 1 2 1.85204 17.037766015041516 6.067832787854039 10.072904126607582 0 0 0
3239 161 8 -0.17 15.770459554246123 2.819288956213477 16.47298389698681 0 1 0
2715 96 4 -0.49 13.748686825183517 7.402800570061236 16.298487168153322 0 0 0
2355 24 4 -0.49 14.932791491863 12.16724270917075 16.62151634922901 0 0 0
3835 198 10 0.21 4.754258977075796 0.02307397638627397 16.06414182726625 0 1 0
6260 1 12 -1.85204 0.058827430624289107 13.672816423108614 13.65588787079953 0 0 0
1802 1 2 1.85204 10.676829965294749 0.14743771847709347 13.622855793593498 0 0 0
5244 1 12 -1.85204 8.49446204331944 3.591151237125779 6.733082056047536 0 0 0
939 1 2 1.85204 8.495746407177567 3.5926104040147124 6.733747708614615 0 0 0
3439 173 11 0.13 10.030627390830054 14.023287677532611 16.301739252860337 0 0 0
1794 1 2 1.85204 2.1705051043835266 0.16752841514366096 13.391274896234343 0 0 0
3235 161 6 -0.11 14.55111192364055 0.7114766349471672 16.659546354729734 0 1 0
5236 1 12 -1.85204 0.021623262486224593 3.6020429027424896 6.67822935820998 0 0 0
6197 1 12 -1.85204 2.936121854358435 8.753078171727733 13.587481155959773 0 0 0
1892 1 2 1.85204 2.9444001462200777 8.753726973560912 13.593153692370787 0 0 0
5879 1 12 -1.85204 7.7170266225257595 17.19462582898471 10.155954391309372 0 0 0
3125 154 7 -0.13 2.5394015626295228 13.856513182425562 16.51275414620495 0 0 0
4906 265 10 0.21 16.197817684505438 7.655688930021876 15.721567233976288 0 0 0
1129 1 2 1.85204 9.291966838642345 17.13044360068284 6.700243187611208 0 0 0
1125 1 2 1.85204 5.01317146590074 17.136384906634227 6.805996775115577 0 0 0
6111 1 12 -1.85204 14.981456447975606 0.17852274339726812 13.495075881987391 0 0 0
3234 161 5 0.15 14.612695001052426 2.034263283162029 16.598416086513378 0 1 0
5430 1 12 -1.85204 5.010596439134699 17.134970023393365 6.806040467479451 0 0 0
3245 161 11 0.13 16.483799871333336 2.095027241209979 16.079678921130714 0 1 0
971 1 2 1.85204 8.59027988432732 6.00169157118913 6.80330906011138 0 0 0
5276 1 12 -1.85204 8.591037651140883 5.998041391159007 6.799984798327593 0 0 0
2254 4 4 -0.49 0.06496328991545088 10.850936208951433 16.608418782616397 0 0 0
6108 1 12 -1.85204 8.531609221436835 1.4017083563801904 13.694290056936158 0 0 0
1803 1 2 1.85204 8.53207422328778 1.3948683922488696 13.701188103022938 0 0 0
5431 1 12 -1.85204 6.443524941314816 17.10876926147748 6.7163361496755805 0 0 0
1126 1 2 1.85204 6.442754029555134 17.10988589848838 6.71531042928553 0 0 0
6201 1 12 -1.85204 7.184412176926768 8.78902485692714 13.53121707162465 0 0 0
5875 1 12 -1.85204 3.5631491479556487 17.07416835398984 10.108822629464115 0 0 0
5412 1 12 -1.85204 17.010888788883445 15.906063078630773 6.707225467790841 0 0 0
1895 1 2 1.85204 4.394752260744062 8.77387784846195 13.637861010226944 0 0 0
6200 1 12 -1.85204 4.391455276623201 8.773535277232607 13.627254982288674 0 0 0
1896 1 2 1.85204 7.180984176659409 8.791408348249842 13.541970744874128 0 0 0
2487 51 4 -0.49 1.6703615823538331 2.4355587988197085 16.602283877685025 -1 0 0
5204 1 12 -1.85204 0.10352683445142001 1.1964321933584061 6.752843375798176 0 0 0
1899 1 2 1.85204 8.62479088472072 8.732263999924351 13.717454343159453 0 0 0
6204 1 12 -1.85204 8.627793624059342 8.734222351437337 13.719687772026331 0 0 0
1133 1 2 1.85204 13.582731000554851 17.206600848400026 6.620860324014448 0 0 0
5729 1 12 -1.85204 17.036818241438823 6.067854939886772 10.076137478802563 0 0 0
2352 24 4 -0.49 15.656593054872877 14.143371477128069 16.41691178548925 0 0 0
995 1 2 1.85204 0.028209677527473737 8.484666419392344 6.844135346187081 0 0 0
5761 1 12 -1.85204 17.029746189225992 8.507073667625889 10.123421498381076 0 0 0
2489 51 4 -0.49 3.150592871478996 4.291233371906913 16.389745201604402 -1 0 0
1482 1 2 1.85204 12.028739706022158 9.845921908941667 10.098392761298589 0 0 0
1999 1 2 1.85204 12.825830793881575 16.100570458395737 13.658567838398083 0 0 0
4678 251 7 -0.13 7.579272714541418 3.7874779389250715 16.508198577556435 -1 0 0
648 1 1 0 8.52 15.987 3.35 0 0 0
6304 1 12 -1.85204 12.826132230275944 16.09978461094979 13.664078612828055 0 0 0
3434 173 10 0.21 12.295367634693589 12.800714627198142 16.30112420296815 0 0 0
5883 1 12 -1.85204 12.014027658640806 17.136968597827604 10.2503633337527 0 0 0
931 1 2 1.85204 0.02048892382075537 3.6037959271261397 6.678555566201428 0 0 0
4684 251 11 0.13 5.5790214473641235 6.1003746695778664 16.35409888912216 -1 0 0
907 1 2 1.85204 8.500716590018866 1.112331030281988 6.716375670586118 0 0 0
5212 1 12 -1.85204 8.501767819195063 1.1130899096153424 6.715702268840127 0 0 0
1384 1 2 1.85204 8.512281017096774 3.6647083160520966 10.10791402187017 0 0 0
5689 1 12 -1.85204 8.512923453539372 3.6665411696909493 10.107260955335683 0 0 0
6140 1 12 -1.85204 8.563259291776646 3.7994031229387253 13.709228990379001 0 0 0
1835 1 2 1.85204 8.567438973268048 3.7988184155423705 13.704707366787124 0 0 0
3131 154 10 0.21 2.8919812324063616 15.95578436627105 16.26514486404902 0 0 0
2712 96 4 -0.49 12.285766655147087 5.678327184800995 16.264545098473725 0 0 0
3135 154 11 0.13 2.8003715510707 10.860845499450608 16.3482955332733 0 0 0
5426 1 12 -1.85204 0.7832142577440477 17.162450545606514 6.674814782888246 0 0 0
6228 1 12 -1.85204 0.09632759313035688 11.173557967873414 13.5920394511096 0 0 0
1352 1 2 1.85204 8.508553122332136 1.1724839779972405 10.019733010539882 0 0 0
5657 1 12 -1.85204 8.511334231032059 1.1700147880226113 10.018525492192602 0 0 0
1416 1 2 1.85204 8.51581179600217 6.004589486875715 10.14968936945927 0 0 0
5721 1 12 -1.85204 8.515049442033316 6.001495324140341 10.150988312236148 0 0 0
1867 1 2 1.85204 8.612886576788608 6.249826253007579 13.672221006029318 0 0 0
6172 1 12 -1.85204 8.612387274956436 6.246875531762196 13.672194682168433 0 0 0
1891 1 2 1.85204 0.08304226003412615 8.785147160290997 13.499946395773454 0 0 0
1833 1 2 1.85204 9.284051595230657 2.6369229107600662 13.710732522124134 0 0 0
6138 1 12 -1.85204 9.288455455707538 2.6410595591912247 13.715029418762683 0 0 0
1865 1 2 1.85204 9.326566413245683 4.995638662572248 13.742913273044483 0 0 0
6170 1 12 -1.85204 9.322514896652512 4.992193926630106 13.744805233411238 0 0 0
1897 1 2 1.85204 9.388541623132674 7.477701873673295 13.677064235907592 0 0 0
6202 1 12 -1.85204 9.391249609659997 7.477005829084354 13.680240638872151 0 0 0
1422 1 2 1.85204 16.343780138320188 4.821981334941977 9.914610842855298 0 0 0
5727 1 12 -1.85204 16.346347679436406 4.822627780178724 9.913454331080965 0 0 0
9 1 1 0 9.23 0 0 0 0 0
10 1 1 0 10.65 0 0 0 0 0
11 1 1 0 8.52 1.23 0 0 0 0
12 1 1 0 11.36 1.23 0 0 0 0
13 1 1 0 13.49 0 0 0 0 0
14 1 1 0 14.91 0 0 0 0 0
15 1 1 0 12.78 1.23 0 0 0 0
16 1 1 0 15.62 1.23 0 0 0 0
41 1 1 0 9.23 2.46 0 0 0 0
42 1 1 0 10.65 2.46 0 0 0 0
43 1 1 0 8.52 3.689 0 0 0 0
44 1 1 0 11.36 3.689 0 0 0 0
45 1 1 0 13.49 2.46 0 0 0 0
46 1 1 0 14.91 2.46 0 0 0 0
47 1 1 0 12.78 3.689 0 0 0 0
48 1 1 0 15.62 3.689 0 0 0 0
73 1 1 0 9.23 4.919 0 0 0 0
74 1 1 0 10.65 4.919 0 0 0 0
75 1 1 0 8.52 6.149 0 0 0 0
76 1 1 0 11.36 6.149 0 0 0 0
77 1 1 0 13.49 4.919 0 0 0 0
78 1 1 0 14.91 4.919 0 0 0 0
79 1 1 0 12.78 6.149 0 0 0 0
80 1 1 0 15.62 6.149 0 0 0 0
105 1 1 0 9.23 7.379 0 0 0 0
106 1 1 0 10.65 7.379 0 0 0 0
107 1 1 0 8.52 8.608 0 0 0 0
108 1 1 0 11.36 8.608 0 0 0 0
109 1 1 0 13.49 7.379 0 0 0 0
110 1 1 0 14.91 7.379 0 0 0 0
111 1 1 0 12.78 8.608 0 0 0 0
112 1 1 0 15.62 8.608 0 0 0 0
456 1 1 0 8.52 1.23 3.35 0 0 0
457 1 1 0 10.65 0 3.35 0 0 0
458 1 1 0 12.07 0 3.35 0 0 0
459 1 1 0 9.94 1.23 3.35 0 0 0
460 1 1 0 12.78 1.23 3.35 0 0 0
461 1 1 0 14.91 0 3.35 0 0 0
462 1 1 0 16.33 0 3.35 0 0 0
463 1 1 0 14.2 1.23 3.35 0 0 0
488 1 1 0 8.52 3.689 3.35 0 0 0
489 1 1 0 10.65 2.46 3.35 0 0 0
490 1 1 0 12.07 2.46 3.35 0 0 0
491 1 1 0 9.94 3.689 3.35 0 0 0
492 1 1 0 12.78 3.689 3.35 0 0 0
493 1 1 0 14.91 2.46 3.35 0 0 0
494 1 1 0 16.33 2.46 3.35 0 0 0
495 1 1 0 14.2 3.689 3.35 0 0 0
520 1 1 0 8.52 6.149 3.35 0 0 0
521 1 1 0 10.65 4.919 3.35 0 0 0
522 1 1 0 12.07 4.919 3.35 0 0 0
523 1 1 0 9.94 6.149 3.35 0 0 0
524 1 1 0 12.78 6.149 3.35 0 0 0
525 1 1 0 14.91 4.919 3.35 0 0 0
526 1 1 0 16.33 4.919 3.35 0 0 0
527 1 1 0 14.2 6.149 3.35 0 0 0
552 1 1 0 8.52 8.608 3.35 0 0 0
553 1 1 0 10.65 7.379 3.35 0 0 0
554 1 1 0 12.07 7.379 3.35 0 0 0
555 1 1 0 9.94 8.608 3.35 0 0 0
556 1 1 0 12.78 8.608 3.35 0 0 0
557 1 1 0 14.91 7.379 3.35 0 0 0
558 1 1 0 16.33 7.379 3.35 0 0 0
559 1 1 0 14.2 8.608 3.35 0 0 0
908 1 2 1.85204 11.37984507005343 1.1903967725780116 6.619779041022136 0 0 0
911 1 2 1.85204 12.765861003356477 1.1472684035907863 6.691181599808642 0 0 0
912 1 2 1.85204 15.60365954752866 1.1191586745299962 6.779959148853511 0 0 0
937 1 2 1.85204 9.247739013995442 2.378327220230551 6.682449253827623 0 0 0
938 1 2 1.85204 10.660371370680215 2.4080434585389066 6.737692813715853 0 0 0
940 1 2 1.85204 11.306763832861469 3.665999894372404 6.693974375246447 0 0 0
941 1 2 1.85204 13.460105696198708 2.406929011316984 6.765947018640293 0 0 0
942 1 2 1.85204 14.936646681377024 2.3893560539979415 6.7756320690165746 0 0 0
943 1 2 1.85204 12.753722823042436 3.6460861641530906 6.719202545173239 0 0 0
944 1 2 1.85204 15.645191841277981 3.622524553215748 6.767539802698703 0 0 0
969 1 2 1.85204 9.285585681956773 4.817872837413993 6.80059077273337 0 0 0
970 1 2 1.85204 10.6770431515237 4.903264144916441 6.728914575877092 0 0 0
972 1 2 1.85204 11.404572798955341 6.0933668665932315 6.767851133236452 0 0 0
973 1 2 1.85204 13.474683535822322 4.8320472160191805 6.776763983564336 0 0 0
974 1 2 1.85204 14.916571276889943 4.869072920578939 6.759080066009304 0 0 0
975 1 2 1.85204 12.775272085819013 6.110333537082076 6.734101643130869 0 0 0
976 1 2 1.85204 15.700487896884123 6.03225434263029 6.787723993776494 0 0 0
1001 1 2 1.85204 9.265164162226997 7.285590402130538 6.866087104419186 0 0 0
1002 1 2 1.85204 10.699269300759875 7.326524980373576 6.746531777303868 0 0 0
1005 1 2 1.85204 13.537278535912497 7.307286939778969 6.735864611957373 0 0 0
1006 1 2 1.85204 14.926306965979062 7.307301775295604 6.809809777661239 0 0 0
1355 1 2 1.85204 9.913758263451628 1.1665847641803537 10.042146857297553 0 0 0
1356 1 2 1.85204 12.748043103507015 1.121715071434161 10.007472741754803 0 0 0
1359 1 2 1.85204 14.185413719929835 1.1773159708311047 9.998494589783858 0 0 0
1385 1 2 1.85204 10.619803924071306 2.3755743905901157 10.094389351529713 0 0 0
1386 1 2 1.85204 12.014859743277281 2.3336777887652658 10.075471497152092 0 0 0
1387 1 2 1.85204 9.932417477854623 3.612143998804303 10.18016862777819 0 0 0
1388 1 2 1.85204 12.759291695516382 3.613356633198724 10.126646422396234 0 0 0
1389 1 2 1.85204 14.891610778726552 2.3974821617828623 10.005079862931819 0 0 0
1391 1 2 1.85204 14.153541644362031 3.5999671953489676 9.962102227369082 0 0 0
1417 1 2 1.85204 10.62735494316489 4.865566835659256 10.148461078020468 0 0 0
1418 1 2 1.85204 12.049117272494724 4.8452414851457615 10.107248850899682 0 0 0
1419 1 2 1.85204 9.90995332288084 6.043035933516369 10.157103702499514 0 0 0
1420 1 2 1.85204 12.800532420709066 6.089408078768408 10.06989940337068 0 0 0
1421 1 2 1.85204 14.888689142848165 4.823588657907876 9.994161072665227 0 0 0
1423 1 2 1.85204 14.194548253392728 6.10595992189527 10.081990108348164 0 0 0
1449 1 2 1.85204 10.609918205464954 7.332809656995608 10.05270920650524 0 0 0
1450 1 2 1.85204 12.061014554974482 7.294328527284766 9.967159345079212 0 0 0
1453 1 2 1.85204 14.935860170324096 7.260113201176183 10.120737343413653 0 0 0
1804 1 2 1.85204 11.44145210628115 1.3207155775610657 13.546882247968211 0 0 0
1807 1 2 1.85204 12.866095637409376 1.3758478096130353 13.50092955182494 0 0 0
1808 1 2 1.85204 15.716785429629665 1.390139726565472 13.41708162059986 0 0 0
1834 1 2 1.85204 10.719808613322114 2.6091802499903483 13.634250903105023 0 0 0
1836 1 2 1.85204 11.45675804151453 3.83492496733544 13.489466521856645 0 0 0
1837 1 2 1.85204 13.59365769098698 2.6511208410742544 13.280846594534996 0 0 0
1838 1 2 1.85204 15.012397295236521 2.6420551615233774 13.350221077361125 0 0 0
1839 1 2 1.85204 12.821888740709825 3.8612875045375006 13.328709154051822 0 0 0
1840 1 2 1.85204 15.714354327822162 3.8782491558085836 13.357038715935605 0 0 0
1866 1 2 1.85204 10.742024277377553 5.038611373074465 13.570644673994243 0 0 0
1868 1 2 1.85204 11.517592883093169 6.277377564897899 13.635077145722555 0 0 0
1869 1 2 1.85204 13.58938486676557 5.0884922870797755 13.381005465208188 0 0 0
1870 1 2 1.85204 15.005331325009223 5.10248010712663 13.431318395113635 0 0 0
1871 1 2 1.85204 12.90083439655222 6.310377493938469 13.478437220631456 0 0 0
1872 1 2 1.85204 15.683564576025871 6.311719051186143 13.400907135447142 0 0 0
1898 1 2 1.85204 10.774744434169937 7.515062491169542 13.690060683532261 0 0 0
1901 1 2 1.85204 13.598929034722854 7.529314738734826 13.435327980121382 0 0 0
1902 1 2 1.85204 15.040083749977725 7.5468693970922125 13.389801041999148 0 0 0
5213 1 12 -1.85204 11.38230016863962 1.1939364322443826 6.617567465036208 0 0 0
5216 1 12 -1.85204 12.767564646294238 1.143268790508073 6.693355385487359 0 0 0
5217 1 12 -1.85204 15.603413598605588 1.1160157575422838 6.7772678564141415 0 0 0
5242 1 12 -1.85204 9.250453678857017 2.380451691705818 6.68013206062365 0 0 0
5243 1 12 -1.85204 10.662955963247368 2.407110816255406 6.739308876158049 0 0 0
5245 1 12 -1.85204 11.30584432094609 3.664836090840037 6.691688292167806 0 0 0
5246 1 12 -1.85204 13.458473355853096 2.4077696901232644 6.764439516184225 0 0 0
5247 1 12 -1.85204 14.938245689586232 2.388684074506333 6.777362387857217 0 0 0
5248 1 12 -1.85204 12.753284520626458 3.6499182065715585 6.720515627171972 0 0 0
5249 1 12 -1.85204 15.647459384777418 3.6217753556808066 6.768230703947465 0 0 0
5274 1 12 -1.85204 9.283335586815383 4.815089685483891 6.800839265030702 0 0 0
5275 1 12 -1.85204 10.676707463048421 4.901758598970216 6.729169165373542 0 0 0
5277 1 12 -1.85204 11.40691262344225 6.0927046403242695 6.766193355532256 0 0 0
5278 1 12 -1.85204 13.474833848791471 4.827734166605754 6.77810953394877 0 0 0
5279 1 12 -1.85204 14.916390219264219 4.869050069722847 6.75813918263049 0 0 0
5280 1 12 -1.85204 12.77183224275684 6.112230346882536 6.7339126175172925 0 0 0
5281 1 12 -1.85204 15.704685048447615 6.029951838302129 6.7899683185333295 0 0 0
5306 1 12 -1.85204 9.262977859052835 7.284795920142646 6.868018645068185 0 0 0
5307 1 12 -1.85204 10.7006773626499 7.326020176143729 6.744704983314663 0 0 0
5310 1 12 -1.85204 13.537124116975654 7.304236559740528 6.7344069196709215 0 0 0
5311 1 12 -1.85204 14.923068274222945 7.308583263526578 6.8100284492819885 0 0 0
5660 1 12 -1.85204 9.913634215902421 1.166789121269009 10.04434531971287 0 0 0
5661 1 12 -1.85204 12.747542907105426 1.119789174417784 10.006541724075698 0 0 0
5664 1 12 -1.85204 14.185386103115636 1.1793890764278088 10.000232596081052 0 0 0
5690 1 12 -1.85204 10.620617994254365 2.3747484835653507 10.095714940144214 0 0 0
5691 1 12 -1.85204 12.016097187054987 2.3316620811345428 10.074411922562975 0 0 0
5692 1 12 -1.85204 9.936660770521291 3.6085674735657998 10.177832577691321 0 0 0
5693 1 12 -1.85204 12.762533468494965 3.6110539433931117 10.126436973729655 0 0 0
5694 1 12 -1.85204 14.892044250565258 2.394889955196913 10.008391238494921 0 0 0
5696 1 12 -1.85204 14.15537618227223 3.5977301098347527 9.958701209391457 0 0 0
5722 1 12 -1.85204 10.628354799912197 4.869617006150478 10.146585836018644 0 0 0