
    -----------------------------------------------------------------------
          Psi4: An Open-Source Ab Initio Electronic Structure Package
                               Psi4 1.9 release

                         Git: Rev {} zzzzzzz 


    D. G. A. Smith, L. A. Burns, A. C. Simmonett, R. M. Parrish,
    M. C. Schieber, R. Galvelis, P. Kraus, H. Kruse, R. Di Remigio,
    A. Alenaizan, A. M. James, S. Lehtola, J. P. Misiewicz, M. Scheurer,
    R. A. Shaw, J. B. Schriber, Y. Xie, Z. L. Glick, D. A. Sirianni,
    J. S. O'Brien, J. M. Waldrop, A. Kumar, E. G. Hohenstein,
    B. P. Pritchard, B. R. Brooks, H. F. Schaefer III, A. Yu. Sokolov,
    K. Patkowski, A. E. DePrince III, U. Bozkaya, R. A. King,
    F. A. Evangelista, J. M. Turney, T. D. Crawford, C. D. Sherrill,
    J. Chem. Phys. 152(18) 184108 (2020). https://doi.org/10.1063/5.0006002

                            Additional Code Authors
    E. T. Seidl, C. L. Janssen, E. F. Valeev, M. L. Leininger,
    J. F. Gonthier, R. M. Richard, H. R. McAlexander, M. Saitow, X. Wang,
    P. Verma, M. H. Lechner, A. Jiang, S. Behnle, A. G. Heide,
    M. F. Herbst, and D. L. Poole

             Previous Authors, Complete List of Code Contributors,
                       and Citations for Specific Modules
    https://github.com/psi4/psi4/blob/master/codemeta.json
    https://github.com/psi4/psi4/graphs/contributors
    http://psicode.org/psi4manual/master/introduction.html#citing-psifour

    -----------------------------------------------------------------------


    Psi4 started on: Saturday, 27 January 2024 12:14AM

    Process ID: 383996
    Host:       n2cn0565
    PSIDATADIR: /opt/software/pc2/EB-SW/software/PSI4/1.9-foss-2022a/share/psi4
    Memory:     500.0 MiB
    Threads:    16
    
  ==> Input File <==

--------------------------------------------------------------------------
memory 64 GB # how much memory is available ! Depends on the nodes/cores !

molecule dimer {
# monomer A
+1 1    # Charge and multiplicity
C  0.680067 1.417258 -8.015929
C -0.680504 1.419286 -8.015545
N -1.085635 1.420284 -6.697221
C  0.000108 1.423560 -5.915820
C -2.477365 1.469690 -6.229242
N  1.085222 1.420284 -6.697221
H  1.385146 1.409430 -8.833368
H -1.385302 1.419096 -8.833214
H -0.000009 1.425307 -4.834731
C  2.478117 1.403392 -6.232123
H  2.490592 1.430737 -5.141870
H  2.967028 0.489946 -6.579299
H  3.001428 2.278875 -6.623595
H -2.857359 2.491761 -6.309201
H -3.082679 0.799606 -6.842306
H -2.518128 1.142706 -5.189294
--
# monomer B
0 1     # Charge and multiplicity
C   -3.66844126402057      7.80375217008252      0.00190004133558
C   -4.84759871934653      7.13124183134024     -0.00046653359696
C   -4.89495929917518      5.69633040353158     -0.00103944469517
C   -3.65374067877320      4.98073034095895      0.00662099703436
C   -2.40942512149445      7.11398103667468      0.00209438359570
C   -2.42547734410473      5.68112195090346     -0.00491050527438
C   -1.19474401643570      7.78614419430947      0.00356656413763
C   0.03795902893699      7.09942164575698      0.00139585983271
C   0.03033258741920      5.66948955970466     -0.00408752508301
C   -1.20098450790502      4.96927034791531      0.00488220885047
C   1.27795782581485      7.77285944319479      0.00277170839332
C   2.48535808472416      7.08769688523756      0.00049722048857
C   2.48612868491717      5.65477081024076     -0.00644052849921
C   1.25408291964399      4.95607811366431      0.00518741308898
C   3.75171459140595      7.76391215098033      0.00062407186893
C   4.92356605618520      7.07878077698995     -0.00143240883900
C   4.95560727132542      5.64344746336949     -0.00159282164606
C   3.70680153420475      4.94121020833308      0.00349873852374
H   -3.65852113775815      8.89082741913536      0.00358502958574
H   -1.18921332975660      8.87412108735996      0.00753844057883
H   1.28429423888630      8.86083343548850      0.00693053253426
H   3.75354208679975      8.85103527897216      0.00214659618464
H   5.86995870320703      7.61379483465560     -0.00235777588134
H   -5.78823170750226      7.67630221293400     -0.00202638095293
C   -6.09197395869619      4.99326001364347     -0.00291168518608
C   -6.12866148031747      3.58258016879823     -0.00171050815740
C   -3.66457974004527      3.56418217974434     -0.00463560277484
C   -4.89429820469869      2.86108077590057      0.00453338221034
C   -2.43733499489796      2.84761165708481      0.00719617576166
C   -1.20922785759670      3.54788693497833     -0.00648285103018
C   1.24714157216223      3.53468075142962     -0.00729145743546
C   0.01517603956900      2.83311183930540      0.00439272578912
C   2.46764517244071      2.82128997725533      0.00449278391269
C   3.70254947457969      3.52466015442405     -0.00899517692985
C   6.14498038638375      4.92757236613191     -0.00282626685777
C   6.16658835886151      3.51658447594213     -0.00065971342101
C   4.92460995845939      2.80840792535402      0.00587903281610
H   7.08990550964105      5.46688776622306     -0.00658814770723
H   -7.03104175110130      5.54268795285765     -0.00714490013730
C   -7.33969804112295      2.85841153457957     -0.00333767559888
C   -7.36488195805880      1.47032337158330     -0.00157213747140
C   -4.90350460894690      1.44442681216000     -0.00628840166334
C   -6.13225715261081      0.73993935705394      0.00600164231964
C   -3.67687480051673      0.72669714267312      0.00433931473643
C   -2.44565658606518      1.42964113326212     -0.00597039546461
C   -1.22360068130162      0.71532450163492      0.00545886906656
C   0.00763786931376      1.41738314923765      0.00392452278437
C   1.23121980774686      0.70211669058719     -0.01490206287210
C   2.46082110053113      1.40329203612573      0.00460244601878
C   3.68443025419614      0.68719842821222      0.00377365974158
C   4.91870890153864      1.39173456118907     -0.00862816189375
C   7.36980207796101      2.77948220318441     -0.00242013321349
C   7.38016266612146      1.39121750785509     -0.00087345036788
C   6.13979953912259      0.67411862320065      0.00545489144369
H   -8.27919079934664      3.40711804112415     -0.00763522772059
H   8.31511347147953      3.31811809662368     -0.00663070901292
C   -8.59175593758115      0.72483255304480     -0.00123170985383
C   -8.59902460370342     -0.63263980622873      0.00089141472904
C   -6.13981313911873     -0.67413663715361     -0.00609792660607
C   -7.38018411213749     -1.39126618958160      0.00131813493501
C   -4.91868448025621     -1.39175501803000      0.00624257154343
C   -3.68443829568458     -0.68723731573599     -0.00478966852105
C   -2.46081704024768     -1.40334517882457      0.00575341766833
C   -1.23116201232071     -0.70217386488055     -0.00636696112346
C   -0.00756962538737     -1.41741884941102      0.00108956317991
C   1.22364771588843     -0.71527537726392      0.01109518512883
C   2.44567064933149     -1.42964328900682     -0.00065482763106
C   3.67686670284649     -0.72670743155550     -0.00479541202602
C   6.13224884641929     -0.73997883984993     -0.00632338623858
C   4.90351914550401     -1.44445752054090      0.00751768830159
C   8.59901484869081      0.63260386666793     -0.00101133422380
C   8.59174548810050     -0.72485086719319      0.00072504603735
C   7.36486276438985     -1.47033266560598      0.00049486934466
H   -9.52830597181814      1.27684744919284     -0.00270163681798
H   9.54141097460619      1.17457248844457     -0.00206336648518
C   -7.36983790976868     -2.77954514593389      0.00312634335708
C   -4.92459910905015     -2.80843725734101     -0.00460528907921
C   -6.16662249566744     -3.51665219282533      0.00169655107992
C   -3.70251035970491     -3.52468154912026      0.00571878010666
C   -2.46764698511392     -2.82132596280400     -0.00632585824990
C   -0.01513347410770     -2.83314164539971     -0.00604426974092
C   -1.24712184122656     -3.53473217556300      0.00551968366725
C   1.20924506964357     -3.54791467864352      0.00805871345849
C   2.43733602215464     -2.84764173817541     -0.00608104485234
C   4.89430234377080     -2.86112296828604     -0.00526030478103
C   3.66461525504104     -3.56421984553201      0.00761911515957
C   6.12863901474565     -3.58258405771778      0.00096495711699
C   7.33967266469532     -2.85841330737039      0.00248018319869
H   -9.54144911125902     -1.17456346666430      0.00226083090216
H   9.52826186807155     -1.27691907390448      0.00197485379837
H   -8.31516504384864     -3.31814985321231      0.00729857188773
H   8.27915514249207     -3.40714078989363      0.00681973918158
C   -6.14499418870218     -4.92764727278338      0.00302254913999
C   -3.70678334799751     -4.94126171411716     -0.00679841894792
C   -4.95559005800169     -5.64349397349412      0.00116871569699
C   -2.48612132622665     -5.65478557440947      0.00614125209662
C   -1.25405833548005     -4.95612205000132     -0.00503435388927
C   1.20101257386816     -4.96928038819302     -0.00385322963129
C   -0.03033667441341     -5.66952030313900      0.00398997003238
C   3.65375010132847     -4.98074377541453     -0.00309522988330
C   2.42549269587528     -5.68117463552727      0.00628170066869
C   6.09196561781097     -4.99325796338655      0.00325918379042
C   4.89497644461045     -5.69634842095790      0.00202298796027
H   -7.08989238804069     -5.46699984223871      0.00742531082125
H   7.03105520920009     -5.54265853633254      0.00683896355417
C   -4.92354532219813     -7.07882109967734      0.00061394679214
C   -2.48534208823777     -7.08772807792913     -0.00189594564379
C   -3.75168589177895     -7.76394715763627     -0.00170126671874
C   -0.03794895698805     -7.09946487446944     -0.00168022049625
C   -1.27795610040136     -7.77290438466689     -0.00366491325785
C   2.40944432072629     -7.11402201200282     -0.00081701968533
C   1.19474993715296     -7.78618536556242     -0.00296931056689
C   4.84762105249800     -7.13126211057943      0.00168979497423
C   3.66847160587561     -7.80378799294376     -0.00065863938960
H   -5.86994035041618     -7.61383059804164      0.00215798365757
H   5.78824962538815     -7.67633218931421      0.00281691445618
H   -3.75352693944918     -8.85107156923607     -0.00353718114765
H   -1.28430440589466     -8.86087539249706     -0.00809229711623
H   1.18922157469537     -8.87416062058945     -0.00706194725726
H   3.65854661482387     -8.89086063405326     -0.00231318081200

    units angstrom      # Angstroms are the default
    no_reorient         # Geometry fixed, default
    symmetry c1         # C1 symmetry, default
}

set {
    scf_type DF         # Density fitting, faster than exact integrals
    freeze_core True    # Freeze core electrons
    basis jun-cc-pVDZ   # Jun-cc-pVDZ basis set, recommended for sSAPT0 in https://doi.org/10.1063/1.4867135
}

energy('ssapt0')        # Compute sSAPT0 energy, includes also SAPT0
--------------------------------------------------------------------------

  Memory set to  59.605 GiB by Python driver.

Scratch directory: /tmp/
   => Loading Basis Set <=

    Name: JUN-CC-PVDZ
    Role: ORBITAL
    Keyword: BASIS
    atoms 1-2, 4-5, 10, 17-34, 41-53, 56-70, 73-89, 92-104, 109-119, 122-130 entry C          line   164 file /opt/software/pc2/EB-SW/software/PSI4/1.9-foss-2022a/share/psi4/basis/jun-cc-pvdz.gbs 
    atoms 3, 6                                                               entry N          line   198 file /opt/software/pc2/EB-SW/software/PSI4/1.9-foss-2022a/share/psi4/basis/jun-cc-pvdz.gbs 
    atoms 7-9, 11-16, 35-40, 54-55, 71-72, 90-91, 105-108, 120-121, 131-136  entry H          line    36 file /opt/software/pc2/EB-SW/software/PSI4/1.9-foss-2022a/share/psi4/basis/jun-cc-pvdz.gbs 

   => Loading Basis Set <=

    Name: JUN-CC-PVDZ
    Role: ORBITAL
    Keyword: BASIS
    atoms 1-2, 4-5, 10, 17-34, 41-53, 56-70, 73-89, 92-104, 109-119, 122-130 entry C          line   164 file /opt/software/pc2/EB-SW/software/PSI4/1.9-foss-2022a/share/psi4/basis/jun-cc-pvdz.gbs 
    atoms 3, 6                                                               entry N          line   198 file /opt/software/pc2/EB-SW/software/PSI4/1.9-foss-2022a/share/psi4/basis/jun-cc-pvdz.gbs 
    atoms 7-9, 11-16, 35-40, 54-55, 71-72, 90-91, 105-108, 120-121, 131-136  entry H          line    36 file /opt/software/pc2/EB-SW/software/PSI4/1.9-foss-2022a/share/psi4/basis/jun-cc-pvdz.gbs 


  //>>>>>>>>>>>>>>>>>>>>>>>>>>>>>>>>>>>//
  //              Dimer HF             //
  //<<<<<<<<<<<<<<<<<<<<<<<<<<<<<<<<<<<//

   => Libint2 <=

    Primary   basis highest AM E, G, H:  5, 4, 3
    Auxiliary basis highest AM E, G, H:  6, 5, 4
    Onebody   basis highest AM E, G, H:  6, 5, 4
    Solid Harmonics ordering:            gaussian

*** tstart() called on n2cn0565
*** at Sat Jan 27 00:14:32 2024

   => Loading Basis Set <=

    Name: JUN-CC-PVDZ
    Role: ORBITAL
    Keyword: BASIS
    atoms 1-2, 4-5, 10, 17-34, 41-53, 56-70, 73-89, 92-104, 109-119, 122-130 entry C          line   164 file /opt/software/pc2/EB-SW/software/PSI4/1.9-foss-2022a/share/psi4/basis/jun-cc-pvdz.gbs 
    atoms 3, 6                                                               entry N          line   198 file /opt/software/pc2/EB-SW/software/PSI4/1.9-foss-2022a/share/psi4/basis/jun-cc-pvdz.gbs 
    atoms 7-9, 11-16, 35-40, 54-55, 71-72, 90-91, 105-108, 120-121, 131-136  entry H          line    36 file /opt/software/pc2/EB-SW/software/PSI4/1.9-foss-2022a/share/psi4/basis/jun-cc-pvdz.gbs 


         ---------------------------------------------------------
                                   SCF
               by Justin Turney, Rob Parrish, Andy Simmonett
                          and Daniel G. A. Smith
                              RHF Reference
                       16 Threads,  61035 MiB Core
         ---------------------------------------------------------

  ==> Geometry <==

    Molecular point group: c1
    Full point group: C1

    Geometry (in Angstrom), charge = 1, multiplicity = 1:

       Center              X                  Y                   Z               Mass       
    ------------   -----------------  -----------------  -----------------  -----------------
         C            0.680062820275     1.308604348936    -7.497487303813    12.000000000000
         C           -0.680508179725     1.310632348936    -7.497103303813    12.000000000000
         N           -1.085639179725     1.311630348936    -6.178779303813    14.003074004430
         C            0.000103820275     1.314906348936    -5.397378303813    12.000000000000
         C           -2.477369179725     1.361036348936    -5.710800303813    12.000000000000
         N            1.085217820275     1.311630348936    -6.178779303813    14.003074004430
         H            1.385141820275     1.300776348936    -8.314926303813     1.007825032230
         H           -1.385306179725     1.310442348936    -8.314772303813     1.007825032230
         H           -0.000013179725     1.316653348936    -4.316289303813     1.007825032230
         C            2.478112820275     1.294738348936    -5.713681303813    12.000000000000
         H            2.490587820275     1.322083348936    -4.623428303813     1.007825032230
         H            2.967023820275     0.381292348936    -6.060857303813     1.007825032230
         H            3.001423820275     2.170221348936    -6.105153303813     1.007825032230
         H           -2.857363179725     2.383107348936    -5.790759303813     1.007825032230
         H           -3.082683179725     0.690952348936    -6.323864303813     1.007825032230
         H           -2.518132179725     1.034052348936    -4.670852303813     1.007825032230
         C           -3.668445443746     7.695098519018     0.520341737522    12.000000000000
         C           -4.847602899072     7.022588180276     0.517975162590    12.000000000000
         C           -4.894963478901     5.587676752467     0.517402251491    12.000000000000
         C           -3.653744858499     4.872076689895     0.525062693221    12.000000000000
         C           -2.409429301220     7.005327385610     0.520536079782    12.000000000000
         C           -2.425481523830     5.572468299839     0.513531190912    12.000000000000
         C           -1.194748196161     7.677490543245     0.522008260324    12.000000000000
         C            0.037954849212     6.990767994693     0.519837556019    12.000000000000
         C            0.030328407694     5.560835908640     0.514354171104    12.000000000000
         C           -1.200988687630     4.860616696851     0.523323905037    12.000000000000
         C            1.277953646089     7.664205792130     0.521213404580    12.000000000000
         C            2.485353904999     6.979043234173     0.518938916675    12.000000000000
         C            2.486124505192     5.546117159176     0.512001167687    12.000000000000
         C            1.254078739919     4.847424462600     0.523629109276    12.000000000000
         C            3.751710411681     7.655258499916     0.519065768056    12.000000000000
         C            4.923561876460     6.970127125926     0.517009287348    12.000000000000
         C            4.955603091600     5.534793812305     0.516848874541    12.000000000000
         C            3.706797354479     4.832556557269     0.521940434710    12.000000000000
         H           -3.658525317484     8.782173768071     0.522026725772     1.007825032230
         H           -1.189217509482     8.765467436296     0.525980136765     1.007825032230
         H            1.284290059161     8.752179784424     0.525372228721     1.007825032230
         H            3.753537907074     8.742381627908     0.520588292371     1.007825032230
         H            5.869954523482     7.505141183591     0.516083920305     1.007825032230
         H           -5.788235887228     7.567648561870     0.516415315234     1.007825032230
         C           -6.091978138422     4.884606362579     0.515530011001    12.000000000000
         C           -6.128665660043     3.473926517734     0.516731188029    12.000000000000
         C           -3.664583919771     3.455528528680     0.513806093412    12.000000000000
         C           -4.894302384424     2.752427124836     0.522975078397    12.000000000000
         C           -2.437339174623     2.738958006020     0.525637871948    12.000000000000
         C           -1.209232037322     3.439233283914     0.511958845156    12.000000000000
         C            1.247137392437     3.426027100365     0.511150238751    12.000000000000
         C            0.015171859844     2.724458188241     0.522834421976    12.000000000000
         C            2.467640992715     2.712636326191     0.522934480099    12.000000000000
         C            3.702545294854     3.416006503360     0.509446519257    12.000000000000
         C            6.144976206658     4.818918715067     0.515615429329    12.000000000000
         C            6.166584179136     3.407930824878     0.517781982766    12.000000000000
         C            4.924605778734     2.699754274290     0.524320729003    12.000000000000
         H            7.089901329916     5.358234115159     0.511853548479     1.007825032230
         H           -7.031045930827     5.434034301793     0.511296796049     1.007825032230
         C           -7.339702220848     2.749757883515     0.515104020588    12.000000000000
         C           -7.364886137784     1.361669720519     0.516869558715    12.000000000000
         C           -4.903508788672     1.335773161096     0.512153294523    12.000000000000
         C           -6.132261332336     0.631285705989     0.524443338506    12.000000000000
         C           -3.676878980242     0.618043491609     0.522781010923    12.000000000000
         C           -2.445660765791     1.320987482198     0.512471300722    12.000000000000
         C           -1.223604861027     0.606670850570     0.523900565253    12.000000000000
         C            0.007633689588     1.308729498173     0.522366218971    12.000000000000
         C            1.231215628021     0.593463039523     0.503539633314    12.000000000000
         C            2.460816920806     1.294638385061     0.523044142205    12.000000000000
         C            3.684426074471     0.578544777148     0.522215355928    12.000000000000
         C            4.918704721813     1.283080910125     0.509813534293    12.000000000000
         C            7.369797898236     2.670828552120     0.516021562973    12.000000000000
         C            7.380158486396     1.282563856791     0.517568245819    12.000000000000
         C            6.139795359397     0.565464972136     0.523896587630    12.000000000000
         H           -8.279194979072     3.298464390060     0.510806468466     1.007825032230
         H            8.315109291754     3.209464445559     0.511810987174     1.007825032230
         C           -8.591760117307     0.616178901980     0.517209986333    12.000000000000
         C           -8.599028783429    -0.741293457293     0.519333110916    12.000000000000
         C           -6.139817318844    -0.782790288218     0.512343769581    12.000000000000
         C           -7.380188291863    -1.499919840646     0.519759831122    12.000000000000
         C           -4.918688659982    -1.500408669094     0.524684267730    12.000000000000
         C           -3.684442475410    -0.795890966800     0.513652027666    12.000000000000
         C           -2.460821219973    -1.511998829889     0.524195113855    12.000000000000
         C           -1.231166192046    -0.810827515945     0.512074735063    12.000000000000
         C           -0.007573805113    -1.526072500475     0.519531259367    12.000000000000
         C            1.223643536163    -0.823929028328     0.529536881315    12.000000000000
         C            2.445666469606    -1.538296940071     0.517786868556    12.000000000000
         C            3.676862523121    -0.835361082620     0.513646284161    12.000000000000
         C            6.132244666694    -0.848632490914     0.512118309948    12.000000000000
         C            4.903514965779    -1.553111171605     0.525959384488    12.000000000000
         C            8.599010668965     0.523950215603     0.517430361963    12.000000000000
         C            8.591741308375    -0.833504518258     0.519166742224    12.000000000000
         C            7.364858584664    -1.578986316670     0.518936565531    12.000000000000
         H           -9.528310151544     1.168193798128     0.515740059369     1.007825032230
         H            9.541406794881     1.065918837380     0.516378329701     1.007825032230
         C           -7.369842089494    -2.888198796998     0.521568039544    12.000000000000
         C           -4.924603288776    -2.917090908405     0.513836407107    12.000000000000
         C           -6.166626675393    -3.625305843890     0.520138247267    12.000000000000
         C           -3.702514539430    -3.633335200185     0.524160476293    12.000000000000
         C           -2.467651164839    -2.929979613868     0.512115837937    12.000000000000
         C           -0.015137653833    -2.941795296464     0.512397426446    12.000000000000
         C           -1.247126020952    -3.643385826627     0.523961379854    12.000000000000
         C            1.209240889918    -3.656568329708     0.526500409645    12.000000000000
         C            2.437331842429    -2.956295389240     0.512360651334    12.000000000000
         C            4.894298164045    -2.969776619350     0.513181391406    12.000000000000
         C            3.664611075316    -3.672873496596     0.526060811346    12.000000000000
         C            6.128634835020    -3.691237708782     0.519406653304    12.000000000000
         C            7.339668484970    -2.967066958435     0.520921879385    12.000000000000
         H           -9.541453290984    -1.283217117729     0.520702527089     1.007825032230
         H            9.528257688346    -1.385572724969     0.520416549985     1.007825032230
         H           -8.315169223574    -3.426803504277     0.525740268074     1.007825032230
         H            8.279150962767    -3.515794440958     0.525261435368     1.007825032230
         C           -6.144998368428    -5.036300923848     0.521464245327    12.000000000000
         C           -3.706787527723    -5.049915365182     0.511643277239    12.000000000000
         C           -4.955594237727    -5.752147624559     0.519610411884    12.000000000000
         C           -2.486125505952    -5.763439225474     0.524582948283    12.000000000000
         C           -1.254062515205    -5.064775701066     0.513407342297    12.000000000000
         C            1.201008394143    -5.077934039257     0.514588466555    12.000000000000
         C           -0.030340854139    -5.778173954203     0.522431666219    12.000000000000
         C            3.653745921603    -5.089397426479     0.515346466303    12.000000000000
         C            2.425488516150    -5.789828286592     0.524723396855    12.000000000000
         C            6.091961438086    -5.101911614451     0.521700879977    12.000000000000
         C            4.894972264885    -5.805002072022     0.520464684147    12.000000000000
         H           -7.089896567766    -5.575653493303     0.525867007008     1.007825032230
         H            7.031051029475    -5.651312187397     0.525280659741     1.007825032230
         C           -4.923549501924    -7.187474750742     0.519055642979    12.000000000000
         C           -2.485346267963    -7.196381728994     0.516545750543    12.000000000000
         C           -3.751690071504    -7.872600808701     0.516740429468    12.000000000000
         C           -0.037953136713    -7.208118525534     0.516761475690    12.000000000000
         C           -1.277960280127    -7.881558035731     0.514776782929    12.000000000000
         C            2.409440141001    -7.222675663067     0.517624676501    12.000000000000
         C            1.194745757428    -7.894839016627     0.515472385620    12.000000000000
         C            4.847616872773    -7.239915761644     0.520131491161    12.000000000000
         C            3.668467426150    -7.912441644008     0.517783056797    12.000000000000
         H           -5.869944530142    -7.722484249106     0.520599679844     1.007825032230
         H            5.788245445663    -7.784985840379     0.521258610643     1.007825032230
         H           -3.753531119175    -8.959725220301     0.514904515039     1.007825032230
         H           -1.284308585620    -8.969529043562     0.510349399070     1.007825032230
         H            1.189217394970    -8.982814271654     0.511379748929     1.007825032230
         H            3.658542435098    -8.999514285118     0.516128515375     1.007825032230

  Running in c1 symmetry.

  Rotational constants: A =      0.00060  B =      0.00060  C =      0.00035 [cm^-1]
  Rotational constants: A =     17.85613  B =     17.84529  C =     10.47117 [MHz]
  Nuclear repulsion = 17753.968097610806581

  Charge       = 1
  Multiplicity = 1
  Electrons    = 652
  Nalpha       = 326
  Nbeta        = 326

  ==> Algorithm <==

  SCF Algorithm Type is DF.
  DIIS enabled.
  MOM disabled.
  Fractional occupation disabled.
  Guess Type is SAD.
  Energy threshold   = 1.00e-08
  Density threshold  = 1.00e-08
  Integral threshold = 1.00e-12

  ==> Primary Basis <==

  Basis Set: JUN-CC-PVDZ
    Blend: JUN-CC-PVDZ
    Number of shells: 923
    Number of basis functions: 2019
    Number of Cartesian functions: 2122
    Spherical Harmonics?: true
    Max angular momentum: 2

   => Loading Basis Set <=

    Name: (JUN-CC-PVDZ AUX)
    Role: JKFIT
    Keyword: DF_BASIS_SCF
    atoms 1-2, 4-5, 10, 17-34, 41-53, 56-70, 73-89, 92-104, 109-119, 122-130 entry C          line   146 file /opt/software/pc2/EB-SW/software/PSI4/1.9-foss-2022a/share/psi4/basis/jun-cc-pvdz-jkfit.gbs 
    atoms 3, 6                                                               entry N          line   202 file /opt/software/pc2/EB-SW/software/PSI4/1.9-foss-2022a/share/psi4/basis/jun-cc-pvdz-jkfit.gbs 
    atoms 7-9, 11-16, 35-40, 54-55, 71-72, 90-91, 105-108, 120-121, 131-136  entry H          line    70 file /opt/software/pc2/EB-SW/software/PSI4/1.9-foss-2022a/share/psi4/basis/jun-cc-pvdz-jkfit.gbs 

  ==> Integral Setup <==

  ==> DiskDFJK: Density-Fitted J/K Matrices <==

    J tasked:                  Yes
    K tasked:                  Yes
    wK tasked:                  No
    OpenMP threads:             16
    Integrals threads:          16
    Memory [MiB]:            45776
    Algorithm:                Disk
    Integral Cache:           SAVE
    Schwarz Cutoff:          1E-12
    Fitting Condition:       1E-10

   => Auxiliary Basis Set <=

  Basis Set: (JUN-CC-PVDZ AUX)
    Blend: JUN-CC-PVDZ-JKFIT
    Number of shells: 3078
    Number of basis functions: 8896
    Number of Cartesian functions: 10198
    Spherical Harmonics?: true
    Max angular momentum: 3

  Minimum eigenvalue in the overlap matrix is 8.9740107141E-11.
  Reciprocal condition number of the overlap matrix is 3.9298677664E-12.
    Using canonical orthogonalization.
  Overall, 38 of 2019 possible MOs eliminated.


  ==> Pre-Iterations <==

  SCF Guess: Superposition of Atomic Densities via on-the-fly atomic UHF (no occupation information).

   -------------------------
    Irrep   Nso     Nmo    
   -------------------------
     A       2019    1981 
   -------------------------
    Total    2019    1981
   -------------------------

  ==> Iterations <==

                           Total Energy        Delta E     RMS |[F,P]|

   @DF-RHF iter SAD: -3967.13549645419243   -3.96714e+03   0.00000e+00 
   @DF-RHF iter   1: -3952.10502952830575    1.50305e+01   7.15740e-04 DIIS/ADIIS
   @DF-RHF iter   2: -3953.49695356770462   -1.39192e+00   2.33852e-04 DIIS/ADIIS
   @DF-RHF iter   3: -3953.62011976934991   -1.23166e-01   1.02012e-04 DIIS/ADIIS
   @DF-RHF iter   4: -3953.64301437672566   -2.28946e-02   4.30502e-05 DIIS
   @DF-RHF iter   5: -3953.64771780633964   -4.70343e-03   1.05888e-05 DIIS
   @DF-RHF iter   6: -3953.64817183422383   -4.54028e-04   4.61482e-06 DIIS
   @DF-RHF iter   7: -3953.64835752203817   -1.85688e-04   2.20871e-06 DIIS
   @DF-RHF iter   8: -3953.64841974364890   -6.22216e-05   1.10240e-06 DIIS
   @DF-RHF iter   9: -3953.64843716861833   -1.74250e-05   3.53223e-07 DIIS
   @DF-RHF iter  10: -3953.64843834221074   -1.17359e-06   1.44386e-07 DIIS
   @DF-RHF iter  11: -3953.64843849065892   -1.48448e-07   5.87890e-08 DIIS
   @DF-RHF iter  12: -3953.64843852254262   -3.18837e-08   2.91525e-08 DIIS
   @DF-RHF iter  13: -3953.64843852910872   -6.56610e-09   9.41815e-09 DIIS
  Energy and wave function converged.


  ==> Post-Iterations <==

    Orbital Energies [Eh]
    ---------------------

    Doubly Occupied:                                                      

       1A    -15.818355     2A    -15.817840     3A    -11.512949  
       4A    -11.445112     5A    -11.443556     6A    -11.432980  
       7A    -11.432887     8A    -11.323529     9A    -11.322682  
      10A    -11.322573    11A    -11.322171    12A    -11.321831  
      13A    -11.321748    14A    -11.321298    15A    -11.321245  
      16A    -11.321024    17A    -11.321005    18A    -11.320444  
      19A    -11.320438    20A    -11.320296    21A    -11.320132  
      22A    -11.319974    23A    -11.319672    24A    -11.319647  
      25A    -11.319126    26A    -11.318865    27A    -11.318826  
      28A    -11.318805    29A    -11.318690    30A    -11.318413  
      31A    -11.318408    32A    -11.318179    33A    -11.317970  
      34A    -11.317557    35A    -11.317547    36A    -11.317188  
      37A    -11.317072    38A    -11.317023    39A    -11.316540  
      40A    -11.316524    41A    -11.316448    42A    -11.316433  
      43A    -11.316387    44A    -11.316360    45A    -11.315940  
      46A    -11.315921    47A    -11.315721    48A    -11.315351  
      49A    -11.315336    50A    -11.315336    51A    -11.315319  
      52A    -11.315255    53A    -11.315227    54A    -11.315028  
      55A    -11.315006    56A    -11.314860    57A    -11.314846  
      58A    -11.314813    59A    -11.314627    60A    -11.314467  
      61A    -11.314441    62A    -11.314270    63A    -11.314244  
      64A    -11.313872    65A    -11.313844    66A    -11.313202  
      67A    -11.313163    68A    -11.313119    69A    -11.313103  
      70A    -11.313075    71A    -11.312836    72A    -11.312818  
      73A    -11.312504    74A    -11.312483    75A    -11.311924  
      76A    -11.311914    77A    -11.311716    78A    -11.311374  
      79A    -11.311361    80A    -11.308047    81A    -11.307969  
      82A    -11.307884    83A    -11.307856    84A    -11.306919  
      85A    -11.306907    86A    -11.306888    87A    -11.306865  
      88A    -11.306181    89A    -11.306164    90A    -11.305443  
      91A    -11.305412    92A    -11.305344    93A    -11.305310  
      94A    -11.304918    95A    -11.304908    96A    -11.304618  
      97A    -11.304536    98A    -11.303813    99A    -11.303779  
     100A    -11.303170   101A    -11.303164   102A    -11.301683  
     103A    -11.301679   104A     -1.562210   105A     -1.417666  
     106A     -1.311450   107A     -1.295005   108A     -1.294777  
     109A     -1.275402   110A     -1.275395   111A     -1.271506  
     112A     -1.255133   113A     -1.250153   114A     -1.243950  
     115A     -1.243798   116A     -1.227615   117A     -1.227611  
     118A     -1.222976   119A     -1.211037   120A     -1.211011  
     121A     -1.208282   122A     -1.198299   123A     -1.198282  
     124A     -1.183172   125A     -1.172968   126A     -1.170021  
     127A     -1.167938   128A     -1.167778   129A     -1.166635  
     130A     -1.164922   131A     -1.142901   132A     -1.142860  
     133A     -1.130324   134A     -1.130315   135A     -1.122568  
     136A     -1.122518   137A     -1.120236   138A     -1.102477  
     139A     -1.100949   140A     -1.100921   141A     -1.094636  
     142A     -1.092074   143A     -1.092070   144A     -1.080656  
     145A     -1.077539   146A     -1.077477   147A     -1.061554  
     148A     -1.060870   149A     -1.057803   150A     -1.055274  
     151A     -1.055260   152A     -1.044073   153A     -1.025486  
     154A     -1.025456   155A     -1.009475   156A     -1.009463  
     157A     -1.006873   158A     -0.980727   159A     -0.961493  
     160A     -0.961394   161A     -0.960552   162A     -0.958439  
     163A     -0.958404   164A     -0.948142   165A     -0.948099  
     166A     -0.945771   167A     -0.945432   168A     -0.943994  
     169A     -0.925530   170A     -0.921297   171A     -0.905342  
     172A     -0.902991   173A     -0.902796   174A     -0.900813  
     175A     -0.900609   176A     -0.897612   177A     -0.888500  
     178A     -0.888474   179A     -0.881006   180A     -0.880998  
     181A     -0.839542   182A     -0.839438   183A     -0.837491  
     184A     -0.837042   185A     -0.836814   186A     -0.836190  
     187A     -0.835850   188A     -0.834412   189A     -0.821326  
     190A     -0.816241   191A     -0.805182   192A     -0.800729  
     193A     -0.796421   194A     -0.786628   195A     -0.781301  
     196A     -0.781165   197A     -0.779335   198A     -0.778755  
     199A     -0.778666   200A     -0.774328   201A     -0.773459  
     202A     -0.769950   203A     -0.768487   204A     -0.768479  
     205A     -0.766583   206A     -0.753034   207A     -0.753032  
     208A     -0.740969   209A     -0.739493   210A     -0.739477  
     211A     -0.736018   212A     -0.736010   213A     -0.732819  
     214A     -0.712907   215A     -0.709088   216A     -0.706892  
     217A     -0.704963   218A     -0.704917   219A     -0.704190  
     220A     -0.704148   221A     -0.702831   222A     -0.700909  
     223A     -0.695566   224A     -0.695485   225A     -0.693750  
     226A     -0.692699   227A     -0.690249   228A     -0.690237  
     229A     -0.683088   230A     -0.675811   231A     -0.668308  
     232A     -0.668296   233A     -0.662552   234A     -0.662515  
     235A     -0.655382   236A     -0.655090   237A     -0.653558  
     238A     -0.653273   239A     -0.653130   240A     -0.652649  
     241A     -0.648811   242A     -0.648662   243A     -0.648613  
     244A     -0.648377   245A     -0.645410   246A     -0.645359  
     247A     -0.642598   248A     -0.630665   249A     -0.630662  
     250A     -0.630147   251A     -0.630138   252A     -0.627067  
     253A     -0.625981   254A     -0.622973   255A     -0.622893  
     256A     -0.620254   257A     -0.620129   258A     -0.613162  
     259A     -0.612887   260A     -0.612865   261A     -0.611035  
     262A     -0.608303   263A     -0.604552   264A     -0.599498  
     265A     -0.598780   266A     -0.591084   267A     -0.590899  
     268A     -0.587136   269A     -0.587022   270A     -0.582746  
     271A     -0.581422   272A     -0.581398   273A     -0.580411  
     274A     -0.571159   275A     -0.571040   276A     -0.569026  
     277A     -0.569024   278A     -0.562709   279A     -0.562652  
     280A     -0.551826   281A     -0.550463   282A     -0.550421  
     283A     -0.549314   284A     -0.549288   285A     -0.545297  
     286A     -0.534509   287A     -0.530742   288A     -0.530724  
     289A     -0.527502   290A     -0.524170   291A     -0.520656  
     292A     -0.520563   293A     -0.513402   294A     -0.508717  
     295A     -0.502155   296A     -0.502021   297A     -0.496474  
     298A     -0.496453   299A     -0.496232   300A     -0.487673  
     301A     -0.487082   302A     -0.461879   303A     -0.461827  
     304A     -0.441688   305A     -0.441632   306A     -0.439382  
     307A     -0.438678   308A     -0.438587   309A     -0.408551  
     310A     -0.408508   311A     -0.404959   312A     -0.394916  
     313A     -0.392827   314A     -0.392756   315A     -0.385671  
     316A     -0.385605   317A     -0.362558   318A     -0.357361  
     319A     -0.357331   320A     -0.354623   321A     -0.339962  
     322A     -0.308716   323A     -0.308662   324A     -0.308572  
     325A     -0.258218   326A     -0.258163  

    Virtual:                                                              

     327A     -0.065496   328A     -0.065354   329A     -0.052491  
     330A     -0.048191   331A     -0.040521   332A     -0.032963  
     333A     -0.020086   334A     -0.019985   335A     -0.018550  
     336A     -0.016128   337A     -0.014653   338A     -0.012328  
     339A     -0.008618   340A     -0.001553   341A      0.000794  
     342A      0.001451   343A      0.002937   344A      0.004752  
     345A      0.007510   346A      0.009150   347A      0.009711  
     348A      0.010384   349A      0.011667   350A      0.012068  
     351A      0.014816   352A      0.015035   353A      0.015114  
     354A      0.015198   355A      0.019146   356A      0.019458  
     357A      0.019609   358A      0.023498   359A      0.025049  
     360A      0.025100   361A      0.027408   362A      0.027442  
     363A      0.030459   364A      0.030504   365A      0.030545  
     366A      0.034201   367A      0.038421   368A      0.039225  
     369A      0.039960   370A      0.040542   371A      0.041211  
     372A      0.041807   373A      0.044927   374A      0.047724  
     375A      0.048133   376A      0.048614   377A      0.052638  
     378A      0.052852   379A      0.053679   380A      0.054190  
     381A      0.057242   382A      0.057862   383A      0.058493  
     384A      0.060736   385A      0.061230   386A      0.061804  
     387A      0.062000   388A      0.062159   389A      0.062648  
     390A      0.062812   391A      0.065223   392A      0.068645  
     393A      0.070913   394A      0.071171   395A      0.071953  
     396A      0.072912   397A      0.075439   398A      0.076317  
     399A      0.080424   400A      0.081724   401A      0.083045  
     402A      0.083816   403A      0.083979   404A      0.086548  
     405A      0.086861   406A      0.088481   407A      0.089854  
     408A      0.092150   409A      0.092938   410A      0.093150  
     411A      0.093392   412A      0.094741   413A      0.096646  
     414A      0.098649   415A      0.098927   416A      0.101161  
     417A      0.103330   418A      0.103572   419A      0.105794  
     420A      0.108403   421A      0.109520   422A      0.110276  
     423A      0.111417   424A      0.111702   425A      0.113029  
     426A      0.113841   427A      0.114448   428A      0.116545  
     429A      0.116790   430A      0.119960   431A      0.120229  
     432A      0.120592   433A      0.122852   434A      0.123368  
     435A      0.125497   436A      0.126436   437A      0.127741  
     438A      0.129282   439A      0.130011   440A      0.131860  
     441A      0.132478   442A      0.132619   443A      0.134760  
     444A      0.137748   445A      0.138150   446A      0.141028  
     447A      0.141425   448A      0.141512   449A      0.141714  
     450A      0.142953   451A      0.148556   452A      0.149548  
     453A      0.150053   454A      0.151602   455A      0.152120  
     456A      0.152715   457A      0.153318   458A      0.154073  
     459A      0.154768   460A      0.155930   461A      0.157008  
     462A      0.157664   463A      0.158635   464A      0.159008  
     465A      0.159562   466A      0.160279   467A      0.160558  
     468A      0.161107   469A      0.161955   470A      0.162674  
     471A      0.162874   472A      0.164261   473A      0.165526  
     474A      0.166280   475A      0.166341   476A      0.167187  
     477A      0.169039   478A      0.170319   479A      0.171161  
     480A      0.171631   481A      0.172300   482A      0.172513  
     483A      0.174277   484A      0.175312   485A      0.175935  
     486A      0.176543   487A      0.180122   488A      0.180216  
     489A      0.180717   490A      0.180943   491A      0.181432  
     492A      0.184143   493A      0.185343   494A      0.186845  
     495A      0.187291   496A      0.188899   497A      0.189959  
     498A      0.190430   499A      0.191727   500A      0.192718  
     501A      0.193232   502A      0.193855   503A      0.197102  
     504A      0.197808   505A      0.198673   506A      0.198807  
     507A      0.200693   508A      0.201156   509A      0.203107  
     510A      0.205109   511A      0.205480   512A      0.207535  
     513A      0.209709   514A      0.209881   515A      0.210833  
     516A      0.211974   517A      0.213638   518A      0.214407  
     519A      0.215104   520A      0.216317   521A      0.216759  
     522A      0.218016   523A      0.218296   524A      0.219116  
     525A      0.220075   526A      0.220431   527A      0.221590  
     528A      0.223999   529A      0.226078   530A      0.226877  
     531A      0.227143   532A      0.228166   533A      0.228329  
     534A      0.228456   535A      0.230507   536A      0.232147  
     537A      0.233126   538A      0.234710   539A      0.235693  
     540A      0.236440   541A      0.236704   542A      0.238907  
     543A      0.240578   544A      0.241219   545A      0.241574  
     546A      0.242259   547A      0.242987   548A      0.243966  
     549A      0.244872   550A      0.246205   551A      0.248289  
     552A      0.249369   553A      0.250350   554A      0.251386  
     555A      0.252380   556A      0.253199   557A      0.254611  
     558A      0.255602   559A      0.256149   560A      0.256596  
     561A      0.256784   562A      0.257996   563A      0.259739  
     564A      0.262300   565A      0.262915   566A      0.264296  
     567A      0.264706   568A      0.266398   569A      0.267536  
     570A      0.267691   571A      0.268355   572A      0.269268  
     573A      0.269286   574A      0.269684   575A      0.269877  
     576A      0.271070   577A      0.271869   578A      0.273238  
     579A      0.273707   580A      0.275709   581A      0.278331  
     582A      0.279122   583A      0.279236   584A      0.280540  
     585A      0.280830   586A      0.281174   587A      0.281432  
     588A      0.281856   589A      0.283035   590A      0.284530  
     591A      0.286261   592A      0.287243   593A      0.287788  
     594A      0.289862   595A      0.290417   596A      0.291559  
     597A      0.293229   598A      0.293346   599A      0.294560  
     600A      0.294816   601A      0.295347   602A      0.295783  
     603A      0.297317   604A      0.297676   605A      0.298178  
     606A      0.299169   607A      0.299981   608A      0.301102  
     609A      0.302325   610A      0.303869   611A      0.305541  
     612A      0.308239   613A      0.309223   614A      0.311441  
     615A      0.311718   616A      0.312404   617A      0.314861  
     618A      0.316047   619A      0.316772   620A      0.317131  
     621A      0.317286   622A      0.318512   623A      0.318919  
     624A      0.321815   625A      0.323556   626A      0.324524  
     627A      0.325071   628A      0.326226   629A      0.327659  
     630A      0.327825   631A      0.328995   632A      0.329502  
     633A      0.330292   634A      0.331043   635A      0.331192  
     636A      0.334299   637A      0.334782   638A      0.338441  
     639A      0.339053   640A      0.340171   641A      0.341410  
     642A      0.341773   643A      0.342544   644A      0.343132  
     645A      0.343332   646A      0.344067   647A      0.344589  
     648A      0.344810   649A      0.345581   650A      0.345701  
     651A      0.347165   652A      0.347863   653A      0.348358  
     654A      0.349501   655A      0.350441   656A      0.351092  
     657A      0.351916   658A      0.352114   659A      0.353217  
     660A      0.353608   661A      0.354076   662A      0.356559  
     663A      0.357037   664A      0.357291   665A      0.357826  
     666A      0.358932   667A      0.359957   668A      0.360862  
     669A      0.361450   670A      0.361602   671A      0.362583  
     672A      0.363966   673A      0.364133   674A      0.365183  
     675A      0.365457   676A      0.367153   677A      0.367184  
     678A      0.369871   679A      0.370960   680A      0.372989  
     681A      0.374682   682A      0.375466   683A      0.376783  
     684A      0.377436   685A      0.377901   686A      0.378143  
     687A      0.378713   688A      0.378964   689A      0.380346  
     690A      0.382168   691A      0.382519   692A      0.383541  
     693A      0.384223   694A      0.384690   695A      0.385905  
     696A      0.387094   697A      0.387337   698A      0.388604  
     699A      0.390274   700A      0.391792   701A      0.397761  
     702A      0.398340   703A      0.399322   704A      0.400018  
     705A      0.400621   706A      0.401044   707A      0.401909  
     708A      0.402729   709A      0.403527   710A      0.403745  
     711A      0.404582   712A      0.405242   713A      0.406011  
     714A      0.407300   715A      0.409927   716A      0.410252  
     717A      0.412106   718A      0.412744   719A      0.413656  
     720A      0.413990   721A      0.414380   722A      0.415733  
     723A      0.416109   724A      0.416684   725A      0.418099  
     726A      0.418524   727A      0.420332   728A      0.421960  
     729A      0.422370   730A      0.422685   731A      0.424024  
     732A      0.424528   733A      0.425309   734A      0.426832  
     735A      0.427218   736A      0.427400   737A      0.428648  
     738A      0.430366   739A      0.433224   740A      0.433739  
     741A      0.434696   742A      0.437033   743A      0.437565  
     744A      0.439597   745A      0.440296   746A      0.441006  
     747A      0.441969   748A      0.443704   749A      0.444752  
     750A      0.445087   751A      0.448627   752A      0.450287  
     753A      0.450321   754A      0.451584   755A      0.451993  
     756A      0.452154   757A      0.453959   758A      0.454680  
     759A      0.456376   760A      0.456844   761A      0.460857  
     762A      0.463042   763A      0.463267   764A      0.464057  
     765A      0.464734   766A      0.465645   767A      0.466000  
     768A      0.466766   769A      0.468002   770A      0.469456  
     771A      0.472406   772A      0.472583   773A      0.473638  
     774A      0.477726   775A      0.479994   776A      0.480217  
     777A      0.480295   778A      0.482720   779A      0.485102  
     780A      0.485647   781A      0.487452   782A      0.487701  
     783A      0.489724   784A      0.491078   785A      0.492123  
     786A      0.493799   787A      0.501401   788A      0.504483  
     789A      0.505607   790A      0.508906   791A      0.509479  
     792A      0.510170   793A      0.512232   794A      0.513411  
     795A      0.514811   796A      0.516173   797A      0.517843  
     798A      0.518337   799A      0.519365   800A      0.520203  
     801A      0.522619   802A      0.523160   803A      0.523790  
     804A      0.524872   805A      0.525447   806A      0.525741  
     807A      0.527295   808A      0.530217   809A      0.530966  
     810A      0.532893   811A      0.534474   812A      0.536661  
     813A      0.536714   814A      0.538076   815A      0.539602  
     816A      0.539882   817A      0.543687   818A      0.544449  
     819A      0.545624   820A      0.548485   821A      0.549574  
     822A      0.551014   823A      0.552214   824A      0.553049  
     825A      0.558328   826A      0.563155   827A      0.565564  
     828A      0.566095   829A      0.567193   830A      0.567751  
     831A      0.572101   832A      0.576633   833A      0.577045  
     834A      0.577980   835A      0.579568   836A      0.584459  
     837A      0.586665   838A      0.590313   839A      0.592900  
     840A      0.596519   841A      0.601818   842A      0.602903  
     843A      0.604220   844A      0.605291   845A      0.606157  
     846A      0.606735   847A      0.606940   848A      0.611964  
     849A      0.612933   850A      0.613800   851A      0.618480  
     852A      0.626544   853A      0.631389   854A      0.632256  
     855A      0.632997   856A      0.633527   857A      0.636592  
     858A      0.637975   859A      0.638048   860A      0.639223  
     861A      0.640433   862A      0.643619   863A      0.645569  
     864A      0.647106   865A      0.647371   866A      0.648322  
     867A      0.653120   868A      0.653335   869A      0.656943  
     870A      0.659291   871A      0.665672   872A      0.667342  
     873A      0.673679   874A      0.677607   875A      0.678602  
     876A      0.679707   877A      0.682384   878A      0.686666  
     879A      0.687505   880A      0.689276   881A      0.690161  
     882A      0.691155   883A      0.692182   884A      0.696187  
     885A      0.696953   886A      0.697472   887A      0.700578  
     888A      0.706828   889A      0.712476   890A      0.715675  
     891A      0.720410   892A      0.723509   893A      0.730534  
     894A      0.731109   895A      0.734182   896A      0.735161  
     897A      0.736161   898A      0.739931   899A      0.741115  
     900A      0.741184   901A      0.742314   902A      0.747250  
     903A      0.750322   904A      0.750440   905A      0.753708  
     906A      0.755056   907A      0.756566   908A      0.757624  
     909A      0.759867   910A      0.761180   911A      0.762915  
     912A      0.763669   913A      0.764692   914A      0.767432  
     915A      0.768178   916A      0.770390   917A      0.772970  
     918A      0.775726   919A      0.777957   920A      0.778371  
     921A      0.779809   922A      0.781724   923A      0.783026  
     924A      0.783572   925A      0.786007   926A      0.788643  
     927A      0.790292   928A      0.792154   929A      0.794629  
     930A      0.794998   931A      0.796856   932A      0.799271  
     933A      0.800927   934A      0.802924   935A      0.805472  
     936A      0.807388   937A      0.807892   938A      0.809112  
     939A      0.810563   940A      0.813215   941A      0.814022  
     942A      0.815451   943A      0.816634   944A      0.816999  
     945A      0.818601   946A      0.820654   947A      0.821910  
     948A      0.822397   949A      0.824571   950A      0.825570  
     951A      0.826282   952A      0.828348   953A      0.830249  
     954A      0.832302   955A      0.833806   956A      0.836274  
     957A      0.836886   958A      0.838859   959A      0.839208  
     960A      0.840178   961A      0.842697   962A      0.845739  
     963A      0.846960   964A      0.847568   965A      0.852142  
     966A      0.854446   967A      0.854792   968A      0.857582  
     969A      0.858841   970A      0.859569   971A      0.863916  
     972A      0.864399   973A      0.865706   974A      0.867004  
     975A      0.867436   976A      0.868767   977A      0.869708  
     978A      0.870217   979A      0.870839   980A      0.873339  
     981A      0.874718   982A      0.876678   983A      0.878022  
     984A      0.880133   985A      0.880842   986A      0.881591  
     987A      0.881985   988A      0.885312   989A      0.885781  
     990A      0.887475   991A      0.889000   992A      0.889754  
     993A      0.892137   994A      0.894670   995A      0.895368  
     996A      0.896521   997A      0.898728   998A      0.899191  
     999A      0.899916  1000A      0.900150  1001A      0.900955  
    1002A      0.902151  1003A      0.903997  1004A      0.904527  
    1005A      0.904840  1006A      0.905427  1007A      0.912959  
    1008A      0.913614  1009A      0.915457  1010A      0.916522  
    1011A      0.918081  1012A      0.920691  1013A      0.922894  
    1014A      0.926643  1015A      0.929163  1016A      0.931415  
    1017A      0.933789  1018A      0.936757  1019A      0.941141  
    1020A      0.941161  1021A      0.941375  1022A      0.941626  
    1023A      0.948430  1024A      0.948965  1025A      0.950006  
    1026A      0.951519  1027A      0.952564  1028A      0.952757  
    1029A      0.953872  1030A      0.957287  1031A      0.960138  
    1032A      0.962793  1033A      0.963173  1034A      0.965676  
    1035A      0.966502  1036A      0.967784  1037A      0.968636  
    1038A      0.970087  1039A      0.974646  1040A      0.976021  
    1041A      0.977552  1042A      0.980526  1043A      0.981032  
    1044A      0.982076  1045A      0.983399  1046A      0.983583  
    1047A      0.985762  1048A      0.988871  1049A      0.992038  
    1050A      0.992813  1051A      0.993376  1052A      0.994466  
    1053A      0.994771  1054A      0.995033  1055A      0.995665  
    1056A      0.996541  1057A      0.998766  1058A      0.999714  
    1059A      1.000205  1060A      1.000466  1061A      1.001460  
    1062A      1.003359  1063A      1.007646  1064A      1.008669  
    1065A      1.009227  1066A      1.011029  1067A      1.012331  
    1068A      1.013273  1069A      1.013426  1070A      1.014566  
    1071A      1.015126  1072A      1.016514  1073A      1.017259  
    1074A      1.018208  1075A      1.018759  1076A      1.019231  
    1077A      1.019713  1078A      1.020052  1079A      1.020930  
    1080A      1.021600  1081A      1.022405  1082A      1.023842  
    1083A      1.023888  1084A      1.024541  1085A      1.025335  
    1086A      1.025872  1087A      1.027255  1088A      1.027910  
    1089A      1.028168  1090A      1.028429  1091A      1.028882  
    1092A      1.029422  1093A      1.030084  1094A      1.032668  
    1095A      1.033056  1096A      1.034788  1097A      1.035489  
    1098A      1.036520  1099A      1.036774  1100A      1.037178  
    1101A      1.038732  1102A      1.040966  1103A      1.042857  
    1104A      1.043780  1105A      1.043992  1106A      1.045468  
    1107A      1.045768  1108A      1.046634  1109A      1.047483  
    1110A      1.048253  1111A      1.049820  1112A      1.050602  
    1113A      1.056343  1114A      1.058092  1115A      1.059682  
    1116A      1.060239  1117A      1.065014  1118A      1.066307  
    1119A      1.066716  1120A      1.067884  1121A      1.071263  
    1122A      1.074338  1123A      1.075263  1124A      1.077447  
    1125A      1.078542  1126A      1.080097  1127A      1.080334  
    1128A      1.080398  1129A      1.082039  1130A      1.083761  
    1131A      1.085152  1132A      1.086760  1133A      1.090021  
    1134A      1.091131  1135A      1.092297  1136A      1.092806  
    1137A      1.095637  1138A      1.096375  1139A      1.096948  
    1140A      1.098087  1141A      1.101919  1142A      1.103700  
    1143A      1.103852  1144A      1.105528  1145A      1.106178  
    1146A      1.108986  1147A      1.110994  1148A      1.113859  
    1149A      1.115838  1150A      1.116805  1151A      1.120505  
    1152A      1.121967  1153A      1.122679  1154A      1.127599  
    1155A      1.130043  1156A      1.131678  1157A      1.132456  
    1158A      1.134421  1159A      1.138177  1160A      1.138726  
    1161A      1.140004  1162A      1.144747  1163A      1.145430  
    1164A      1.147785  1165A      1.148912  1166A      1.149375  
    1167A      1.151965  1168A      1.152131  1169A      1.154079  
    1170A      1.157757  1171A      1.159720  1172A      1.161297  
    1173A      1.162216  1174A      1.163745  1175A      1.165776  
    1176A      1.167157  1177A      1.168565  1178A      1.170181  
    1179A      1.171169  1180A      1.173360  1181A      1.175035  
    1182A      1.180118  1183A      1.180908  1184A      1.192591  
    1185A      1.193484  1186A      1.193709  1187A      1.195697  
    1188A      1.199008  1189A      1.199776  1190A      1.202546  
    1191A      1.208854  1192A      1.209008  1193A      1.209571  
    1194A      1.210888  1195A      1.217027  1196A      1.218097  
    1197A      1.219000  1198A      1.221120  1199A      1.226687  
    1200A      1.232676  1201A      1.233268  1202A      1.237346  
    1203A      1.238296  1204A      1.239086  1205A      1.240810  
    1206A      1.242015  1207A      1.243084  1208A      1.245146  
    1209A      1.250165  1210A      1.250372  1211A      1.253058  
    1212A      1.253758  1213A      1.254623  1214A      1.259573  
    1215A      1.260895  1216A      1.261105  1217A      1.262539  
    1218A      1.266679  1219A      1.266798  1220A      1.267417  
    1221A      1.268115  1222A      1.269464  1223A      1.273714  
    1224A      1.274391  1225A      1.277451  1226A      1.278456  
    1227A      1.279350  1228A      1.283058  1229A      1.283312  
    1230A      1.286426  1231A      1.286795  1232A      1.289226  
    1233A      1.290986  1234A      1.292820  1235A      1.298500  
    1236A      1.302083  1237A      1.302208  1238A      1.304279  
    1239A      1.305370  1240A      1.307859  1241A      1.310073  
    1242A      1.310834  1243A      1.311423  1244A      1.311926  
    1245A      1.318152  1246A      1.319258  1247A      1.319742  
    1248A      1.321153  1249A      1.321676  1250A      1.324419  
    1251A      1.334562  1252A      1.335079  1253A      1.337232  
    1254A      1.341821  1255A      1.342307  1256A      1.342702  
    1257A      1.343521  1258A      1.346539  1259A      1.347262  
    1260A      1.353473  1261A      1.354514  1262A      1.355185  
    1263A      1.355486  1264A      1.358302  1265A      1.360298  
    1266A      1.361418  1267A      1.362878  1268A      1.364545  
    1269A      1.366647  1270A      1.368422  1271A      1.369942  
    1272A      1.372217  1273A      1.373833  1274A      1.374261  
    1275A      1.375673  1276A      1.376795  1277A      1.378141  
    1278A      1.379341  1279A      1.383163  1280A      1.383462  
    1281A      1.383794  1282A      1.386019  1283A      1.387665  
    1284A      1.388563  1285A      1.392793  1286A      1.393497  
    1287A      1.395118  1288A      1.397536  1289A      1.397612  
    1290A      1.398381  1291A      1.401375  1292A      1.403285  
    1293A      1.410043  1294A      1.411242  1295A      1.416313  
    1296A      1.417327  1297A      1.418212  1298A      1.418656  
    1299A      1.419977  1300A      1.427198  1301A      1.430589  
    1302A      1.431163  1303A      1.432397  1304A      1.437083  
    1305A      1.441758  1306A      1.442364  1307A      1.446152  
    1308A      1.446709  1309A      1.449963  1310A      1.451917  
    1311A      1.452697  1312A      1.463098  1313A      1.464497  
    1314A      1.484027  1315A      1.486089  1316A      1.486980  
    1317A      1.488623  1318A      1.490956  1319A      1.497453  
    1320A      1.498875  1321A      1.499057  1322A      1.522170  
    1323A      1.528964  1324A      1.537923  1325A      1.539080  
    1326A      1.540113  1327A      1.544468  1328A      1.547516  
    1329A      1.548913  1330A      1.550214  1331A      1.551100  
    1332A      1.552539  1333A      1.553914  1334A      1.556144  
    1335A      1.556861  1336A      1.557190  1337A      1.559568  
    1338A      1.559891  1339A      1.560550  1340A      1.561536  
    1341A      1.562146  1342A      1.565210  1343A      1.566620  
    1344A      1.567234  1345A      1.569228  1346A      1.571324  
    1347A      1.572809  1348A      1.573247  1349A      1.576008  
    1350A      1.576301  1351A      1.580756  1352A      1.581502  
    1353A      1.581669  1354A      1.583038  1355A      1.583413  
    1356A      1.583980  1357A      1.584506  1358A      1.585125  
    1359A      1.585728  1360A      1.586982  1361A      1.589219  
    1362A      1.590585  1363A      1.591177  1364A      1.597045  
    1365A      1.598179  1366A      1.598603  1367A      1.602557  
    1368A      1.602795  1369A      1.603334  1370A      1.610094  
    1371A      1.610589  1372A      1.613339  1373A      1.613578  
    1374A      1.613979  1375A      1.614891  1376A      1.614937  
    1377A      1.616408  1378A      1.622600  1379A      1.623183  
    1380A      1.623607  1381A      1.624407  1382A      1.626694  
    1383A      1.633829  1384A      1.635178  1385A      1.638351  
    1386A      1.638986  1387A      1.641513  1388A      1.641935  
    1389A      1.642631  1390A      1.643602  1391A      1.645761  
    1392A      1.655488  1393A      1.655677  1394A      1.655915  
    1395A      1.660236  1396A      1.662174  1397A      1.662456  
    1398A      1.665272  1399A      1.666720  1400A      1.667703  
    1401A      1.667978  1402A      1.670599  1403A      1.671524  
    1404A      1.683483  1405A      1.683918  1406A      1.684403  
    1407A      1.689132  1408A      1.692113  1409A      1.693862  
    1410A      1.693904  1411A      1.696335  1412A      1.697261  
    1413A      1.702921  1414A      1.709485  1415A      1.711169  
    1416A      1.714609  1417A      1.723834  1418A      1.725957  
    1419A      1.732449  1420A      1.734639  1421A      1.735167  
    1422A      1.747388  1423A      1.747663  1424A      1.753698  
    1425A      1.755581  1426A      1.764426  1427A      1.767294  
    1428A      1.768232  1429A      1.769351  1430A      1.771507  
    1431A      1.772685  1432A      1.773566  1433A      1.774234  
    1434A      1.775828  1435A      1.777080  1436A      1.777633  
    1437A      1.779402  1438A      1.779847  1439A      1.782610  
    1440A      1.782785  1441A      1.782926  1442A      1.783723  
    1443A      1.789380  1444A      1.790902  1445A      1.803147  
    1446A      1.803364  1447A      1.806136  1448A      1.806523  
    1449A      1.808119  1450A      1.808753  1451A      1.809517  
    1452A      1.811773  1453A      1.812189  1454A      1.816645  
    1455A      1.817188  1456A      1.819886  1457A      1.820421  
    1458A      1.822140  1459A      1.827785  1460A      1.828724  
    1461A      1.828922  1462A      1.829543  1463A      1.829861  
    1464A      1.830340  1465A      1.831323  1466A      1.831645  
    1467A      1.832728  1468A      1.833472  1469A      1.835034  
    1470A      1.835413  1471A      1.840747  1472A      1.849528  
    1473A      1.849949  1474A      1.852658  1475A      1.852784  
    1476A      1.857708  1477A      1.860690  1478A      1.861360  
    1479A      1.863068  1480A      1.865426  1481A      1.867041  
    1482A      1.867452  1483A      1.868002  1484A      1.870197  
    1485A      1.870892  1486A      1.871738  1487A      1.877382  
    1488A      1.881468  1489A      1.882883  1490A      1.883651  
    1491A      1.885085  1492A      1.885847  1493A      1.886227  
    1494A      1.886708  1495A      1.888518  1496A      1.889696  
    1497A      1.890716  1498A      1.892058  1499A      1.894640  
    1500A      1.897884  1501A      1.899075  1502A      1.901432  
    1503A      1.905002  1504A      1.905280  1505A      1.907151  
    1506A      1.907361  1507A      1.907799  1508A      1.913194  
    1509A      1.914735  1510A      1.915293  1511A      1.916469  
    1512A      1.917929  1513A      1.918836  1514A      1.919370  
    1515A      1.920033  1516A      1.927518  1517A      1.928035  
    1518A      1.931197  1519A      1.935963  1520A      1.938414  
    1521A      1.938633  1522A      1.939821  1523A      1.940254  
    1524A      1.941975  1525A      1.952946  1526A      1.953954  
    1527A      1.956779  1528A      1.957630  1529A      1.958623  
    1530A      1.962028  1531A      1.962484  1532A      1.963163  
    1533A      1.963506  1534A      1.965297  1535A      1.965512  
    1536A      1.965792  1537A      1.967713  1538A      1.970603  
    1539A      1.972750  1540A      1.975909  1541A      1.977772  
    1542A      1.979196  1543A      1.980275  1544A      1.982299  
    1545A      1.985421  1546A      1.988118  1547A      1.988744  
    1548A      1.991565  1549A      1.993333  1550A      1.996004  
    1551A      1.998426  1552A      1.999737  1553A      2.002054  
    1554A      2.003563  1555A      2.004881  1556A      2.005533  
    1557A      2.006080  1558A      2.006797  1559A      2.012516  
    1560A      2.014935  1561A      2.015091  1562A      2.016757  
    1563A      2.021566  1564A      2.024229  1565A      2.025415  
    1566A      2.026103  1567A      2.026699  1568A      2.027202  
    1569A      2.028899  1570A      2.029130  1571A      2.029967  
    1572A      2.031104  1573A      2.032832  1574A      2.034646  
    1575A      2.034842  1576A      2.036348  1577A      2.037350  
    1578A      2.038100  1579A      2.038597  1580A      2.040048  
    1581A      2.040794  1582A      2.042654  1583A      2.043318  
    1584A      2.044673  1585A      2.045317  1586A      2.047791  
    1587A      2.047882  1588A      2.048702  1589A      2.053473  
    1590A      2.056598  1591A      2.058284  1592A      2.058440  
    1593A      2.058804  1594A      2.059559  1595A      2.059907  
    1596A      2.062311  1597A      2.062960  1598A      2.064601  
    1599A      2.065909  1600A      2.072386  1601A      2.072765  
    1602A      2.073216  1603A      2.073608  1604A      2.073800  
    1605A      2.074685  1606A      2.074993  1607A      2.076864  
    1608A      2.081006  1609A      2.081628  1610A      2.082411  
    1611A      2.083704  1612A      2.087715  1613A      2.087894  
    1614A      2.089031  1615A      2.090557  1616A      2.091325  
    1617A      2.092112  1618A      2.100593  1619A      2.100808  
    1620A      2.102452  1621A      2.103868  1622A      2.104376  
    1623A      2.105347  1624A      2.105678  1625A      2.106700  
    1626A      2.110108  1627A      2.110506  1628A      2.117444  
    1629A      2.117737  1630A      2.122904  1631A      2.125906  
    1632A      2.126740  1633A      2.128804  1634A      2.128982  
    1635A      2.134317  1636A      2.134724  1637A      2.135798  
    1638A      2.136068  1639A      2.137671  1640A      2.139289  
    1641A      2.142379  1642A      2.143087  1643A      2.144428  
    1644A      2.145331  1645A      2.146950  1646A      2.147526  
    1647A      2.150484  1648A      2.151190  1649A      2.152440  
    1650A      2.155450  1651A      2.156260  1652A      2.159768  
    1653A      2.160206  1654A      2.165581  1655A      2.169164  
    1656A      2.169216  1657A      2.170063  1658A      2.170344  
    1659A      2.170492  1660A      2.171897  1661A      2.175033  
    1662A      2.178793  1663A      2.179363  1664A      2.180231  
    1665A      2.181729  1666A      2.182371  1667A      2.184079  
    1668A      2.184286  1669A      2.188322  1670A      2.193087  
    1671A      2.194692  1672A      2.195417  1673A      2.196258  
    1674A      2.209288  1675A      2.209912  1676A      2.211251  
    1677A      2.212816  1678A      2.213924  1679A      2.215444  
    1680A      2.218307  1681A      2.221157  1682A      2.229491  
    1683A      2.230706  1684A      2.237192  1685A      2.238748  
    1686A      2.241659  1687A      2.242006  1688A      2.243786  
    1689A      2.250364  1690A      2.250979  1691A      2.255432  
    1692A      2.259404  1693A      2.269133  1694A      2.269486  
    1695A      2.271063  1696A      2.271357  1697A      2.273785  
    1698A      2.275252  1699A      2.277105  1700A      2.277571  
    1701A      2.278229  1702A      2.279256  1703A      2.281130  
    1704A      2.284535  1705A      2.287507  1706A      2.288159  
    1707A      2.288475  1708A      2.290532  1709A      2.291043  
    1710A      2.291839  1711A      2.294054  1712A      2.294437  
    1713A      2.311714  1714A      2.313286  1715A      2.316382  
    1716A      2.316782  1717A      2.330532  1718A      2.333864  
    1719A      2.335428  1720A      2.336877  1721A      2.338330  
    1722A      2.341926  1723A      2.347473  1724A      2.356184  
    1725A      2.364614  1726A      2.365767  1727A      2.369113  
    1728A      2.373911  1729A      2.377162  1730A      2.387870  
    1731A      2.389696  1732A      2.397539  1733A      2.398583  
    1734A      2.410760  1735A      2.410822  1736A      2.414206  
    1737A      2.414381  1738A      2.418560  1739A      2.418857  
    1740A      2.438294  1741A      2.438791  1742A      2.439952  
    1743A      2.448942  1744A      2.453874  1745A      2.454572  
    1746A      2.458462  1747A      2.462707  1748A      2.463855  
    1749A      2.481415  1750A      2.484972  1751A      2.485094  
    1752A      2.486584  1753A      2.488819  1754A      2.489561  
    1755A      2.490693  1756A      2.493776  1757A      2.495326  
    1758A      2.496415  1759A      2.498200  1760A      2.501114  
    1761A      2.501295  1762A      2.510128  1763A      2.513350  
    1764A      2.517502  1765A      2.519617  1766A      2.528086  
    1767A      2.531736  1768A      2.531841  1769A      2.532552  
    1770A      2.533007  1771A      2.537018  1772A      2.537479  
    1773A      2.539647  1774A      2.542516  1775A      2.548191  
    1776A      2.548365  1777A      2.559382  1778A      2.559668  
    1779A      2.560024  1780A      2.560509  1781A      2.563978  
    1782A      2.564406  1783A      2.578875  1784A      2.586511  
    1785A      2.587574  1786A      2.589666  1787A      2.591081  
    1788A      2.591592  1789A      2.593936  1790A      2.594468  
    1791A      2.595721  1792A      2.600257  1793A      2.603297  
    1794A      2.603587  1795A      2.610491  1796A      2.611557  
    1797A      2.614856  1798A      2.617631  1799A      2.618274  
    1800A      2.619206  1801A      2.622232  1802A      2.624435  
    1803A      2.625376  1804A      2.630856  1805A      2.631808  
    1806A      2.633150  1807A      2.637033  1808A      2.637308  
    1809A      2.637609  1810A      2.638958  1811A      2.641968  
    1812A      2.643416  1813A      2.650061  1814A      2.656678  
    1815A      2.668092  1816A      2.676127  1817A      2.676792  
    1818A      2.677498  1819A      2.679257  1820A      2.679724  
    1821A      2.680813  1822A      2.698433  1823A      2.700897  
    1824A      2.703232  1825A      2.704487  1826A      2.705786  
    1827A      2.710290  1828A      2.716685  1829A      2.720176  
    1830A      2.723572  1831A      2.725447  1832A      2.726787  
    1833A      2.743821  1834A      2.744754  1835A      2.746242  
    1836A      2.747145  1837A      2.747285  1838A      2.751500  
    1839A      2.754658  1840A      2.757547  1841A      2.759272  
    1842A      2.759654  1843A      2.761985  1844A      2.762648  
    1845A      2.764824  1846A      2.772627  1847A      2.772914  
    1848A      2.785677  1849A      2.786378  1850A      2.787747  
    1851A      2.788003  1852A      2.792121  1853A      2.805740  
    1854A      2.810436  1855A      2.810586  1856A      2.816729  
    1857A      2.817939  1858A      2.819111  1859A      2.820453  
    1860A      2.839406  1861A      2.840329  1862A      2.857261  
    1863A      2.865451  1864A      2.865639  1865A      2.875394  
    1866A      2.877588  1867A      2.882228  1868A      2.882356  
    1869A      2.909908  1870A      2.912268  1871A      2.912768  
    1872A      2.923331  1873A      2.931118  1874A      2.939387  
    1875A      2.939506  1876A      2.974922  1877A      2.975744  
    1878A      2.982739  1879A      2.986167  1880A      2.990537  
    1881A      2.993280  1882A      2.993800  1883A      2.996094  
    1884A      3.003036  1885A      3.003229  1886A      3.012673  
    1887A      3.019019  1888A      3.056136  1889A      3.060464  
    1890A      3.060783  1891A      3.062906  1892A      3.068860  
    1893A      3.073276  1894A      3.074126  1895A      3.078499  
    1896A      3.078916  1897A      3.081495  1898A      3.089289  
    1899A      3.090557  1900A      3.094798  1901A      3.094952  
    1902A      3.096957  1903A      3.097759  1904A      3.101355  
    1905A      3.110232  1906A      3.112257  1907A      3.120733  
    1908A      3.122824  1909A      3.123090  1910A      3.140762  
    1911A      3.141750  1912A      3.168140  1913A      3.199516  
    1914A      3.206469  1915A      3.207340  1916A      3.207503  
    1917A      3.208424  1918A      3.210697  1919A      3.214796  
    1920A      3.218175  1921A      3.221818  1922A      3.222254  
    1923A      3.239459  1924A      3.241803  1925A      3.243129  
    1926A      3.249518  1927A      3.306358  1928A      3.307298  
    1929A      3.315007  1930A      3.360349  1931A      3.374186  
    1932A      3.376580  1933A      3.378693  1934A      3.389243  
    1935A      3.393895  1936A      3.404771  1937A      3.408993  
    1938A      3.410080  1939A      3.415910  1940A      3.418748  
    1941A      3.426033  1942A      3.431281  1943A      3.438254  
    1944A      3.453604  1945A      3.453813  1946A      3.483799  
    1947A      3.519337  1948A      3.520914  1949A      3.528184  
    1950A      3.536188  1951A      3.542892  1952A      3.584204  
    1953A      3.586393  1954A      3.609916  1955A      3.612881  
    1956A      3.650166  1957A      3.691781  1958A      3.695538  
    1959A      3.696247  1960A      3.707351  1961A      3.723495  
    1962A      3.725365  1963A      3.788271  1964A      3.789312  
    1965A      3.817786  1966A      3.820641  1967A      3.850558  
    1968A      3.858091  1969A      3.881622  1970A      3.884204  
    1971A      3.894040  1972A      3.895184  1973A      3.903349  
    1974A      3.907980  1975A      3.915284  1976A      3.969045  
    1977A      3.971506  1978A      4.014668  1979A      4.172199  
    1980A      4.243987  1981A      4.335562  

    Final Occupation by Irrep:
              A 
    DOCC [   326 ]
    NA   [   326 ]
    NB   [   326 ]

  @DF-RHF Final Energy: -3953.64843852910872

   => Energetics <=

    Nuclear Repulsion Energy =          17753.9680976108065806
    One-Electron Energy =              -40718.7707577300825506
    Two-Electron Energy =               19011.1542215901681629
    Total Energy =                      -3953.6484385291078070

Computation Completed


Properties will be evaluated at   0.000000,   0.000000,   0.000000 [a0]

Properties computed using the SCF density matrix


 Multipole Moments:

 ------------------------------------------------------------------------------------
     Multipole            Electronic (a.u.)      Nuclear  (a.u.)        Total (a.u.)
 ------------------------------------------------------------------------------------

 L = 1.  Multiply by 2.5417464519 to convert [e a0] to [Debye]
 Dipole X            :         -0.0026073            0.0004804           -0.0021269
 Dipole Y            :         -6.9058779            8.7122315            1.8063536
 Dipole Z            :         29.1347735          -39.4115677          -10.2767942
 Magnitude           :                                                   10.4343383

 ------------------------------------------------------------------------------------

*** tstop() called on n2cn0565 at Sat Jan 27 01:52:09 2024
Module time:
	user time   =   26860.84 seconds =     447.68 minutes
	system time =    2294.80 seconds =      38.25 minutes
	total time  =       5857 seconds =      97.62 minutes
Total time:
	user time   =   26860.84 seconds =     447.68 minutes
	system time =    2294.80 seconds =      38.25 minutes
	total time  =       5857 seconds =      97.62 minutes

  //>>>>>>>>>>>>>>>>>>>>>>>>>>>>>>>>>>>//
  //            Monomer A HF           //
  //<<<<<<<<<<<<<<<<<<<<<<<<<<<<<<<<<<<//

   => Libint2 <=

    Primary   basis highest AM E, G, H:  5, 4, 3
    Auxiliary basis highest AM E, G, H:  6, 5, 4
    Onebody   basis highest AM E, G, H:  6, 5, 4
    Solid Harmonics ordering:            gaussian

*** tstart() called on n2cn0565
*** at Sat Jan 27 01:52:09 2024

   => Loading Basis Set <=

    Name: JUN-CC-PVDZ
    Role: ORBITAL
    Keyword: BASIS
    atoms 1-2, 4-5, 10, 17-34, 41-53, 56-70, 73-89, 92-104, 109-119, 122-130 entry C          line   164 file /opt/software/pc2/EB-SW/software/PSI4/1.9-foss-2022a/share/psi4/basis/jun-cc-pvdz.gbs 
    atoms 3, 6                                                               entry N          line   198 file /opt/software/pc2/EB-SW/software/PSI4/1.9-foss-2022a/share/psi4/basis/jun-cc-pvdz.gbs 
    atoms 7-9, 11-16, 35-40, 54-55, 71-72, 90-91, 105-108, 120-121, 131-136  entry H          line    36 file /opt/software/pc2/EB-SW/software/PSI4/1.9-foss-2022a/share/psi4/basis/jun-cc-pvdz.gbs 


         ---------------------------------------------------------
                                   SCF
               by Justin Turney, Rob Parrish, Andy Simmonett
                          and Daniel G. A. Smith
                              RHF Reference
                       16 Threads,  61035 MiB Core
         ---------------------------------------------------------

  ==> Geometry <==

    Molecular point group: c1
    Full point group: C1

    Geometry (in Angstrom), charge = 1, multiplicity = 1:

       Center              X                  Y                   Z               Mass       
    ------------   -----------------  -----------------  -----------------  -----------------
         C            0.680062820275     1.308604348936    -7.497487303813    12.000000000000
         C           -0.680508179725     1.310632348936    -7.497103303813    12.000000000000
         N           -1.085639179725     1.311630348936    -6.178779303813    14.003074004430
         C            0.000103820275     1.314906348936    -5.397378303813    12.000000000000
[...]
    1582A      2.171973  1583A      2.179645  1584A      2.181181  
    1585A      2.181508  1586A      2.182549  1587A      2.188546  
    1588A      2.188703  1589A      2.190109  1590A      2.191288  
    1591A      2.191790  1592A      2.194291  1593A      2.195406  
    1594A      2.197218  1595A      2.198531  1596A      2.199547  
    1597A      2.200634  1598A      2.200921  1599A      2.201334  
    1600A      2.202017  1601A      2.204511  1602A      2.205179  
    1603A      2.205761  1604A      2.209599  1605A      2.211948  
    1606A      2.213879  1607A      2.214943  1608A      2.220182  
    1609A      2.222007  1610A      2.222584  1611A      2.223163  
    1612A      2.224606  1613A      2.225168  1614A      2.225303  
    1615A      2.228905  1616A      2.232121  1617A      2.232436  
    1618A      2.233834  1619A      2.238870  1620A      2.239060  
    1621A      2.239752  1622A      2.241397  1623A      2.247562  
    1624A      2.248290  1625A      2.248576  1626A      2.249946  
    1627A      2.260197  1628A      2.261445  1629A      2.261933  
    1630A      2.264347  1631A      2.265244  1632A      2.266722  
    1633A      2.269827  1634A      2.276494  1635A      2.277998  
    1636A      2.282887  1637A      2.284225  1638A      2.286668  
    1639A      2.290458  1640A      2.291120  1641A      2.296460  
    1642A      2.296843  1643A      2.303831  1644A      2.304204  
    1645A      2.308908  1646A      2.309260  1647A      2.316375  
    1648A      2.324677  1649A      2.324972  1650A      2.325295  
    1651A      2.327238  1652A      2.329513  1653A      2.330609  
    1654A      2.331123  1655A      2.332025  1656A      2.333330  
    1657A      2.334519  1658A      2.335532  1659A      2.339996  
    1660A      2.341395  1661A      2.342207  1662A      2.342402  
    1663A      2.344844  1664A      2.345826  1665A      2.346343  
    1666A      2.349085  1667A      2.349442  1668A      2.356028  
    1669A      2.358800  1670A      2.369590  1671A      2.373076  
    1672A      2.373860  1673A      2.383948  1674A      2.388094  
    1675A      2.389882  1676A      2.391672  1677A      2.393829  
    1678A      2.397130  1679A      2.400360  1680A      2.418399  
    1681A      2.419650  1682A      2.423656  1683A      2.427677  
    1684A      2.432081  1685A      2.441830  1686A      2.443460  
    1687A      2.452169  1688A      2.453097  1689A      2.455684  
    1690A      2.459318  1691A      2.464059  1692A      2.464427  
    1693A      2.466044  1694A      2.467896  1695A      2.468310  
    1696A      2.471943  1697A      2.472194  1698A      2.477059  
    1699A      2.483037  1700A      2.491289  1701A      2.491731  
    1702A      2.494829  1703A      2.501922  1704A      2.506864  
    1705A      2.507229  1706A      2.511559  1707A      2.516367  
    1708A      2.525489  1709A      2.539238  1710A      2.539249  
    1711A      2.540243  1712A      2.542305  1713A      2.542901  
    1714A      2.545472  1715A      2.547771  1716A      2.548520  
    1717A      2.549294  1718A      2.551287  1719A      2.556598  
    1720A      2.556731  1721A      2.564257  1722A      2.571166  
    1723A      2.571727  1724A      2.580000  1725A      2.583627  
    1726A      2.584112  1727A      2.585093  1728A      2.585962  
    1729A      2.586262  1730A      2.588824  1731A      2.589026  
    1732A      2.593222  1733A      2.593561  1734A      2.601401  
    1735A      2.601518  1736A      2.612884  1737A      2.613116  
    1738A      2.613482  1739A      2.613862  1740A      2.617473  
    1741A      2.617922  1742A      2.632927  1743A      2.640415  
    1744A      2.641211  1745A      2.641779  1746A      2.643685  
    1747A      2.645470  1748A      2.647351  1749A      2.648694  
    1750A      2.649259  1751A      2.652637  1752A      2.655123  
    1753A      2.656032  1754A      2.656407  1755A      2.658848  
    1756A      2.665968  1757A      2.666165  1758A      2.667146  
    1759A      2.667633  1760A      2.670664  1761A      2.670839  
    1762A      2.673668  1763A      2.677092  1764A      2.677815  
    1765A      2.681811  1766A      2.684938  1767A      2.685914  
    1768A      2.687427  1769A      2.691274  1770A      2.691461  
    1771A      2.691640  1772A      2.692574  1773A      2.696121  
    1774A      2.697332  1775A      2.704441  1776A      2.720886  
    1777A      2.730748  1778A      2.731035  1779A      2.731165  
    1780A      2.731546  1781A      2.731850  1782A      2.744967  
    1783A      2.752677  1784A      2.753670  1785A      2.760462  
    1786A      2.761008  1787A      2.771428  1788A      2.772679  
    1789A      2.776208  1790A      2.780181  1791A      2.780748  
    1792A      2.799225  1793A      2.799902  1794A      2.801853  
    1795A      2.802201  1796A      2.802233  1797A      2.809025  
    1798A      2.812451  1799A      2.815336  1800A      2.815908  
    1801A      2.816056  1802A      2.816738  1803A      2.820333  
    1804A      2.828432  1805A      2.828515  1806A      2.840135  
    1807A      2.841192  1808A      2.841531  1809A      2.842557  
    1810A      2.845891  1811A      2.846232  1812A      2.861472  
    1813A      2.865563  1814A      2.865632  1815A      2.870345  
    1816A      2.871886  1817A      2.874954  1818A      2.886669  
    1819A      2.895939  1820A      2.896829  1821A      2.898434  
    1822A      2.913239  1823A      2.917647  1824A      2.917957  
    1825A      2.920233  1826A      2.927472  1827A      2.928346  
    1828A      2.930231  1829A      2.935143  1830A      2.935184  
    1831A      2.957930  1832A      2.963293  1833A      2.965203  
    1834A      2.965472  1835A      2.976218  1836A      2.980036  
    1837A      2.992576  1838A      2.993160  1839A      3.011441  
    1840A      3.024465  1841A      3.029435  1842A      3.030225  
    1843A      3.036051  1844A      3.039035  1845A      3.046998  
    1846A      3.047708  1847A      3.048050  1848A      3.051223  
    1849A      3.057580  1850A      3.057806  1851A      3.063649  
    1852A      3.072902  1853A      3.108773  1854A      3.113037  
    1855A      3.113306  1856A      3.122662  1857A      3.127557  
    1858A      3.128247  1859A      3.132697  1860A      3.134585  
    1861A      3.142172  1862A      3.143215  1863A      3.147175  
    1864A      3.149142  1865A      3.149424  1866A      3.149758  
    1867A      3.150245  1868A      3.153697  1869A      3.162248  
    1870A      3.167867  1871A      3.173197  1872A      3.175231  
    1873A      3.175419  1874A      3.193276  1875A      3.194198  
    1876A      3.220192  1877A      3.252940  1878A      3.259613  
    1879A      3.261209  1880A      3.261682  1881A      3.262200  
    1882A      3.264397  1883A      3.268303  1884A      3.271337  
    1885A      3.274890  1886A      3.275550  1887A      3.288763  
    1888A      3.293486  1889A      3.295859  1890A      3.297570  
    1891A      3.303221  1892A      3.315421  1893A      3.328960  
    1894A      3.361552  1895A      3.362404  1896A      3.370285  
    1897A      3.415397  1898A      3.418639  1899A      3.430141  
    1900A      3.432519  1901A      3.437083  1902A      3.445951  
    1903A      3.450585  1904A      3.461436  1905A      3.464608  
    1906A      3.465721  1907A      3.471420  1908A      3.474403  
    1909A      3.481661  1910A      3.487564  1911A      3.494168  
    1912A      3.509161  1913A      3.526983  1914A      3.540000  
    1915A      3.574501  1916A      3.576002  1917A      3.576631  
    1918A      3.583513  1919A      3.590102  1920A      3.639564  
    1921A      3.641875  1922A      3.646646  1923A      3.665134  
    1924A      3.667066  1925A      3.705110  1926A      3.747819  
    1927A      3.749481  1928A      3.750619  1929A      3.759003  
    1930A      3.763631  1931A      3.778717  1932A      3.779972  
    1933A      3.817860  1934A      3.842023  1935A      3.843492  
    1936A      3.869719  1937A      3.871605  1938A      3.874664  
    1939A      3.904977  1940A      3.913087  1941A      3.937987  
    1942A      3.940610  1943A      3.948327  1944A      3.949211  
    1945A      3.958566  1946A      3.964637  1947A      3.967348  
    1948A      3.971779  1949A      4.024693  1950A      4.027470  
    1951A      4.071384  1952A      4.209385  1953A      4.213123  
    1954A      4.230369  1955A      4.302549  1956A      4.357345  
    1957A      4.365192  1958A      4.393856  1959A      4.491615  
    1960A      4.744885  1961A      4.784188  1962A      4.833869  
    1963A      4.849276  1964A      4.939159  1965A      5.055037  
    1966A      5.060264  1967A      5.069384  1968A      5.113733  
    1969A      5.145011  1970A      5.395145  1971A      5.424667  
    1972A      5.735719  1973A      5.761775  1974A      6.069333  
    1975A     18.199934  1976A     18.458371  1977A     18.475441  
    1978A     18.562767  1979A     18.833629  1980A     25.341052  
    1981A     25.377096  

    Final Occupation by Irrep:
              A 
    DOCC [   300 ]
    NA   [   300 ]
    NB   [   300 ]

  @DF-RHF Final Energy: -3650.33817863716558

   => Energetics <=

    Nuclear Repulsion Energy =          15611.4211649754306563
    One-Electron Energy =              -36072.0954296529089333
    Two-Electron Energy =               16810.3360860403154220
    Total Energy =                      -3650.3381786371646740

Computation Completed


Properties will be evaluated at   0.000000,   0.000000,   0.000000 [a0]

Properties computed using the SCF density matrix


 Multipole Moments:

 ------------------------------------------------------------------------------------
     Multipole            Electronic (a.u.)      Nuclear  (a.u.)        Total (a.u.)
 ------------------------------------------------------------------------------------

 L = 1.  Multiply by 2.5417464519 to convert [e a0] to [Debye]
 Dipole X            :         -0.0008986            0.0002112           -0.0006875
 Dipole Y            :        123.2140186         -123.2131634            0.0008552
 Dipole Z            :       -587.8234960          587.8310826            0.0075866
 Magnitude           :                                                    0.0076655

 ------------------------------------------------------------------------------------

*** tstop() called on n2cn0565 at Sat Jan 27 03:25:56 2024
Module time:
	user time   =   20173.35 seconds =     336.22 minutes
	system time =    2626.77 seconds =      43.78 minutes
	total time  =       3644 seconds =      60.73 minutes
Total time:
	user time   =   52548.20 seconds =     875.80 minutes
	system time =    5493.92 seconds =      91.57 minutes
	total time  =      11484 seconds =     191.40 minutes
  Constructing Basis Sets for SAPT...

   => Loading Basis Set <=

    Name: (JUN-CC-PVDZ AUX)
    Role: RIFIT
    Keyword: DF_BASIS_SAPT
    atoms 1-2, 4-5, 10, 17-34, 41-53, 56-70, 73-89, 92-104, 109-119, 122-130 entry C          line   100 file /opt/software/pc2/EB-SW/software/PSI4/1.9-foss-2022a/share/psi4/basis/jun-cc-pvdz-ri.gbs 
    atoms 3, 6                                                               entry N          line   144 file /opt/software/pc2/EB-SW/software/PSI4/1.9-foss-2022a/share/psi4/basis/jun-cc-pvdz-ri.gbs 
    atoms 7-9, 11-16, 35-40, 54-55, 71-72, 90-91, 105-108, 120-121, 131-136  entry H          line    30 file /opt/software/pc2/EB-SW/software/PSI4/1.9-foss-2022a/share/psi4/basis/jun-cc-pvdz-ri.gbs 

   => Loading Basis Set <=

    Name: (JUN-CC-PVDZ AUX)
    Role: JKFIT
    Keyword: DF_BASIS_ELST
    atoms 1-2, 4-5, 10, 17-34, 41-53, 56-70, 73-89, 92-104, 109-119, 122-130 entry C          line   146 file /opt/software/pc2/EB-SW/software/PSI4/1.9-foss-2022a/share/psi4/basis/jun-cc-pvdz-jkfit.gbs 
    atoms 3, 6                                                               entry N          line   202 file /opt/software/pc2/EB-SW/software/PSI4/1.9-foss-2022a/share/psi4/basis/jun-cc-pvdz-jkfit.gbs 
    atoms 7-9, 11-16, 35-40, 54-55, 71-72, 90-91, 105-108, 120-121, 131-136  entry H          line    70 file /opt/software/pc2/EB-SW/software/PSI4/1.9-foss-2022a/share/psi4/basis/jun-cc-pvdz-jkfit.gbs 


  //>>>>>>>>>>>>>>>>>>>>>>>>>>>>>>>>>>>//
  //               SSAPT0              //
  //<<<<<<<<<<<<<<<<<<<<<<<<<<<<<<<<<<<//


*** tstart() called on n2cn0565
*** at Sat Jan 27 03:25:58 2024

        SAPT0  
    Ed Hohenstein
     6 June 2009

      Orbital Information
  --------------------------
    NSO        =      2019
    NMO        =      1981
    NRI        =      7157
    NRI (Elst) =      8896
    NOCC A     =        26
    NOCC B     =       300
    FOCC A     =         7
    FOCC B     =        96
    NVIR A     =      1955
    NVIR B     =      1681

    Elst10,r            =    -0.008854388426 [Eh]
    Exch10              =     0.000001610972 [Eh]
    Exch10 (S^2)        =     0.000001610970 [Eh]

    Iter     Energy [mEh]          dE [mEh]         Residual      Time [s]
       1      -0.01692255       0.016922546       1.225914651           408
       2      -0.01599722      -0.000925323       0.314079422           699
       3      -0.01754342       0.001546195       0.085217797          1017
       4      -0.01763570       0.000092284       0.037984603          1310
       5      -0.01756645      -0.000069252       0.012260626          1612
       6      -0.01756588      -0.000000573       0.003998730          2009
       7      -0.01757131       0.000005435       0.001279955          2364
       8      -0.01757209       0.000000783       0.000371940          2663
       9      -0.01757184      -0.000000250       0.000128042          2982
      10      -0.01757174      -0.000000109       0.000034781          3245
      11      -0.01757174       0.000000009       0.000009550          3685
      12      -0.01757175       0.000000007       0.000002911          4028
      13      -0.01757175       0.000000001       0.000000974          4367

    CHF Iterations converged


    Iter     Energy [mEh]          dE [mEh]         Residual      Time [s]
       1      -6.10176715       6.101767153      42.506616814           470
       2      -3.94001398      -2.161753169       5.084052590           855
       3      -3.92031224      -0.019701745       1.727288704          1158
       4      -3.99367149       0.073359253       0.574720610          1481
       5      -4.00389342       0.010221931       0.226977586          2001
       6      -4.00218024      -0.001713185       0.153074789          2306
       7      -3.99981569      -0.002364552       0.058836432          2659
       8      -3.99997529       0.000159607       0.024219163          2978
       9      -4.00033204       0.000356750       0.008493695          3319
      10      -4.00031767      -0.000014372       0.005152586          3651
      11      -4.00027823      -0.000039443       0.002399413          3923
      12      -4.00027017      -0.000008062       0.001445519          4175
      13      -4.00027963       0.000009465       0.000881071          4431
      14      -4.00028461       0.000004981       0.000576564          4686
      15      -4.00028253      -0.000002087       0.000412063          4963
      16      -4.00027897      -0.000003553       0.000181540          5259
      17      -4.00028041       0.000001434       0.000094396          5594
      18      -4.00028109       0.000000679       0.000050986          5901
      19      -4.00028088      -0.000000211       0.000037672          6262
      20      -4.00028062      -0.000000253       0.000015618          6612
      21      -4.00028067       0.000000045       0.000007307          6927
      22      -4.00028071       0.000000045       0.000002835          7271
      23      -4.00028071       0.000000001       0.000001011          7593
      24      -4.00028071      -0.000000005       0.000000443          7875

    CHF Iterations converged

    Ind20,r (A<-B)      =    -0.000017571752 [Eh]
    Ind20,r (B<-A)      =    -0.004000280708 [Eh]
    Ind20,r             =    -0.004017852460 [Eh]
    Exch-Ind20,r (A<-B) =     0.000000097111 [Eh]
    Exch-Ind20,r (B<-A) =     0.000001430902 [Eh]
    Exch-Ind20,r        =     0.000001528012 [Eh]
    Disp20              =    -0.002141404955 [Eh]
    Disp20 (SS)         =    -0.001070702478 [Eh]
    Disp20 (OS)         =    -0.001070702478 [Eh]
    Exch-Disp20         =     0.000000597811 [Eh]
    Exch-Disp20 (SS)    =     0.000000436269 [Eh]
    Exch-Disp20 (OS)    =     0.000000161543 [Eh]

    SAPT Results 
  --------------------------------------------------------------------------------------------------------
    Electrostatics                 -8.85438843 [mEh]      -5.55621262 [kcal/mol]     -23.24719361 [kJ/mol]
      Elst10,r                     -8.85438843 [mEh]      -5.55621262 [kcal/mol]     -23.24719361 [kJ/mol]

    Exchange                        0.00161097 [mEh]       0.00101090 [kcal/mol]       0.00422961 [kJ/mol]
      Exch10                        0.00161097 [mEh]       0.00101090 [kcal/mol]       0.00422961 [kJ/mol]
      Exch10(S^2)                   0.00161097 [mEh]       0.00101090 [kcal/mol]       0.00422960 [kJ/mol]

    Induction                      -4.10861413 [mEh]      -2.57819429 [kcal/mol]     -10.78716491 [kJ/mol]
      Ind20,r                      -4.01785246 [mEh]      -2.52124048 [kcal/mol]     -10.54887018 [kJ/mol]
      Exch-Ind20,r                  0.00152801 [mEh]       0.00095884 [kcal/mol]       0.00401180 [kJ/mol]
      delta HF,r (2)               -0.09228968 [mEh]      -0.05791265 [kcal/mol]      -0.24230652 [kJ/mol]

    Dispersion                     -2.14080714 [mEh]      -1.34337676 [kcal/mol]      -5.62068838 [kJ/mol]
      Disp20                       -2.14140496 [mEh]      -1.34375190 [kcal/mol]      -5.62225794 [kJ/mol]
      Exch-Disp20                   0.00059781 [mEh]       0.00037513 [kcal/mol]       0.00156955 [kJ/mol]
      Disp20 (SS)                  -1.07070248 [mEh]      -0.67187595 [kcal/mol]      -2.81112897 [kJ/mol]
      Disp20 (OS)                  -1.07070248 [mEh]      -0.67187595 [kcal/mol]      -2.81112897 [kJ/mol]
      Exch-Disp20 (SS)              0.00043627 [mEh]       0.00027376 [kcal/mol]       0.00114542 [kJ/mol]
      Exch-Disp20 (OS)              0.00016154 [mEh]       0.00010137 [kcal/mol]       0.00042413 [kJ/mol]

  Total HF                        -12.96139158 [mEh]      -8.13339601 [kcal/mol]     -34.03012891 [kJ/mol]
  Total SAPT0                     -15.10219873 [mEh]      -9.47677278 [kcal/mol]     -39.65081729 [kJ/mol]

  Special recipe for scaled SAPT0 (see Manual):
    Electrostatics sSAPT0          -8.85438843 [mEh]      -5.55621262 [kcal/mol]     -23.24719361 [kJ/mol]
    Exchange sSAPT0                 0.00161097 [mEh]       0.00101090 [kcal/mol]       0.00422961 [kJ/mol]
    Induction sSAPT0               -4.10861413 [mEh]      -2.57819429 [kcal/mol]     -10.78716491 [kJ/mol]
    Dispersion sSAPT0              -2.14080714 [mEh]      -1.34337676 [kcal/mol]      -5.62068838 [kJ/mol]
  Total sSAPT0                    -15.10219873 [mEh]      -9.47677278 [kcal/mol]     -39.65081729 [kJ/mol]
  --------------------------------------------------------------------------------------------------------

*** tstop() called on n2cn0565 at Sat Jan 27 13:06:24 2024
Module time:
	user time   =   79658.77 seconds =    1327.65 minutes
	system time =    4685.57 seconds =      78.09 minutes
	total time  =      34826 seconds =     580.43 minutes
Total time:
	user time   =  132208.44 seconds =    2203.47 minutes
	system time =   10179.49 seconds =     169.66 minutes
	total time  =      46312 seconds =     771.87 minutes

    Psi4 stopped on: Saturday, 27 January 2024 01:06PM
    Psi4 wall time for execution: 12:51:53.54

*** Psi4 exiting successfully. Buy a developer a beer!
