
    -----------------------------------------------------------------------
          Psi4: An Open-Source Ab Initio Electronic Structure Package
                               Psi4 1.9 release

                         Git: Rev {} zzzzzzz 


    D. G. A. Smith, L. A. Burns, A. C. Simmonett, R. M. Parrish,
    M. C. Schieber, R. Galvelis, P. Kraus, H. Kruse, R. Di Remigio,
    A. Alenaizan, A. M. James, S. Lehtola, J. P. Misiewicz, M. Scheurer,
    R. A. Shaw, J. B. Schriber, Y. Xie, Z. L. Glick, D. A. Sirianni,
    J. S. O'Brien, J. M. Waldrop, A. Kumar, E. G. Hohenstein,
    B. P. Pritchard, B. R. Brooks, H. F. Schaefer III, A. Yu. Sokolov,
    K. Patkowski, A. E. DePrince III, U. Bozkaya, R. A. King,
    F. A. Evangelista, J. M. Turney, T. D. Crawford, C. D. Sherrill,
    J. Chem. Phys. 152(18) 184108 (2020). https://doi.org/10.1063/5.0006002

                            Additional Code Authors
    E. T. Seidl, C. L. Janssen, E. F. Valeev, M. L. Leininger,
    J. F. Gonthier, R. M. Richard, H. R. McAlexander, M. Saitow, X. Wang,
    P. Verma, M. H. Lechner, A. Jiang, S. Behnle, A. G. Heide,
    M. F. Herbst, and D. L. Poole

             Previous Authors, Complete List of Code Contributors,
                       and Citations for Specific Modules
    https://github.com/psi4/psi4/blob/master/codemeta.json
    https://github.com/psi4/psi4/graphs/contributors
    http://psicode.org/psi4manual/master/introduction.html#citing-psifour

    -----------------------------------------------------------------------


    Psi4 started on: Wednesday, 24 January 2024 06:29PM

    Process ID: 2437227
    Host:       n2cn0262
    PSIDATADIR: /opt/software/pc2/EB-SW/software/PSI4/1.9-foss-2022a/share/psi4
    Memory:     500.0 MiB
    Threads:    16
    
  ==> Input File <==

--------------------------------------------------------------------------
memory 47 GB # how much memory is available ! Depends on the nodes/cores !

molecule dimer {
# monomer A
+1 1    # Charge and multiplicity
C  0.680067 1.417258 -7.815929
C -0.680504 1.419286 -7.815545
N -1.085635 1.420284 -6.497221
C  0.000108 1.423560 -5.715820
C -2.477365 1.469690 -6.029242
N  1.085222 1.420284 -6.497221
H  1.385146 1.409430 -8.633368
H -1.385302 1.419096 -8.633214
H -0.000009 1.425307 -4.634731
C  2.478117 1.403392 -6.032123
H  2.490592 1.430737 -4.941870
H  2.967028 0.489946 -6.379299
H  3.001428 2.278875 -6.423595
H -2.857359 2.491761 -6.109201
H -3.082679 0.799606 -6.642306
H -2.518128 1.142706 -4.989294
--
# monomer B
0 1     # Charge and multiplicity
C   -3.66844126402057      7.80375217008252      0.00190004133558
C   -4.84759871934653      7.13124183134024     -0.00046653359696
C   -4.89495929917518      5.69633040353158     -0.00103944469517
C   -3.65374067877320      4.98073034095895      0.00662099703436
C   -2.40942512149445      7.11398103667468      0.00209438359570
C   -2.42547734410473      5.68112195090346     -0.00491050527438
C   -1.19474401643570      7.78614419430947      0.00356656413763
C   0.03795902893699      7.09942164575698      0.00139585983271
C   0.03033258741920      5.66948955970466     -0.00408752508301
C   -1.20098450790502      4.96927034791531      0.00488220885047
C   1.27795782581485      7.77285944319479      0.00277170839332
C   2.48535808472416      7.08769688523756      0.00049722048857
C   2.48612868491717      5.65477081024076     -0.00644052849921
C   1.25408291964399      4.95607811366431      0.00518741308898
C   3.75171459140595      7.76391215098033      0.00062407186893
C   4.92356605618520      7.07878077698995     -0.00143240883900
C   4.95560727132542      5.64344746336949     -0.00159282164606
C   3.70680153420475      4.94121020833308      0.00349873852374
H   -3.65852113775815      8.89082741913536      0.00358502958574
H   -1.18921332975660      8.87412108735996      0.00753844057883
H   1.28429423888630      8.86083343548850      0.00693053253426
H   3.75354208679975      8.85103527897216      0.00214659618464
H   5.86995870320703      7.61379483465560     -0.00235777588134
H   -5.78823170750226      7.67630221293400     -0.00202638095293
C   -6.09197395869619      4.99326001364347     -0.00291168518608
C   -6.12866148031747      3.58258016879823     -0.00171050815740
C   -3.66457974004527      3.56418217974434     -0.00463560277484
C   -4.89429820469869      2.86108077590057      0.00453338221034
C   -2.43733499489796      2.84761165708481      0.00719617576166
C   -1.20922785759670      3.54788693497833     -0.00648285103018
C   1.24714157216223      3.53468075142962     -0.00729145743546
C   0.01517603956900      2.83311183930540      0.00439272578912
C   2.46764517244071      2.82128997725533      0.00449278391269
C   3.70254947457969      3.52466015442405     -0.00899517692985
C   6.14498038638375      4.92757236613191     -0.00282626685777
C   6.16658835886151      3.51658447594213     -0.00065971342101
C   4.92460995845939      2.80840792535402      0.00587903281610
H   7.08990550964105      5.46688776622306     -0.00658814770723
H   -7.03104175110130      5.54268795285765     -0.00714490013730
C   -7.33969804112295      2.85841153457957     -0.00333767559888
C   -7.36488195805880      1.47032337158330     -0.00157213747140
C   -4.90350460894690      1.44442681216000     -0.00628840166334
C   -6.13225715261081      0.73993935705394      0.00600164231964
C   -3.67687480051673      0.72669714267312      0.00433931473643
C   -2.44565658606518      1.42964113326212     -0.00597039546461
C   -1.22360068130162      0.71532450163492      0.00545886906656
C   0.00763786931376      1.41738314923765      0.00392452278437
C   1.23121980774686      0.70211669058719     -0.01490206287210
C   2.46082110053113      1.40329203612573      0.00460244601878
C   3.68443025419614      0.68719842821222      0.00377365974158
C   4.91870890153864      1.39173456118907     -0.00862816189375
C   7.36980207796101      2.77948220318441     -0.00242013321349
C   7.38016266612146      1.39121750785509     -0.00087345036788
C   6.13979953912259      0.67411862320065      0.00545489144369
H   -8.27919079934664      3.40711804112415     -0.00763522772059
H   8.31511347147953      3.31811809662368     -0.00663070901292
C   -8.59175593758115      0.72483255304480     -0.00123170985383
C   -8.59902460370342     -0.63263980622873      0.00089141472904
C   -6.13981313911873     -0.67413663715361     -0.00609792660607
C   -7.38018411213749     -1.39126618958160      0.00131813493501
C   -4.91868448025621     -1.39175501803000      0.00624257154343
C   -3.68443829568458     -0.68723731573599     -0.00478966852105
C   -2.46081704024768     -1.40334517882457      0.00575341766833
C   -1.23116201232071     -0.70217386488055     -0.00636696112346
C   -0.00756962538737     -1.41741884941102      0.00108956317991
C   1.22364771588843     -0.71527537726392      0.01109518512883
C   2.44567064933149     -1.42964328900682     -0.00065482763106
C   3.67686670284649     -0.72670743155550     -0.00479541202602
C   6.13224884641929     -0.73997883984993     -0.00632338623858
C   4.90351914550401     -1.44445752054090      0.00751768830159
C   8.59901484869081      0.63260386666793     -0.00101133422380
C   8.59174548810050     -0.72485086719319      0.00072504603735
C   7.36486276438985     -1.47033266560598      0.00049486934466
H   -9.52830597181814      1.27684744919284     -0.00270163681798
H   9.54141097460619      1.17457248844457     -0.00206336648518
C   -7.36983790976868     -2.77954514593389      0.00312634335708
C   -4.92459910905015     -2.80843725734101     -0.00460528907921
C   -6.16662249566744     -3.51665219282533      0.00169655107992
C   -3.70251035970491     -3.52468154912026      0.00571878010666
C   -2.46764698511392     -2.82132596280400     -0.00632585824990
C   -0.01513347410770     -2.83314164539971     -0.00604426974092
C   -1.24712184122656     -3.53473217556300      0.00551968366725
C   1.20924506964357     -3.54791467864352      0.00805871345849
C   2.43733602215464     -2.84764173817541     -0.00608104485234
C   4.89430234377080     -2.86112296828604     -0.00526030478103
C   3.66461525504104     -3.56421984553201      0.00761911515957
C   6.12863901474565     -3.58258405771778      0.00096495711699
C   7.33967266469532     -2.85841330737039      0.00248018319869
H   -9.54144911125902     -1.17456346666430      0.00226083090216
H   9.52826186807155     -1.27691907390448      0.00197485379837
H   -8.31516504384864     -3.31814985321231      0.00729857188773
H   8.27915514249207     -3.40714078989363      0.00681973918158
C   -6.14499418870218     -4.92764727278338      0.00302254913999
C   -3.70678334799751     -4.94126171411716     -0.00679841894792
C   -4.95559005800169     -5.64349397349412      0.00116871569699
C   -2.48612132622665     -5.65478557440947      0.00614125209662
C   -1.25405833548005     -4.95612205000132     -0.00503435388927
C   1.20101257386816     -4.96928038819302     -0.00385322963129
C   -0.03033667441341     -5.66952030313900      0.00398997003238
C   3.65375010132847     -4.98074377541453     -0.00309522988330
C   2.42549269587528     -5.68117463552727      0.00628170066869
C   6.09196561781097     -4.99325796338655      0.00325918379042
C   4.89497644461045     -5.69634842095790      0.00202298796027
H   -7.08989238804069     -5.46699984223871      0.00742531082125
H   7.03105520920009     -5.54265853633254      0.00683896355417
C   -4.92354532219813     -7.07882109967734      0.00061394679214
C   -2.48534208823777     -7.08772807792913     -0.00189594564379
C   -3.75168589177895     -7.76394715763627     -0.00170126671874
C   -0.03794895698805     -7.09946487446944     -0.00168022049625
C   -1.27795610040136     -7.77290438466689     -0.00366491325785
C   2.40944432072629     -7.11402201200282     -0.00081701968533
C   1.19474993715296     -7.78618536556242     -0.00296931056689
C   4.84762105249800     -7.13126211057943      0.00168979497423
C   3.66847160587561     -7.80378799294376     -0.00065863938960
H   -5.86994035041618     -7.61383059804164      0.00215798365757
H   5.78824962538815     -7.67633218931421      0.00281691445618
H   -3.75352693944918     -8.85107156923607     -0.00353718114765
H   -1.28430440589466     -8.86087539249706     -0.00809229711623
H   1.18922157469537     -8.87416062058945     -0.00706194725726
H   3.65854661482387     -8.89086063405326     -0.00231318081200

    units angstrom      # Angstroms are the default
    no_reorient         # Geometry fixed, default
    symmetry c1         # C1 symmetry, default
}

set {
    scf_type DF         # Density fitting, faster than exact integrals
    freeze_core True    # Freeze core electrons
    basis jun-cc-pVDZ   # Jun-cc-pVDZ basis set, recommended for sSAPT0 in https://doi.org/10.1063/1.4867135
}

energy('ssapt0')        # Compute sSAPT0 energy, includes also SAPT0
--------------------------------------------------------------------------

  Memory set to  43.772 GiB by Python driver.

Scratch directory: /tmp/
   => Loading Basis Set <=

    Name: JUN-CC-PVDZ
    Role: ORBITAL
    Keyword: BASIS
    atoms 1-2, 4-5, 10, 17-34, 41-53, 56-70, 73-89, 92-104, 109-119, 122-130 entry C          line   164 file /opt/software/pc2/EB-SW/software/PSI4/1.9-foss-2022a/share/psi4/basis/jun-cc-pvdz.gbs 
    atoms 3, 6                                                               entry N          line   198 file /opt/software/pc2/EB-SW/software/PSI4/1.9-foss-2022a/share/psi4/basis/jun-cc-pvdz.gbs 
    atoms 7-9, 11-16, 35-40, 54-55, 71-72, 90-91, 105-108, 120-121, 131-136  entry H          line    36 file /opt/software/pc2/EB-SW/software/PSI4/1.9-foss-2022a/share/psi4/basis/jun-cc-pvdz.gbs 

   => Loading Basis Set <=

    Name: JUN-CC-PVDZ
    Role: ORBITAL
    Keyword: BASIS
    atoms 1-2, 4-5, 10, 17-34, 41-53, 56-70, 73-89, 92-104, 109-119, 122-130 entry C          line   164 file /opt/software/pc2/EB-SW/software/PSI4/1.9-foss-2022a/share/psi4/basis/jun-cc-pvdz.gbs 
    atoms 3, 6                                                               entry N          line   198 file /opt/software/pc2/EB-SW/software/PSI4/1.9-foss-2022a/share/psi4/basis/jun-cc-pvdz.gbs 
    atoms 7-9, 11-16, 35-40, 54-55, 71-72, 90-91, 105-108, 120-121, 131-136  entry H          line    36 file /opt/software/pc2/EB-SW/software/PSI4/1.9-foss-2022a/share/psi4/basis/jun-cc-pvdz.gbs 


  //>>>>>>>>>>>>>>>>>>>>>>>>>>>>>>>>>>>//
  //              Dimer HF             //
  //<<<<<<<<<<<<<<<<<<<<<<<<<<<<<<<<<<<//

   => Libint2 <=

    Primary   basis highest AM E, G, H:  5, 4, 3
    Auxiliary basis highest AM E, G, H:  6, 5, 4
    Onebody   basis highest AM E, G, H:  6, 5, 4
    Solid Harmonics ordering:            gaussian

*** tstart() called on n2cn0262
*** at Wed Jan 24 18:29:10 2024

   => Loading Basis Set <=

    Name: JUN-CC-PVDZ
    Role: ORBITAL
    Keyword: BASIS
    atoms 1-2, 4-5, 10, 17-34, 41-53, 56-70, 73-89, 92-104, 109-119, 122-130 entry C          line   164 file /opt/software/pc2/EB-SW/software/PSI4/1.9-foss-2022a/share/psi4/basis/jun-cc-pvdz.gbs 
    atoms 3, 6                                                               entry N          line   198 file /opt/software/pc2/EB-SW/software/PSI4/1.9-foss-2022a/share/psi4/basis/jun-cc-pvdz.gbs 
    atoms 7-9, 11-16, 35-40, 54-55, 71-72, 90-91, 105-108, 120-121, 131-136  entry H          line    36 file /opt/software/pc2/EB-SW/software/PSI4/1.9-foss-2022a/share/psi4/basis/jun-cc-pvdz.gbs 


         ---------------------------------------------------------
                                   SCF
               by Justin Turney, Rob Parrish, Andy Simmonett
                          and Daniel G. A. Smith
                              RHF Reference
                       16 Threads,  44822 MiB Core
         ---------------------------------------------------------

  ==> Geometry <==

    Molecular point group: c1
    Full point group: C1

    Geometry (in Angstrom), charge = 1, multiplicity = 1:

       Center              X                  Y                   Z               Mass       
    ------------   -----------------  -----------------  -----------------  -----------------
         C            0.680062820275     1.308604348936    -7.312735758930    12.000000000000
         C           -0.680508179725     1.310632348936    -7.312351758930    12.000000000000
         N           -1.085639179725     1.311630348936    -5.994027758930    14.003074004430
         C            0.000103820275     1.314906348936    -5.212626758930    12.000000000000
         C           -2.477369179725     1.361036348936    -5.526048758930    12.000000000000
         N            1.085217820275     1.311630348936    -5.994027758930    14.003074004430
         H            1.385141820275     1.300776348936    -8.130174758930     1.007825032230
         H           -1.385306179725     1.310442348936    -8.130020758930     1.007825032230
         H           -0.000013179725     1.316653348936    -4.131537758930     1.007825032230
         C            2.478112820275     1.294738348936    -5.528929758930    12.000000000000
         H            2.490587820275     1.322083348936    -4.438676758930     1.007825032230
         H            2.967023820275     0.381292348936    -5.876105758930     1.007825032230
         H            3.001423820275     2.170221348936    -5.920401758930     1.007825032230
         H           -2.857363179725     2.383107348936    -5.606007758930     1.007825032230
         H           -3.082683179725     0.690952348936    -6.139112758930     1.007825032230
         H           -2.518132179725     1.034052348936    -4.486100758930     1.007825032230
         C           -3.668445443746     7.695098519018     0.505093282405    12.000000000000
         C           -4.847602899072     7.022588180276     0.502726707473    12.000000000000
         C           -4.894963478901     5.587676752467     0.502153796375    12.000000000000
         C           -3.653744858499     4.872076689895     0.509814238104    12.000000000000
         C           -2.409429301220     7.005327385610     0.505287624666    12.000000000000
         C           -2.425481523830     5.572468299839     0.498282735795    12.000000000000
         C           -1.194748196161     7.677490543245     0.506759805207    12.000000000000
         C            0.037954849212     6.990767994693     0.504589100903    12.000000000000
         C            0.030328407694     5.560835908640     0.499105715987    12.000000000000
         C           -1.200988687630     4.860616696851     0.508075449920    12.000000000000
         C            1.277953646089     7.664205792130     0.505964949463    12.000000000000
         C            2.485353904999     6.979043234173     0.503690461558    12.000000000000
         C            2.486124505192     5.546117159176     0.496752712571    12.000000000000
         C            1.254078739919     4.847424462600     0.508380654159    12.000000000000
         C            3.751710411681     7.655258499916     0.503817312939    12.000000000000
         C            4.923561876460     6.970127125926     0.501760832231    12.000000000000
         C            4.955603091600     5.534793812305     0.501600419424    12.000000000000
         C            3.706797354479     4.832556557269     0.506691979594    12.000000000000
         H           -3.658525317484     8.782173768071     0.506778270656     1.007825032230
         H           -1.189217509482     8.765467436296     0.510731681649     1.007825032230
         H            1.284290059161     8.752179784424     0.510123773604     1.007825032230
         H            3.753537907074     8.742381627908     0.505339837254     1.007825032230
         H            5.869954523482     7.505141183591     0.500835465189     1.007825032230
         H           -5.788235887228     7.567648561870     0.501166860117     1.007825032230
         C           -6.091978138422     4.884606362579     0.500281555884    12.000000000000
         C           -6.128665660043     3.473926517734     0.501482732912    12.000000000000
         C           -3.664583919771     3.455528528680     0.498557638295    12.000000000000
         C           -4.894302384424     2.752427124836     0.507726623280    12.000000000000
         C           -2.437339174623     2.738958006020     0.510389416832    12.000000000000
         C           -1.209232037322     3.439233283914     0.496710390040    12.000000000000
         C            1.247137392437     3.426027100365     0.495901783634    12.000000000000
         C            0.015171859844     2.724458188241     0.507585966859    12.000000000000
         C            2.467640992715     2.712636326191     0.507686024983    12.000000000000
         C            3.702545294854     3.416006503360     0.494198064140    12.000000000000
         C            6.144976206658     4.818918715067     0.500366974212    12.000000000000
         C            6.166584179136     3.407930824878     0.502533527649    12.000000000000
         C            4.924605778734     2.699754274290     0.509072273886    12.000000000000
         H            7.089901329916     5.358234115159     0.496605093363     1.007825032230
         H           -7.031045930827     5.434034301793     0.496048340933     1.007825032230
         C           -7.339702220848     2.749757883515     0.499855565471    12.000000000000
         C           -7.364886137784     1.361669720519     0.501621103598    12.000000000000
         C           -4.903508788672     1.335773161096     0.496904839407    12.000000000000
         C           -6.132261332336     0.631285705989     0.509194883389    12.000000000000
         C           -3.676878980242     0.618043491609     0.507532555806    12.000000000000
         C           -2.445660765791     1.320987482198     0.497222845605    12.000000000000
         C           -1.223604861027     0.606670850570     0.508652110136    12.000000000000
         C            0.007633689588     1.308729498173     0.507117763854    12.000000000000
         C            1.231215628021     0.593463039523     0.488291178198    12.000000000000
         C            2.460816920806     1.294638385061     0.507795687089    12.000000000000
         C            3.684426074471     0.578544777148     0.506966900811    12.000000000000
         C            4.918704721813     1.283080910125     0.494565079176    12.000000000000
         C            7.369797898236     2.670828552120     0.500773107856    12.000000000000
         C            7.380158486396     1.282563856791     0.502319790702    12.000000000000
         C            6.139795359397     0.565464972136     0.508648132514    12.000000000000
         H           -8.279194979072     3.298464390060     0.495558013349     1.007825032230
         H            8.315109291754     3.209464445559     0.496562532057     1.007825032230
         C           -8.591760117307     0.616178901980     0.501961531216    12.000000000000
         C           -8.599028783429    -0.741293457293     0.504084655799    12.000000000000
         C           -6.139817318844    -0.782790288218     0.497095314464    12.000000000000
         C           -7.380188291863    -1.499919840646     0.504511376005    12.000000000000
         C           -4.918688659982    -1.500408669094     0.509435812613    12.000000000000
         C           -3.684442475410    -0.795890966800     0.498403572549    12.000000000000
         C           -2.460821219973    -1.511998829889     0.508946658738    12.000000000000
         C           -1.231166192046    -0.810827515945     0.496826279946    12.000000000000
         C           -0.007573805113    -1.526072500475     0.504282804250    12.000000000000
         C            1.223643536163    -0.823929028328     0.514288426199    12.000000000000
         C            2.445666469606    -1.538296940071     0.502538413439    12.000000000000
         C            3.676862523121    -0.835361082620     0.498397829044    12.000000000000
         C            6.132244666694    -0.848632490914     0.496869854831    12.000000000000
         C            4.903514965779    -1.553111171605     0.510710929371    12.000000000000
         C            8.599010668965     0.523950215603     0.502181906846    12.000000000000
         C            8.591741308375    -0.833504518258     0.503918287107    12.000000000000
         C            7.364858584664    -1.578986316670     0.503688110415    12.000000000000
         H           -9.528310151544     1.168193798128     0.500491604252     1.007825032230
         H            9.541406794881     1.065918837380     0.501129874585     1.007825032230
         C           -7.369842089494    -2.888198796998     0.506319584427    12.000000000000
         C           -4.924603288776    -2.917090908405     0.498587951991    12.000000000000
         C           -6.166626675393    -3.625305843890     0.504889792150    12.000000000000
         C           -3.702514539430    -3.633335200185     0.508912021177    12.000000000000
         C           -2.467651164839    -2.929979613868     0.496867382820    12.000000000000
         C           -0.015137653833    -2.941795296464     0.497148971329    12.000000000000
         C           -1.247126020952    -3.643385826627     0.508712924737    12.000000000000
         C            1.209240889918    -3.656568329708     0.511251954528    12.000000000000
         C            2.437331842429    -2.956295389240     0.497112196218    12.000000000000
         C            4.894298164045    -2.969776619350     0.497932936289    12.000000000000
         C            3.664611075316    -3.672873496596     0.510812356229    12.000000000000
         C            6.128634835020    -3.691237708782     0.504158198187    12.000000000000
         C            7.339668484970    -2.967066958435     0.505673424269    12.000000000000
         H           -9.541453290984    -1.283217117729     0.505454071972     1.007825032230
         H            9.528257688346    -1.385572724969     0.505168094868     1.007825032230
         H           -8.315169223574    -3.426803504277     0.510491812958     1.007825032230
         H            8.279150962767    -3.515794440958     0.510012980251     1.007825032230
         C           -6.144998368428    -5.036300923848     0.506215790210    12.000000000000
         C           -3.706787527723    -5.049915365182     0.496394822122    12.000000000000
         C           -4.955594237727    -5.752147624559     0.504361956767    12.000000000000
         C           -2.486125505952    -5.763439225474     0.509334493166    12.000000000000
         C           -1.254062515205    -5.064775701066     0.498158887181    12.000000000000
         C            1.201008394143    -5.077934039257     0.499340011439    12.000000000000
         C           -0.030340854139    -5.778173954203     0.507183211102    12.000000000000
         C            3.653745921603    -5.089397426479     0.500098011187    12.000000000000
         C            2.425488516150    -5.789828286592     0.509474941739    12.000000000000
         C            6.091961438086    -5.101911614451     0.506452424860    12.000000000000
         C            4.894972264885    -5.805002072022     0.505216229030    12.000000000000
         H           -7.089896567766    -5.575653493303     0.510618551891     1.007825032230
         H            7.031051029475    -5.651312187397     0.510032204624     1.007825032230
         C           -4.923549501924    -7.187474750742     0.503807187862    12.000000000000
         C           -2.485346267963    -7.196381728994     0.501297295426    12.000000000000
         C           -3.751690071504    -7.872600808701     0.501491974351    12.000000000000
         C           -0.037953136713    -7.208118525534     0.501513020574    12.000000000000
         C           -1.277960280127    -7.881558035731     0.499528327812    12.000000000000
         C            2.409440141001    -7.222675663067     0.502376221385    12.000000000000
         C            1.194745757428    -7.894839016627     0.500223930503    12.000000000000
         C            4.847616872773    -7.239915761644     0.504883036044    12.000000000000
         C            3.668467426150    -7.912441644008     0.502534601680    12.000000000000
         H           -5.869944530142    -7.722484249106     0.505351224727     1.007825032230
         H            5.788245445663    -7.784985840379     0.506010155526     1.007825032230
         H           -3.753531119175    -8.959725220301     0.499656059922     1.007825032230
         H           -1.284308585620    -8.969529043562     0.495100943954     1.007825032230
         H            1.189217394970    -8.982814271654     0.496131293813     1.007825032230
         H            3.658542435098    -8.999514285118     0.500880060258     1.007825032230

  Running in c1 symmetry.

  Rotational constants: A =      0.00060  B =      0.00060  C =      0.00035 [cm^-1]
  Rotational constants: A =     18.00900  B =     17.99639  C =     10.47174 [MHz]
  Nuclear repulsion = 17786.478858374044648

  Charge       = 1
  Multiplicity = 1
  Electrons    = 652
  Nalpha       = 326
  Nbeta        = 326

  ==> Algorithm <==

  SCF Algorithm Type is DF.
  DIIS enabled.
  MOM disabled.
  Fractional occupation disabled.
  Guess Type is SAD.
  Energy threshold   = 1.00e-08
  Density threshold  = 1.00e-08
  Integral threshold = 1.00e-12

  ==> Primary Basis <==

  Basis Set: JUN-CC-PVDZ
    Blend: JUN-CC-PVDZ
    Number of shells: 923
    Number of basis functions: 2019
    Number of Cartesian functions: 2122
    Spherical Harmonics?: true
    Max angular momentum: 2

   => Loading Basis Set <=

    Name: (JUN-CC-PVDZ AUX)
    Role: JKFIT
    Keyword: DF_BASIS_SCF
    atoms 1-2, 4-5, 10, 17-34, 41-53, 56-70, 73-89, 92-104, 109-119, 122-130 entry C          line   146 file /opt/software/pc2/EB-SW/software/PSI4/1.9-foss-2022a/share/psi4/basis/jun-cc-pvdz-jkfit.gbs 
    atoms 3, 6                                                               entry N          line   202 file /opt/software/pc2/EB-SW/software/PSI4/1.9-foss-2022a/share/psi4/basis/jun-cc-pvdz-jkfit.gbs 
    atoms 7-9, 11-16, 35-40, 54-55, 71-72, 90-91, 105-108, 120-121, 131-136  entry H          line    70 file /opt/software/pc2/EB-SW/software/PSI4/1.9-foss-2022a/share/psi4/basis/jun-cc-pvdz-jkfit.gbs 

  ==> Integral Setup <==

  ==> DiskDFJK: Density-Fitted J/K Matrices <==

    J tasked:                  Yes
    K tasked:                  Yes
    wK tasked:                  No
    OpenMP threads:             16
    Integrals threads:          16
    Memory [MiB]:            33617
    Algorithm:                Disk
    Integral Cache:           SAVE
    Schwarz Cutoff:          1E-12
    Fitting Condition:       1E-10

   => Auxiliary Basis Set <=

  Basis Set: (JUN-CC-PVDZ AUX)
    Blend: JUN-CC-PVDZ-JKFIT
    Number of shells: 3078
    Number of basis functions: 8896
    Number of Cartesian functions: 10198
    Spherical Harmonics?: true
    Max angular momentum: 3

  Minimum eigenvalue in the overlap matrix is 8.9513151670E-11.
  Reciprocal condition number of the overlap matrix is 3.9165154982E-12.
    Using canonical orthogonalization.
  Overall, 38 of 2019 possible MOs eliminated.


  ==> Pre-Iterations <==

  SCF Guess: Superposition of Atomic Densities via on-the-fly atomic UHF (no occupation information).

   -------------------------
    Irrep   Nso     Nmo    
   -------------------------
     A       2019    1981 
   -------------------------
    Total    2019    1981
   -------------------------

  ==> Iterations <==

                           Total Energy        Delta E     RMS |[F,P]|

   @DF-RHF iter SAD: -3967.13672468292953   -3.96714e+03   0.00000e+00 
   @DF-RHF iter   1: -3952.10639212876822    1.50303e+01   7.15680e-04 ADIIS/DIIS
   @DF-RHF iter   2: -3953.49767621095043   -1.39128e+00   2.34068e-04 ADIIS/DIIS
   @DF-RHF iter   3: -3953.62073138692631   -1.23055e-01   1.02545e-04 ADIIS/DIIS
   @DF-RHF iter   4: -3953.64379240427024   -2.30610e-02   4.33754e-05 DIIS
   @DF-RHF iter   5: -3953.64857500669632   -4.78260e-03   1.06704e-05 DIIS
   @DF-RHF iter   6: -3953.64903400218464   -4.58995e-04   4.61811e-06 DIIS
   @DF-RHF iter   7: -3953.64922037048518   -1.86368e-04   2.20975e-06 DIIS
   @DF-RHF iter   8: -3953.64928278971001   -6.24192e-05   1.10202e-06 DIIS
   @DF-RHF iter   9: -3953.64930023999113   -1.74503e-05   3.53475e-07 DIIS
   @DF-RHF iter  10: -3953.64930141585501   -1.17586e-06   1.44380e-07 DIIS
   @DF-RHF iter  11: -3953.64930156422042   -1.48365e-07   5.87818e-08 DIIS
   @DF-RHF iter  12: -3953.64930159626738   -3.20470e-08   2.91635e-08 DIIS
   @DF-RHF iter  13: -3953.64930160233507   -6.06769e-09   9.43630e-09 DIIS
  Energy and wave function converged.


  ==> Post-Iterations <==

    Orbital Energies [Eh]
    ---------------------

    Doubly Occupied:                                                      

       1A    -15.817335     2A    -15.816822     3A    -11.511894  
       4A    -11.444206     5A    -11.442650     6A    -11.431947  
       7A    -11.431857     8A    -11.324739     9A    -11.323839  
      10A    -11.323736    11A    -11.323322    12A    -11.322943  
      13A    -11.322845    14A    -11.322396    15A    -11.322369  
      16A    -11.322123    17A    -11.322099    18A    -11.321524  
      19A    -11.321448    20A    -11.321380    21A    -11.321156  
      22A    -11.321003    23A    -11.320681    24A    -11.320649  
      25A    -11.320072    26A    -11.319833    27A    -11.319810  
      28A    -11.319790    29A    -11.319658    30A    -11.319374  
      31A    -11.319368    32A    -11.319060    33A    -11.318859  
      34A    -11.318479    35A    -11.318468    36A    -11.318059  
      37A    -11.317930    38A    -11.317897    39A    -11.317430  
      40A    -11.317415    41A    -11.317297    42A    -11.317280  
      43A    -11.317231    44A    -11.317203    45A    -11.316793  
      46A    -11.316769    47A    -11.316624    48A    -11.316171  
      49A    -11.316154    50A    -11.316144    51A    -11.316127  
      52A    -11.316095    53A    -11.316068    54A    -11.315906  
      55A    -11.315882    56A    -11.315730    57A    -11.315715  
      58A    -11.315569    59A    -11.315384    60A    -11.315268  
      61A    -11.315241    62A    -11.315015    63A    -11.314988  
      64A    -11.314678    65A    -11.314649    66A    -11.313931  
      67A    -11.313902    68A    -11.313869    69A    -11.313840  
      70A    -11.313823    71A    -11.313616    72A    -11.313597  
      73A    -11.313208    74A    -11.313187    75A    -11.312631  
      76A    -11.312619    77A    -11.312440    78A    -11.312075  
      79A    -11.312065    80A    -11.308862    81A    -11.308784  
      82A    -11.308701    83A    -11.308672    84A    -11.307684  
      85A    -11.307641    86A    -11.307636    87A    -11.307604  
      88A    -11.306934    89A    -11.306916    90A    -11.306160  
      91A    -11.306127    92A    -11.306018    93A    -11.305982  
      94A    -11.305615    95A    -11.305604    96A    -11.305301  
      97A    -11.305219    98A    -11.304481    99A    -11.304445  
     100A    -11.303769   101A    -11.303763   102A    -11.302280  
     103A    -11.302275   104A     -1.561205   105A     -1.416654  
     106A     -1.312471   107A     -1.295929   108A     -1.295677  
     109A     -1.276258   110A     -1.276250   111A     -1.272437  
     112A     -1.255945   113A     -1.250986   114A     -1.244870  
     115A     -1.244703   116A     -1.228414   117A     -1.228411  
     118A     -1.221998   119A     -1.211928   120A     -1.211899  
     121A     -1.209191   122A     -1.199085   123A     -1.199067  
     124A     -1.184019   125A     -1.171948   126A     -1.170903  
     127A     -1.168840   128A     -1.168668   129A     -1.167418  
     130A     -1.165694   131A     -1.143742   132A     -1.143698  
     133A     -1.131101   134A     -1.131091   135A     -1.123437  
     136A     -1.123380   137A     -1.121122   138A     -1.101768  
     139A     -1.101739   140A     -1.101460   141A     -1.095463  
     142A     -1.092849   143A     -1.092844   144A     -1.081552  
     145A     -1.078477   146A     -1.078406   147A     -1.062397  
     148A     -1.061668   149A     -1.058608   150A     -1.056137  
     151A     -1.056120   152A     -1.044835   153A     -1.026328  
     154A     -1.026293   155A     -1.010268   156A     -1.010251  
     157A     -1.005897   158A     -0.979701   159A     -0.962418  
     160A     -0.962314   161A     -0.961490   162A     -0.959198  
     163A     -0.959163   164A     -0.949046   165A     -0.949007  
     166A     -0.946661   167A     -0.946300   168A     -0.944825  
     169A     -0.926308   170A     -0.922025   171A     -0.906161  
     172A     -0.903873   173A     -0.903662   174A     -0.901465  
     175A     -0.899800   176A     -0.898452   177A     -0.889312  
     178A     -0.889282   179A     -0.881766   180A     -0.881756  
     181A     -0.840439   182A     -0.840330   183A     -0.838374  
     184A     -0.837830   185A     -0.837586   186A     -0.836981  
     187A     -0.836638   188A     -0.833410   189A     -0.822158  
     190A     -0.817137   191A     -0.806034   192A     -0.799768  
     193A     -0.795349   194A     -0.787410   195A     -0.782131  
     196A     -0.781984   197A     -0.780170   198A     -0.779580  
     199A     -0.779484   200A     -0.774327   201A     -0.773345  
     202A     -0.769345   203A     -0.769335   204A     -0.768945  
     205A     -0.765645   206A     -0.753829   207A     -0.753827  
     208A     -0.741840   209A     -0.740285   210A     -0.740267  
     211A     -0.736823   212A     -0.736814   213A     -0.733649  
     214A     -0.711860   215A     -0.708049   216A     -0.707680  
     217A     -0.705818   218A     -0.705776   219A     -0.705014  
     220A     -0.704959   221A     -0.703605   222A     -0.699913  
     223A     -0.696431   224A     -0.696343   225A     -0.694548  
     226A     -0.693487   227A     -0.691083   228A     -0.691069  
     229A     -0.683903   230A     -0.676904   231A     -0.669077  
     232A     -0.669063   233A     -0.663356   234A     -0.663317  
     235A     -0.656332   236A     -0.656003   237A     -0.654429  
     238A     -0.654125   239A     -0.654041   240A     -0.653471  
     241A     -0.649622   242A     -0.649464   243A     -0.649408  
     244A     -0.649196   245A     -0.646181   246A     -0.646130  
     247A     -0.643483   248A     -0.631523   249A     -0.631520  
     250A     -0.630883   251A     -0.630873   252A     -0.627874  
     253A     -0.626956   254A     -0.623847   255A     -0.623762  
     256A     -0.621045   257A     -0.620911   258A     -0.613894  
     259A     -0.613710   260A     -0.613689   261A     -0.611781  
     262A     -0.609107   263A     -0.605354   264A     -0.600225  
     265A     -0.599607   266A     -0.592037   267A     -0.591833  
     268A     -0.587942   269A     -0.587820   270A     -0.583615  
     271A     -0.582202   272A     -0.582175   273A     -0.579427  
     274A     -0.571987   275A     -0.571865   276A     -0.569812  
     277A     -0.569810   278A     -0.563483   279A     -0.563419  
     280A     -0.552626   281A     -0.551275   282A     -0.551232  
     283A     -0.550217   284A     -0.550189   285A     -0.546242  
     286A     -0.535281   287A     -0.531512   288A     -0.531492  
     289A     -0.528294   290A     -0.525014   291A     -0.521477  
     292A     -0.521377   293A     -0.514250   294A     -0.507779  
     295A     -0.503040   296A     -0.502901   297A     -0.497385  
     298A     -0.497371   299A     -0.497144   300A     -0.488424  
     301A     -0.487848   302A     -0.462727   303A     -0.462671  
     304A     -0.442572   305A     -0.442509   306A     -0.440280  
     307A     -0.439432   308A     -0.439348   309A     -0.409372  
     310A     -0.409327   311A     -0.405793   312A     -0.395894  
     313A     -0.393839   314A     -0.393759   315A     -0.386420  
     316A     -0.386351   317A     -0.363433   318A     -0.358264  
     319A     -0.358229   320A     -0.355422   321A     -0.340752  
     322A     -0.309581   323A     -0.309539   324A     -0.309305  
     325A     -0.259033   326A     -0.258968  

    Virtual:                                                              

     327A     -0.066318   328A     -0.066172   329A     -0.051427  
     330A     -0.047330   331A     -0.039797   332A     -0.031674  
     333A     -0.020979   334A     -0.020877   335A     -0.017891  
     336A     -0.015458   337A     -0.013627   338A     -0.013033  
     339A     -0.006926   340A     -0.001740   341A      0.000675  
     342A      0.001242   343A      0.002692   344A      0.004437  
     345A      0.007731   346A      0.009155   347A      0.009909  
     348A      0.010556   349A      0.011219   350A      0.012001  
     351A      0.014120   352A      0.014260   353A      0.015199  
     354A      0.015985   355A      0.018706   356A      0.018752  
     357A      0.019123   358A      0.023374   359A      0.024244  
     360A      0.024333   361A      0.026692   362A      0.028331  
     363A      0.029682   364A      0.030109   365A      0.030148  
     366A      0.033875   367A      0.038328   368A      0.039213  
     369A      0.039627   370A      0.040158   371A      0.041059  
     372A      0.041561   373A      0.044630   374A      0.047689  
     375A      0.048216   376A      0.048965   377A      0.052048  
     378A      0.052411   379A      0.053137   380A      0.054165  
     381A      0.056934   382A      0.057454   383A      0.058239  
     384A      0.060071   385A      0.060875   386A      0.061224  
     387A      0.061422   388A      0.061900   389A      0.062066  
     390A      0.062798   391A      0.065199   392A      0.068124  
     393A      0.070474   394A      0.071140   395A      0.071617  
     396A      0.072574   397A      0.075249   398A      0.076270  
     399A      0.080579   400A      0.081721   401A      0.082666  
     402A      0.083468   403A      0.084251   404A      0.085987  
     405A      0.086484   406A      0.088293   407A      0.089687  
     408A      0.091524   409A      0.092332   410A      0.092542  
     411A      0.093319   412A      0.096209   413A      0.096335  
     414A      0.097894   415A      0.098563   416A      0.101255  
     417A      0.102847   418A      0.103073   419A      0.105736  
     420A      0.110028   421A      0.110201   422A      0.110303  
     423A      0.111003   424A      0.111626   425A      0.112573  
     426A      0.113740   427A      0.114636   428A      0.116215  
     429A      0.116450   430A      0.119463   431A      0.119835  
     432A      0.120169   433A      0.122407   434A      0.122910  
     435A      0.124942   436A      0.125996   437A      0.127142  
     438A      0.128622   439A      0.131138   440A      0.131799  
     441A      0.132203   442A      0.133577   443A      0.136688  
     444A      0.137429   445A      0.138000   446A      0.140856  
     447A      0.141004   448A      0.141350   449A      0.141849  
     450A      0.144177   451A      0.149017   452A      0.149157  
     453A      0.150093   454A      0.151209   455A      0.151507  
     456A      0.152267   457A      0.153165   458A      0.154232  
     459A      0.154360   460A      0.155905   461A      0.156507  
     462A      0.157216   463A      0.158123   464A      0.158697  
     465A      0.159753   466A      0.159857   467A      0.160413  
     468A      0.161256   469A      0.162368   470A      0.162922  
     471A      0.163743   472A      0.165091   473A      0.166088  
     474A      0.166464   475A      0.167050   476A      0.167665  
     477A      0.169263   478A      0.170190   479A      0.171521  
     480A      0.171651   481A      0.172180   482A      0.172681  
     483A      0.173950   484A      0.174922   485A      0.175560  
     486A      0.176527   487A      0.179674   488A      0.179804  
     489A      0.180199   490A      0.180581   491A      0.181660  
     492A      0.184572   493A      0.185384   494A      0.186773  
     495A      0.187128   496A      0.188914   497A      0.189601  
     498A      0.190161   499A      0.191362   500A      0.192312  
     501A      0.192981   502A      0.194404   503A      0.196998  
     504A      0.197389   505A      0.198342   506A      0.198957  
     507A      0.200611   508A      0.201624   509A      0.204127  
     510A      0.204535   511A      0.204891   512A      0.207465  
     513A      0.209215   514A      0.209307   515A      0.211266  
     516A      0.212475   517A      0.213480   518A      0.214130  
     519A      0.215328   520A      0.215948   521A      0.216342  
     522A      0.217636   523A      0.217937   524A      0.219417  
     525A      0.219708   526A      0.221457   527A      0.223225  
     528A      0.224670   529A      0.225901   530A      0.226458  
     531A      0.226657   532A      0.227689   533A      0.227989  
     534A      0.228494   535A      0.230982   536A      0.231786  
     537A      0.233125   538A      0.234820   539A      0.235849  
     540A      0.236066   541A      0.236952   542A      0.239730  
     543A      0.240453   544A      0.241038   545A      0.241152  
     546A      0.242279   547A      0.243240   548A      0.243893  
     549A      0.245045   550A      0.246021   551A      0.247814  
     552A      0.249143   553A      0.250716   554A      0.251755  
     555A      0.252548   556A      0.253914   557A      0.254284  
     558A      0.255470   559A      0.255539   560A      0.256466  
     561A      0.256900   562A      0.257528   563A      0.259372  
     564A      0.262019   565A      0.262296   566A      0.264064  
     567A      0.264715   568A      0.266176   569A      0.267337  
     570A      0.267550   571A      0.268075   572A      0.268823  
     573A      0.268889   574A      0.269122   575A      0.269644  
     576A      0.271114   577A      0.271675   578A      0.273487  
     579A      0.273860   580A      0.275884   581A      0.278253  
     582A      0.279106   583A      0.279656   584A      0.280211  
     585A      0.280573   586A      0.281123   587A      0.281239  
     588A      0.281388   589A      0.283007   590A      0.284074  
     591A      0.286451   592A      0.286723   593A      0.288119  
     594A      0.289739   595A      0.289999   596A      0.291987  
     597A      0.292656   598A      0.293521   599A      0.294397  
     600A      0.294800   601A      0.294914   602A      0.295428  
     603A      0.297112   604A      0.297377   605A      0.297876  
     606A      0.298934   607A      0.300499   608A      0.300861  
     609A      0.302538   610A      0.303491   611A      0.305505  
     612A      0.307930   613A      0.309110   614A      0.310723  
     615A      0.311053   616A      0.312156   617A      0.314455  
     618A      0.315480   619A      0.316170   620A      0.316684  
     621A      0.316951   622A      0.318159   623A      0.318474  
     624A      0.321546   625A      0.323261   626A      0.324588  
     627A      0.324940   628A      0.326333   629A      0.327026  
     630A      0.327399   631A      0.328769   632A      0.329154  
     633A      0.329763   634A      0.330404   635A      0.330754  
     636A      0.333639   637A      0.334089   638A      0.338141  
     639A      0.339104   640A      0.339959   641A      0.340959  
     642A      0.341187   643A      0.341779   644A      0.342376  
     645A      0.343088   646A      0.343535   647A      0.344316  
     648A      0.344465   649A      0.345093   650A      0.345151  
     651A      0.346470   652A      0.347343   653A      0.347992  
     654A      0.349262   655A      0.350233   656A      0.350886  
     657A      0.351437   658A      0.351624   659A      0.352649  
     660A      0.353131   661A      0.353835   662A      0.355927  
     663A      0.356401   664A      0.356609   665A      0.357545  
     666A      0.358194   667A      0.359386   668A      0.360510  
     669A      0.361589   670A      0.361817   671A      0.363286  
     672A      0.363440   673A      0.363691   674A      0.364561  
     675A      0.365822   676A      0.366617   677A      0.366918  
     678A      0.369243   679A      0.371436   680A      0.373536  
     681A      0.374110   682A      0.375408   683A      0.376273  
     684A      0.376804   685A      0.377308   686A      0.377627  
     687A      0.378031   688A      0.378497   689A      0.379802  
     690A      0.381889   691A      0.382364   692A      0.383485  
     693A      0.383849   694A      0.385355   695A      0.386245  
     696A      0.386882   697A      0.387166   698A      0.388095  
     699A      0.391143   700A      0.391511   701A      0.397051  
     702A      0.397703   703A      0.399022   704A      0.399565  
     705A      0.400048   706A      0.400613   707A      0.401317  
     708A      0.402172   709A      0.402775   710A      0.403058  
     711A      0.404409   712A      0.405021   713A      0.405921  
     714A      0.406844   715A      0.409338   716A      0.409901  
     717A      0.411490   718A      0.412361   719A      0.413082  
     720A      0.413632   721A      0.414622   722A      0.415596  
     723A      0.415757   724A      0.416962   725A      0.417400  
     726A      0.418290   727A      0.419760   728A      0.421254  
     729A      0.421812   730A      0.421905   731A      0.423336  
     732A      0.423911   733A      0.424472   734A      0.426238  
     735A      0.426731   736A      0.427770   737A      0.428945  
     738A      0.429770   739A      0.432588   740A      0.433229  
     741A      0.434272   742A      0.436205   743A      0.437002  
     744A      0.439425   745A      0.439908   746A      0.440266  
     747A      0.441352   748A      0.443907   749A      0.444120  
     750A      0.444738   751A      0.447996   752A      0.449486  
     753A      0.449833   754A      0.451017   755A      0.451436  
     756A      0.451678   757A      0.453436   758A      0.454165  
     759A      0.456197   760A      0.457318   761A      0.459823  
     762A      0.462418   763A      0.462690   764A      0.463300  
     765A      0.463960   766A      0.465159   767A      0.465463  
     768A      0.466408   769A      0.468130   770A      0.469012  
     771A      0.471896   772A      0.472652   773A      0.473583  
     774A      0.477181   775A      0.479234   776A      0.479337  
     777A      0.479685   778A      0.483831   779A      0.484854  
     780A      0.485003   781A      0.486818   782A      0.487127  
     783A      0.489696   784A      0.490767   785A      0.491800  
     786A      0.493564   787A      0.501173   788A      0.503703  
     789A      0.504994   790A      0.508243   791A      0.508983  
     792A      0.509940   793A      0.511741   794A      0.512898  
     795A      0.514177   796A      0.516057   797A      0.516952  
     798A      0.517454   799A      0.518592   800A      0.519428  
     801A      0.521911   802A      0.522540   803A      0.523567  
     804A      0.524484   805A      0.524822   806A      0.525247  
     807A      0.527064   808A      0.529605   809A      0.531996  
     810A      0.532295   811A      0.533308   812A      0.535955  
     813A      0.536009   814A      0.537504   815A      0.538570  
     816A      0.538924   817A      0.542780   818A      0.543717  
     819A      0.544986   820A      0.547968   821A      0.548852  
     822A      0.550398   823A      0.551567   824A      0.552315  
     825A      0.558085   826A      0.562335   827A      0.564683  
     828A      0.565407   829A      0.566505   830A      0.567070  
     831A      0.571858   832A      0.575834   833A      0.576256  
     834A      0.577250   835A      0.579113   836A      0.584123  
     837A      0.586301   838A      0.590252   839A      0.592282  
     840A      0.597397   841A      0.601112   842A      0.602265  
     843A      0.603654   844A      0.605334   845A      0.605994  
     846A      0.606075   847A      0.608218   848A      0.611375  
     849A      0.611977   850A      0.613415   851A      0.617510  
     852A      0.625757   853A      0.630695   854A      0.631544  
     855A      0.632023   856A      0.632544   857A      0.635806  
     858A      0.637205   859A      0.637303   860A      0.638689  
     861A      0.641797   862A      0.643724   863A      0.646053  
     864A      0.646239   865A      0.646653   866A      0.649051  
     867A      0.652344   868A      0.652776   869A      0.656637  
     870A      0.663516   871A      0.665082   872A      0.666988  
     873A      0.673415   874A      0.677767   875A      0.678269  
     876A      0.682259   877A      0.684827   878A      0.686302  
     879A      0.686808   880A      0.689294   881A      0.689692  
     882A      0.690396   883A      0.691700   884A      0.696188  
     885A      0.696347   886A      0.699843   887A      0.700324  
     888A      0.710419   889A      0.715636   890A      0.716572  
     891A      0.721996   892A      0.725718   893A      0.729832  
     894A      0.730815   895A      0.734358   896A      0.735315  
     897A      0.736136   898A      0.739300   899A      0.740398  
     900A      0.741030   901A      0.743779   902A      0.747244  
     903A      0.749870   904A      0.749963   905A      0.754391  
     906A      0.754806   907A      0.756501   908A      0.757718  
     909A      0.759432   910A      0.761114   911A      0.762633  
     912A      0.763794   913A      0.764456   914A      0.767504  
     915A      0.767950   916A      0.770647   917A      0.772979  
     918A      0.775007   919A      0.777548   920A      0.778242  
     921A      0.780912   922A      0.781592   923A      0.782569  
     924A      0.783324   925A      0.786148   926A      0.787786  
     927A      0.790581   928A      0.792182   929A      0.794327  
     930A      0.794639   931A      0.798061   932A      0.799856  
     933A      0.801174   934A      0.803527   935A      0.805329  
     936A      0.807737   937A      0.808560   938A      0.809150  
     939A      0.811234   940A      0.813511   941A      0.814972  
     942A      0.815606   943A      0.816180   944A      0.816931  
     945A      0.818541   946A      0.820557   947A      0.821704  
     948A      0.822177   949A      0.824272   950A      0.825097  
     951A      0.826245   952A      0.828378   953A      0.830797  
     954A      0.832258   955A      0.833207   956A      0.835861  
     957A      0.836162   958A      0.838287   959A      0.839184  
     960A      0.839556   961A      0.843690   962A      0.846213  
     963A      0.846540   964A      0.847252   965A      0.853180  
     966A      0.853980   967A      0.854219   968A      0.858770  
     969A      0.859938   970A      0.861234   971A      0.863749  
     972A      0.864813   973A      0.866444   974A      0.866874  
     975A      0.868181   976A      0.868943   977A      0.869158  
     978A      0.869998   979A      0.873525   980A      0.874043  
     981A      0.876364   982A      0.876825   983A      0.879166  
     984A      0.879893   985A      0.880834   986A      0.883008  
     987A      0.884669   988A      0.886686   989A      0.887876  
     990A      0.889280   991A      0.891258   992A      0.892320  
     993A      0.894013   994A      0.894880   995A      0.896230  
     996A      0.897039   997A      0.898991   998A      0.899272  
     999A      0.899770  1000A      0.900380  1001A      0.901913  
    1002A      0.903036  1003A      0.903873  1004A      0.904277  
    1005A      0.904903  1006A      0.905949  1007A      0.912443  
    1008A      0.913150  1009A      0.914872  1010A      0.916394  
    1011A      0.917501  1012A      0.920438  1013A      0.924177  
    1014A      0.928589  1015A      0.928888  1016A      0.931424  
    1017A      0.933278  1018A      0.940085  1019A      0.940474  
    1020A      0.940657  1021A      0.940849  1022A      0.945922  
    1023A      0.947895  1024A      0.949349  1025A      0.950093  
    1026A      0.951010  1027A      0.951960  1028A      0.952569  
    1029A      0.955902  1030A      0.956728  1031A      0.959879  
    1032A      0.962291  1033A      0.962643  1034A      0.965581  
    1035A      0.966063  1036A      0.967550  1037A      0.968738  
    1038A      0.969430  1039A      0.974433  1040A      0.976461  
    1041A      0.977734  1042A      0.979913  1043A      0.982638  
    1044A      0.983036  1045A      0.983390  1046A      0.984328  
    1047A      0.986792  1048A      0.989739  1049A      0.991575  
    1050A      0.992119  1051A      0.992730  1052A      0.994049  
    1053A      0.994217  1054A      0.994732  1055A      0.995793  
    1056A      0.997382  1057A      0.998155  1058A      0.999130  
    1059A      0.999519  1060A      0.999818  1061A      1.002125  
    1062A      1.004926  1063A      1.007168  1064A      1.008188  
    1065A      1.009401  1066A      1.010413  1067A      1.012117  
    1068A      1.012571  1069A      1.012833  1070A      1.014283  
    1071A      1.014577  1072A      1.015902  1073A      1.016991  
    1074A      1.017677  1075A      1.018311  1076A      1.018825  
    1077A      1.019412  1078A      1.019903  1079A      1.020300  
    1080A      1.020953  1081A      1.021785  1082A      1.023156  
    1083A      1.023342  1084A      1.023857  1085A      1.024798  
    1086A      1.025419  1087A      1.027038  1088A      1.027553  
    1089A      1.028160  1090A      1.028404  1091A      1.028946  
    1092A      1.029717  1093A      1.030216  1094A      1.032414  
    1095A      1.033291  1096A      1.034484  1097A      1.034897  
    1098A      1.036084  1099A      1.036195  1100A      1.036915  
    1101A      1.039433  1102A      1.040886  1103A      1.042352  
    1104A      1.043549  1105A      1.044693  1106A      1.045502  
    1107A      1.045812  1108A      1.046643  1109A      1.047387  
    1110A      1.048508  1111A      1.049359  1112A      1.050275  
    1113A      1.056601  1114A      1.057766  1115A      1.059314  
    1116A      1.061823  1117A      1.064623  1118A      1.065597  
    1119A      1.066129  1120A      1.067154  1121A      1.072639  
    1122A      1.074196  1123A      1.075694  1124A      1.076755  
    1125A      1.078992  1126A      1.079514  1127A      1.079607  
    1128A      1.080302  1129A      1.082763  1130A      1.082983  
    1131A      1.084673  1132A      1.087595  1133A      1.089618  
    1134A      1.090460  1135A      1.092220  1136A      1.092446  
    1137A      1.094892  1138A      1.096125  1139A      1.096532  
    1140A      1.098270  1141A      1.101844  1142A      1.103025  
    1143A      1.103318  1144A      1.104741  1145A      1.108029  
    1146A      1.108469  1147A      1.112693  1148A      1.113033  
    1149A      1.115252  1150A      1.116123  1151A      1.120936  
    1152A      1.121444  1153A      1.124027  1154A      1.127019  
    1155A      1.129168  1156A      1.131010  1157A      1.131976  
    1158A      1.133789  1159A      1.137458  1160A      1.138193  
    1161A      1.139330  1162A      1.146283  1163A      1.146929  
    1164A      1.147622  1165A      1.148243  1166A      1.150957  
    1167A      1.151295  1168A      1.151736  1169A      1.156273  
    1170A      1.157291  1171A      1.160393  1172A      1.161393  
    1173A      1.162781  1174A      1.163473  1175A      1.165214  
    1176A      1.168533  1177A      1.169364  1178A      1.169727  
    1179A      1.171002  1180A      1.172927  1181A      1.174444  
    1182A      1.179376  1183A      1.180383  1184A      1.192544  
    1185A      1.192712  1186A      1.195035  1187A      1.198088  
    1188A      1.198593  1189A      1.199349  1190A      1.201961  
    1191A      1.208125  1192A      1.208268  1193A      1.209179  
    1194A      1.210096  1195A      1.216482  1196A      1.217482  
    1197A      1.218709  1198A      1.221059  1199A      1.227038  
    1200A      1.232096  1201A      1.232773  1202A      1.236631  
    1203A      1.237678  1204A      1.238512  1205A      1.240168  
    1206A      1.241362  1207A      1.242837  1208A      1.244656  
    1209A      1.249496  1210A      1.249828  1211A      1.252436  
    1212A      1.253085  1213A      1.253869  1214A      1.259331  
    1215A      1.260114  1216A      1.260901  1217A      1.262222  
    1218A      1.265929  1219A      1.266040  1220A      1.266904  
    1221A      1.267549  1222A      1.269022  1223A      1.273148  
    1224A      1.273763  1225A      1.276833  1226A      1.278002  
    1227A      1.278787  1228A      1.282438  1229A      1.282768  
    1230A      1.285629  1231A      1.285993  1232A      1.288587  
    1233A      1.290493  1234A      1.292405  1235A      1.298801  
    1236A      1.301265  1237A      1.301350  1238A      1.303789  
    1239A      1.304621  1240A      1.307598  1241A      1.310109  
    1242A      1.310214  1243A      1.312223  1244A      1.313356  
    1245A      1.317524  1246A      1.319093  1247A      1.319995  
    1248A      1.322108  1249A      1.322887  1250A      1.327554  
    1251A      1.334394  1252A      1.335504  1253A      1.336641  
    1254A      1.341571  1255A      1.341707  1256A      1.342115  
    1257A      1.344046  1258A      1.346969  1259A      1.348170  
    1260A      1.352875  1261A      1.353806  1262A      1.354579  
    1263A      1.355125  1264A      1.358103  1265A      1.359825  
    1266A      1.360721  1267A      1.363705  1268A      1.365463  
    1269A      1.366598  1270A      1.367863  1271A      1.369324  
    1272A      1.372013  1273A      1.373213  1274A      1.373700  
    1275A      1.375541  1276A      1.377410  1277A      1.378281  
    1278A      1.379914  1279A      1.382834  1280A      1.383029  
    1281A      1.384964  1282A      1.386518  1283A      1.388527  
    1284A      1.389046  1285A      1.392091  1286A      1.392797  
    1287A      1.394811  1288A      1.396959  1289A      1.397584  
    1290A      1.399048  1291A      1.401105  1292A      1.403052  
    1293A      1.409464  1294A      1.411097  1295A      1.415719  
    1296A      1.416866  1297A      1.417866  1298A      1.418149  
    1299A      1.419566  1300A      1.426960  1301A      1.429991  
    1302A      1.430519  1303A      1.431829  1304A      1.436261  
    1305A      1.440802  1306A      1.441484  1307A      1.445820  
    1308A      1.448242  1309A      1.450630  1310A      1.451171  
    1311A      1.452077  1312A      1.462387  1313A      1.463971  
    1314A      1.483102  1315A      1.485893  1316A      1.486283  
    1317A      1.489372  1318A      1.492260  1319A      1.497964  
    1320A      1.498013  1321A      1.499778  1322A      1.524145  
    1323A      1.528153  1324A      1.537757  1325A      1.539639  
    1326A      1.539825  1327A      1.544301  1328A      1.546998  
    1329A      1.548119  1330A      1.549613  1331A      1.550430  
    1332A      1.551826  1333A      1.553754  1334A      1.555287  
    1335A      1.556288  1336A      1.556660  1337A      1.558688  
    1338A      1.558987  1339A      1.559726  1340A      1.560750  
    1341A      1.561391  1342A      1.564541  1343A      1.566053  
    1344A      1.566768  1345A      1.568435  1346A      1.570789  
    1347A      1.572076  1348A      1.572665  1349A      1.575140  
    1350A      1.575490  1351A      1.580015  1352A      1.580762  
    1353A      1.581095  1354A      1.582526  1355A      1.582931  
    1356A      1.583274  1357A      1.584163  1358A      1.584666  
    1359A      1.585459  1360A      1.587032  1361A      1.588506  
    1362A      1.590447  1363A      1.590767  1364A      1.596099  
    1365A      1.597428  1366A      1.597892  1367A      1.601812  
    1368A      1.602038  1369A      1.602668  1370A      1.609318  
    1371A      1.609827  1372A      1.612478  1373A      1.612744  
    1374A      1.613161  1375A      1.614100  1376A      1.614135  
    1377A      1.615553  1378A      1.621788  1379A      1.622437  
    1380A      1.622827  1381A      1.623675  1382A      1.628555  
    1383A      1.633093  1384A      1.634420  1385A      1.637967  
    1386A      1.639862  1387A      1.640696  1388A      1.641525  
    1389A      1.641863  1390A      1.643001  1391A      1.645055  
    1392A      1.654713  1393A      1.654904  1394A      1.655116  
    1395A      1.659385  1396A      1.661376  1397A      1.661686  
    1398A      1.664482  1399A      1.665893  1400A      1.666850  
    1401A      1.667150  1402A      1.669838  1403A      1.670790  
    1404A      1.682969  1405A      1.683451  1406A      1.686566  
    1407A      1.690495  1408A      1.691599  1409A      1.693032  
    1410A      1.693335  1411A      1.695576  1412A      1.696543  
    1413A      1.705763  1414A      1.708695  1415A      1.710354  
    1416A      1.713865  1417A      1.725141  1418A      1.727345  
    1419A      1.731722  1420A      1.733945  1421A      1.734495  
    1422A      1.746454  1423A      1.746740  1424A      1.754258  
    1425A      1.756313  1426A      1.763897  1427A      1.766910  
    1428A      1.768860  1429A      1.770263  1430A      1.771913  
    1431A      1.772795  1432A      1.773491  1433A      1.774157  
    1434A      1.775014  1435A      1.776770  1436A      1.778275  
    1437A      1.779142  1438A      1.780166  1439A      1.781898  
    1440A      1.782142  1441A      1.782593  1442A      1.782931  
    1443A      1.788499  1444A      1.790051  1445A      1.802511  
    1446A      1.802721  1447A      1.805453  1448A      1.805804  
    1449A      1.807802  1450A      1.807951  1451A      1.810318  
    1452A      1.811206  1453A      1.813249  1454A      1.815985  
    1455A      1.816495  1456A      1.819341  1457A      1.819839  
    1458A      1.821411  1459A      1.827029  1460A      1.827955  
    1461A      1.828321  1462A      1.829101  1463A      1.829490  
    1464A      1.829995  1465A      1.830868  1466A      1.831739  
    1467A      1.832230  1468A      1.834113  1469A      1.834460  
    1470A      1.835807  1471A      1.843293  1472A      1.848775  
    1473A      1.849454  1474A      1.852055  1475A      1.852154  
    1476A      1.857039  1477A      1.859934  1478A      1.860466  
    1479A      1.862437  1480A      1.865798  1481A      1.866526  
    1482A      1.867059  1483A      1.868045  1484A      1.869411  
    1485A      1.870151  1486A      1.871131  1487A      1.876696  
    1488A      1.882152  1489A      1.882813  1490A      1.883436  
    1491A      1.884534  1492A      1.885230  1493A      1.885491  
    1494A      1.886205  1495A      1.887694  1496A      1.889336  
    1497A      1.890102  1498A      1.891673  1499A      1.896347  
    1500A      1.898275  1501A      1.898865  1502A      1.900862  
    1503A      1.904266  1504A      1.905105  1505A      1.906450  
    1506A      1.906772  1507A      1.907354  1508A      1.912717  
    1509A      1.913889  1510A      1.914776  1511A      1.916555  
    1512A      1.917760  1513A      1.918633  1514A      1.919861  
    1515A      1.922061  1516A      1.927524  1517A      1.927692  
    1518A      1.930448  1519A      1.935377  1520A      1.937750  
    1521A      1.937967  1522A      1.939128  1523A      1.939543  
    1524A      1.941504  1525A      1.952436  1526A      1.953405  
    1527A      1.956118  1528A      1.956868  1529A      1.957919  
    1530A      1.961387  1531A      1.961816  1532A      1.962535  
    1533A      1.963022  1534A      1.964579  1535A      1.964978  
    1536A      1.965234  1537A      1.967074  1538A      1.969956  
    1539A      1.972654  1540A      1.975397  1541A      1.977658  
    1542A      1.979168  1543A      1.979991  1544A      1.982376  
    1545A      1.984781  1546A      1.987580  1547A      1.988142  
    1548A      1.992595  1549A      1.994839  1550A      1.995368  
    1551A      1.997891  1552A      1.999279  1553A      2.001374  
    1554A      2.003272  1555A      2.004220  1556A      2.004945  
    1557A      2.005440  1558A      2.006220  1559A      2.011857  
    1560A      2.014230  1561A      2.014414  1562A      2.016021  
    1563A      2.020927  1564A      2.023620  1565A      2.025032  
    1566A      2.025596  1567A      2.026073  1568A      2.026665  
    1569A      2.028211  1570A      2.028452  1571A      2.029332  
    1572A      2.031609  1573A      2.032477  1574A      2.034090  
    1575A      2.034519  1576A      2.035971  1577A      2.036651  
    1578A      2.037777  1579A      2.038105  1580A      2.039380  
    1581A      2.040239  1582A      2.041831  1583A      2.042550  
    1584A      2.044039  1585A      2.044961  1586A      2.047223  
    1587A      2.047276  1588A      2.048088  1589A      2.052856  
    1590A      2.055974  1591A      2.057746  1592A      2.057858  
    1593A      2.058303  1594A      2.058962  1595A      2.059424  
    1596A      2.062252  1597A      2.063170  1598A      2.064668  
    1599A      2.065954  1600A      2.071875  1601A      2.072227  
    1602A      2.072588  1603A      2.073005  1604A      2.073111  
    1605A      2.074049  1606A      2.074362  1607A      2.076237  
    1608A      2.080441  1609A      2.081193  1610A      2.081976  
    1611A      2.083090  1612A      2.087057  1613A      2.088501  
    1614A      2.089732  1615A      2.089943  1616A      2.090677  
    1617A      2.091457  1618A      2.099827  1619A      2.100161  
    1620A      2.101704  1621A      2.103498  1622A      2.103692  
    1623A      2.104656  1624A      2.104926  1625A      2.106016  
    1626A      2.109482  1627A      2.109888  1628A      2.116690  
    1629A      2.117012  1630A      2.124437  1631A      2.125813  
    1632A      2.127134  1633A      2.128262  1634A      2.129117  
    1635A      2.133589  1636A      2.134224  1637A      2.134968  
    1638A      2.135434  1639A      2.136947  1640A      2.138419  
    1641A      2.141621  1642A      2.142299  1643A      2.143756  
    1644A      2.144606  1645A      2.146167  1646A      2.146788  
    1647A      2.150255  1648A      2.150969  1649A      2.151736  
    1650A      2.154814  1651A      2.158053  1652A      2.158997  
    1653A      2.159770  1654A      2.164749  1655A      2.168348  
    1656A      2.168796  1657A      2.169336  1658A      2.169636  
    1659A      2.171121  1660A      2.173531  1661A      2.174237  
    1662A      2.178101  1663A      2.179516  1664A      2.180762  
    1665A      2.181494  1666A      2.181714  1667A      2.183299  
    1668A      2.183477  1669A      2.187622  1670A      2.192386  
    1671A      2.194574  1672A      2.194796  1673A      2.195726  
    1674A      2.208744  1675A      2.209213  1676A      2.210802  
    1677A      2.212145  1678A      2.213220  1679A      2.216715  
    1680A      2.217649  1681A      2.220737  1682A      2.228713  
    1683A      2.229930  1684A      2.236453  1685A      2.238099  
    1686A      2.240789  1687A      2.243031  1688A      2.243945  
    1689A      2.249605  1690A      2.250231  1691A      2.254635  
    1692A      2.259020  1693A      2.268452  1694A      2.270239  
    1695A      2.270549  1696A      2.271558  1697A      2.273587  
    1698A      2.274470  1699A      2.276309  1700A      2.276834  
    1701A      2.277416  1702A      2.278444  1703A      2.280360  
    1704A      2.283719  1705A      2.286717  1706A      2.287352  
    1707A      2.287667  1708A      2.289667  1709A      2.290160  
    1710A      2.290978  1711A      2.293236  1712A      2.293605  
    1713A      2.310958  1714A      2.314868  1715A      2.315919  
    1716A      2.316037  1717A      2.329820  1718A      2.333095  
    1719A      2.334760  1720A      2.336061  1721A      2.337632  
    1722A      2.341096  1723A      2.350143  1724A      2.359403  
    1725A      2.363838  1726A      2.364997  1727A      2.368327  
    1728A      2.373131  1729A      2.376340  1730A      2.387117  
    1731A      2.389022  1732A      2.396756  1733A      2.397734  
    1734A      2.410013  1735A      2.410045  1736A      2.413437  
    1737A      2.413603  1738A      2.417778  1739A      2.418073  
    1740A      2.437563  1741A      2.438074  1742A      2.439136  
    1743A      2.448212  1744A      2.453256  1745A      2.453865  
    1746A      2.457707  1747A      2.463021  1748A      2.465268  
    1749A      2.483095  1750A      2.484154  1751A      2.485024  
    1752A      2.485818  1753A      2.488093  1754A      2.489183  
    1755A      2.489949  1756A      2.492947  1757A      2.494585  
    1758A      2.495675  1759A      2.497471  1760A      2.500223  
    1761A      2.500404  1762A      2.509324  1763A      2.515050  
    1764A      2.516725  1765A      2.518943  1766A      2.527366  
    1767A      2.530967  1768A      2.531147  1769A      2.531877  
    1770A      2.532243  1771A      2.536337  1772A      2.536805  
    1773A      2.538855  1774A      2.541865  1775A      2.547444  
    1776A      2.547621  1777A      2.558618  1778A      2.558961  
    1779A      2.559291  1780A      2.559754  1781A      2.563284  
    1782A      2.563725  1783A      2.578123  1784A      2.585700  
    1785A      2.586821  1786A      2.588856  1787A      2.590412  
    1788A      2.593132  1789A      2.593277  1790A      2.594239  
    1791A      2.594964  1792A      2.599761  1793A      2.602591  
    1794A      2.602919  1795A      2.609582  1796A      2.610717  
    1797A      2.614113  1798A      2.616891  1799A      2.617437  
    1800A      2.618499  1801A      2.623349  1802A      2.624449  
    1803A      2.625470  1804A      2.630117  1805A      2.631159  
    1806A      2.632366  1807A      2.636223  1808A      2.636507  
    1809A      2.636831  1810A      2.638210  1811A      2.641159  
    1812A      2.642622  1813A      2.649288  1814A      2.660080  
    1815A      2.667389  1816A      2.675640  1817A      2.676039  
    1818A      2.676852  1819A      2.679021  1820A      2.679167  
    1821A      2.682524  1822A      2.697880  1823A      2.703051  
    1824A      2.703631  1825A      2.704537  1826A      2.710185  
    1827A      2.714557  1828A      2.715851  1829A      2.719406  
    1830A      2.724428  1831A      2.724863  1832A      2.727963  
    1833A      2.742998  1834A      2.743891  1835A      2.745453  
    1836A      2.746282  1837A      2.746431  1838A      2.753007  
    1839A      2.754080  1840A      2.757037  1841A      2.758690  
    1842A      2.758755  1843A      2.761401  1844A      2.762045  
    1845A      2.767078  1846A      2.771880  1847A      2.772133  
    1848A      2.784858  1849A      2.785647  1850A      2.787070  
    1851A      2.787435  1852A      2.791355  1853A      2.805246  
    1854A      2.809721  1855A      2.809808  1856A      2.816035  
    1857A      2.817467  1858A      2.819720  1859A      2.822537  
    1860A      2.838454  1861A      2.839379  1862A      2.856650  
    1863A      2.864718  1864A      2.864924  1865A      2.874694  
    1866A      2.876920  1867A      2.881510  1868A      2.881647  
    1869A      2.909162  1870A      2.911548  1871A      2.912076  
    1872A      2.922620  1873A      2.932572  1874A      2.938737  
    1875A      2.938862  1876A      2.974112  1877A      2.974935  
    1878A      2.982072  1879A      2.985512  1880A      2.991286  
    1881A      2.992968  1882A      2.993729  1883A      2.995563  
    1884A      3.002211  1885A      3.002416  1886A      3.012053  
    1887A      3.018223  1888A      3.055415  1889A      3.059776  
    1890A      3.060098  1891A      3.064730  1892A      3.068180  
    1893A      3.072551  1894A      3.073529  1895A      3.078133  
    1896A      3.079007  1897A      3.082025  1898A      3.088572  
    1899A      3.089833  1900A      3.094258  1901A      3.094308  
    1902A      3.096268  1903A      3.097094  1904A      3.100662  
    1905A      3.109524  1906A      3.111371  1907A      3.120009  
    1908A      3.122136  1909A      3.122424  1910A      3.140061  
    1911A      3.141102  1912A      3.167437  1913A      3.198749  
    1914A      3.205775  1915A      3.206647  1916A      3.206801  
    1917A      3.207695  1918A      3.209998  1919A      3.214110  
    1920A      3.217419  1921A      3.221099  1922A      3.221559  
    1923A      3.238804  1924A      3.241301  1925A      3.242754  
    1926A      3.248975  1927A      3.305550  1928A      3.306473  
    1929A      3.314227  1930A      3.359487  1931A      3.373232  
    1932A      3.375743  1933A      3.377805  1934A      3.388727  
    1935A      3.393127  1936A      3.404040  1937A      3.408140  
    1938A      3.409250  1939A      3.415105  1940A      3.418029  
    1941A      3.425467  1942A      3.430749  1943A      3.437630  
    1944A      3.452737  1945A      3.455693  1946A      3.483042  
    1947A      3.518575  1948A      3.520057  1949A      3.527442  
    1950A      3.535427  1951A      3.544642  1952A      3.583659  
    1953A      3.586269  1954A      3.609185  1955A      3.612229  
    1956A      3.649324  1957A      3.690906  1958A      3.694821  
    1959A      3.695453  1960A      3.706583  1961A      3.722710  
    1962A      3.724616  1963A      3.787511  1964A      3.788518  
    1965A      3.817054  1966A      3.819845  1967A      3.849928  
    1968A      3.857288  1969A      3.880779  1970A      3.883679  
    1971A      3.893219  1972A      3.894394  1973A      3.902512  
    1974A      3.907127  1975A      3.914525  1976A      3.968146  
    1977A      3.970583  1978A      4.013946  1979A      4.171558  
    1980A      4.243298  1981A      4.334870  

    Final Occupation by Irrep:
              A 
    DOCC [   326 ]
    NA   [   326 ]
    NB   [   326 ]

  @DF-RHF Final Energy: -3953.64930160233507

   => Energetics <=

    Nuclear Repulsion Energy =          17786.4788583740446484
    One-Electron Energy =              -40783.3423171053145779
    Two-Electron Energy =               19043.2141571289357671
    Total Energy =                      -3953.6493016023341625

Computation Completed


Properties will be evaluated at   0.000000,   0.000000,   0.000000 [a0]

Properties computed using the SCF density matrix


 Multipole Moments:

 ------------------------------------------------------------------------------------
     Multipole            Electronic (a.u.)      Nuclear  (a.u.)        Total (a.u.)
 ------------------------------------------------------------------------------------

 L = 1.  Multiply by 2.5417464519 to convert [e a0] to [Debye]
 Dipole X            :         -0.0026697            0.0004804           -0.0021893
 Dipole Y            :         -6.9319476            8.7122315            1.7802839
 Dipole Z            :         28.3062296          -38.1969296           -9.8907000
 Magnitude           :                                                   10.0496448

 ------------------------------------------------------------------------------------

*** tstop() called on n2cn0262 at Wed Jan 24 20:13:31 2024
Module time:
	user time   =   27706.37 seconds =     461.77 minutes
	system time =    1790.09 seconds =      29.83 minutes
	total time  =       6261 seconds =     104.35 minutes
Total time:
	user time   =   27706.37 seconds =     461.77 minutes
	system time =    1790.09 seconds =      29.83 minutes
	total time  =       6261 seconds =     104.35 minutes

  //>>>>>>>>>>>>>>>>>>>>>>>>>>>>>>>>>>>//
  //            Monomer A HF           //
  //<<<<<<<<<<<<<<<<<<<<<<<<<<<<<<<<<<<//

   => Libint2 <=

    Primary   basis highest AM E, G, H:  5, 4, 3
    Auxiliary basis highest AM E, G, H:  6, 5, 4
    Onebody   basis highest AM E, G, H:  6, 5, 4
    Solid Harmonics ordering:            gaussian

*** tstart() called on n2cn0262
*** at Wed Jan 24 20:13:32 2024

   => Loading Basis Set <=

    Name: JUN-CC-PVDZ
    Role: ORBITAL
    Keyword: BASIS
    atoms 1-2, 4-5, 10, 17-34, 41-53, 56-70, 73-89, 92-104, 109-119, 122-130 entry C          line   164 file /opt/software/pc2/EB-SW/software/PSI4/1.9-foss-2022a/share/psi4/basis/jun-cc-pvdz.gbs 
    atoms 3, 6                                                               entry N          line   198 file /opt/software/pc2/EB-SW/software/PSI4/1.9-foss-2022a/share/psi4/basis/jun-cc-pvdz.gbs 
    atoms 7-9, 11-16, 35-40, 54-55, 71-72, 90-91, 105-108, 120-121, 131-136  entry H          line    36 file /opt/software/pc2/EB-SW/software/PSI4/1.9-foss-2022a/share/psi4/basis/jun-cc-pvdz.gbs 


         ---------------------------------------------------------
                                   SCF
               by Justin Turney, Rob Parrish, Andy Simmonett
                          and Daniel G. A. Smith
                              RHF Reference
                       16 Threads,  44822 MiB Core
         ---------------------------------------------------------

  ==> Geometry <==

    Molecular point group: c1
    Full point group: C1

    Geometry (in Angstrom), charge = 1, multiplicity = 1:

       Center              X                  Y                   Z               Mass       
    ------------   -----------------  -----------------  -----------------  -----------------
         C            0.680062820275     1.308604348936    -7.312735758930    12.000000000000
         C           -0.680508179725     1.310632348936    -7.312351758930    12.000000000000
         N           -1.085639179725     1.311630348936    -5.994027758930    14.003074004430
         C            0.000103820275     1.314906348936    -5.212626758930    12.000000000000
[...]
    1582A      2.172206  1583A      2.179665  1584A      2.181335  
    1585A      2.181662  1586A      2.182664  1587A      2.188755  
    1588A      2.188973  1589A      2.190435  1590A      2.191594  
    1591A      2.191986  1592A      2.194936  1593A      2.195961  
    1594A      2.197564  1595A      2.198626  1596A      2.200286  
    1597A      2.200780  1598A      2.201024  1599A      2.201468  
    1600A      2.203955  1601A      2.205151  1602A      2.205615  
    1603A      2.207346  1604A      2.210085  1605A      2.213506  
    1606A      2.213940  1607A      2.217250  1608A      2.220203  
    1609A      2.222370  1610A      2.222742  1611A      2.224257  
    1612A      2.224728  1613A      2.225300  1614A      2.226577  
    1615A      2.228942  1616A      2.232160  1617A      2.232497  
    1618A      2.234162  1619A      2.238906  1620A      2.239108  
    1621A      2.239844  1622A      2.241500  1623A      2.247722  
    1624A      2.248389  1625A      2.248895  1626A      2.251101  
    1627A      2.260929  1628A      2.261696  1629A      2.263380  
    1630A      2.265022  1631A      2.266810  1632A      2.267779  
    1633A      2.269955  1634A      2.277039  1635A      2.282157  
    1636A      2.282926  1637A      2.284414  1638A      2.289105  
    1639A      2.290591  1640A      2.291295  1641A      2.296523  
    1642A      2.296860  1643A      2.303871  1644A      2.304265  
    1645A      2.309085  1646A      2.311513  1647A      2.316984  
    1648A      2.324757  1649A      2.325009  1650A      2.325337  
    1651A      2.327296  1652A      2.329578  1653A      2.330630  
    1654A      2.331180  1655A      2.332952  1656A      2.334224  
    1657A      2.334668  1658A      2.336504  1659A      2.340099  
    1660A      2.341431  1661A      2.342234  1662A      2.342421  
    1663A      2.344896  1664A      2.345841  1665A      2.346356  
    1666A      2.349107  1667A      2.349461  1668A      2.358934  
    1669A      2.361426  1670A      2.370470  1671A      2.373182  
    1672A      2.374919  1673A      2.384145  1674A      2.388142  
    1675A      2.389980  1676A      2.391736  1677A      2.394095  
    1678A      2.397207  1679A      2.403628  1680A      2.418433  
    1681A      2.419704  1682A      2.423734  1683A      2.427751  
    1684A      2.432174  1685A      2.441880  1686A      2.443522  
    1687A      2.452341  1688A      2.453111  1689A      2.458114  
    1690A      2.461868  1691A      2.464358  1692A      2.464531  
    1693A      2.467316  1694A      2.467986  1695A      2.469049  
    1696A      2.471962  1697A      2.472206  1698A      2.479283  
    1699A      2.484594  1700A      2.491433  1701A      2.491835  
    1702A      2.494936  1703A      2.501973  1704A      2.507014  
    1705A      2.507303  1706A      2.511600  1707A      2.516437  
    1708A      2.529112  1709A      2.539279  1710A      2.539317  
    1711A      2.540281  1712A      2.542366  1713A      2.542969  
    1714A      2.545541  1715A      2.547850  1716A      2.548549  
    1717A      2.549326  1718A      2.551354  1719A      2.556624  
    1720A      2.556752  1721A      2.564280  1722A      2.571194  
    1723A      2.571753  1724A      2.580023  1725A      2.583699  
    1726A      2.584244  1727A      2.585171  1728A      2.586264  
    1729A      2.587186  1730A      2.588919  1731A      2.589516  
    1732A      2.593232  1733A      2.593595  1734A      2.601464  
    1735A      2.601543  1736A      2.612929  1737A      2.613188  
    1738A      2.613570  1739A      2.613912  1740A      2.617572  
    1741A      2.618056  1742A      2.632967  1743A      2.640611  
    1744A      2.641746  1745A      2.642609  1746A      2.643723  
    1747A      2.645510  1748A      2.647409  1749A      2.648718  
    1750A      2.649283  1751A      2.652661  1752A      2.655879  
    1753A      2.656101  1754A      2.657941  1755A      2.660815  
    1756A      2.666044  1757A      2.666205  1758A      2.667587  
    1759A      2.668829  1760A      2.670700  1761A      2.671368  
    1762A      2.673724  1763A      2.677130  1764A      2.677993  
    1765A      2.683323  1766A      2.685162  1767A      2.686128  
    1768A      2.687525  1769A      2.691303  1770A      2.691528  
    1771A      2.691690  1772A      2.692631  1773A      2.696152  
    1774A      2.697354  1775A      2.704518  1776A      2.720939  
    1777A      2.730763  1778A      2.731078  1779A      2.731228  
    1780A      2.731592  1781A      2.731904  1782A      2.746473  
    1783A      2.752825  1784A      2.754900  1785A      2.760527  
    1786A      2.761089  1787A      2.772208  1788A      2.772749  
    1789A      2.776305  1790A      2.780227  1791A      2.780843  
    1792A      2.799267  1793A      2.799923  1794A      2.801965  
    1795A      2.802218  1796A      2.802247  1797A      2.809400  
    1798A      2.812669  1799A      2.815426  1800A      2.816034  
    1801A      2.816254  1802A      2.816902  1803A      2.823528  
    1804A      2.828526  1805A      2.828795  1806A      2.840165  
    1807A      2.841344  1808A      2.841808  1809A      2.843069  
    1810A      2.846168  1811A      2.848265  1812A      2.862062  
    1813A      2.865636  1814A      2.865771  1815A      2.870426  
    1816A      2.872068  1817A      2.875163  1818A      2.889306  
    1819A      2.895959  1820A      2.896849  1821A      2.900517  
    1822A      2.913495  1823A      2.917763  1824A      2.918017  
    1825A      2.923404  1826A      2.927533  1827A      2.929086  
    1828A      2.930857  1829A      2.935254  1830A      2.935317  
    1831A      2.959901  1832A      2.963374  1833A      2.965506  
    1834A      2.965571  1835A      2.976291  1836A      2.981734  
    1837A      2.992791  1838A      2.993457  1839A      3.014569  
    1840A      3.027610  1841A      3.029551  1842A      3.030316  
    1843A      3.036269  1844A      3.039233  1845A      3.047065  
    1846A      3.047758  1847A      3.048191  1848A      3.054892  
    1849A      3.057673  1850A      3.057854  1851A      3.063768  
    1852A      3.072925  1853A      3.108817  1854A      3.113077  
    1855A      3.113371  1856A      3.122771  1857A      3.127678  
    1858A      3.128442  1859A      3.132767  1860A      3.134705  
    1861A      3.142230  1862A      3.143267  1863A      3.148045  
    1864A      3.149349  1865A      3.149562  1866A      3.150306  
    1867A      3.150407  1868A      3.153742  1869A      3.162267  
    1870A      3.167898  1871A      3.173215  1872A      3.175298  
    1873A      3.175499  1874A      3.193325  1875A      3.194290  
    1876A      3.220219  1877A      3.252967  1878A      3.259675  
    1879A      3.261353  1880A      3.261778  1881A      3.262299  
    1882A      3.264486  1883A      3.268387  1884A      3.271338  
    1885A      3.274940  1886A      3.275614  1887A      3.289279  
    1888A      3.293688  1889A      3.296183  1890A      3.298062  
    1891A      3.303535  1892A      3.317118  1893A      3.332151  
    1894A      3.361649  1895A      3.362468  1896A      3.370367  
    1897A      3.415637  1898A      3.421802  1899A      3.430194  
    1900A      3.432713  1901A      3.437159  1902A      3.446484  
    1903A      3.450824  1904A      3.461696  1905A      3.464668  
    1906A      3.465832  1907A      3.471536  1908A      3.474601  
    1909A      3.482053  1910A      3.487993  1911A      3.494469  
    1912A      3.509192  1913A      3.527868  1914A      3.540192  
    1915A      3.574657  1916A      3.576158  1917A      3.578394  
    1918A      3.583706  1919A      3.590151  1920A      3.639941  
    1921A      3.642673  1922A      3.647157  1923A      3.665285  
    1924A      3.667239  1925A      3.705149  1926A      3.747891  
    1927A      3.749595  1928A      3.750669  1929A      3.759348  
    1930A      3.763818  1931A      3.778746  1932A      3.780179  
    1933A      3.818447  1934A      3.842078  1935A      3.843543  
    1936A      3.870114  1937A      3.871697  1938A      3.874702  
    1939A      3.905185  1940A      3.913169  1941A      3.938113  
    1942A      3.940996  1943A      3.948344  1944A      3.949243  
    1945A      3.958628  1946A      3.964761  1947A      3.969230  
    1948A      3.972248  1949A      4.024718  1950A      4.027490  
    1951A      4.071646  1952A      4.210319  1953A      4.214140  
    1954A      4.230843  1955A      4.302952  1956A      4.360414  
    1957A      4.366819  1958A      4.394223  1959A      4.492801  
    1960A      4.747291  1961A      4.787724  1962A      4.834717  
    1963A      4.850270  1964A      4.940323  1965A      5.056289  
    1966A      5.061388  1967A      5.070461  1968A      5.114703  
    1969A      5.148804  1970A      5.396032  1971A      5.425299  
    1972A      5.736878  1973A      5.763148  1974A      6.069881  
    1975A     18.200295  1976A     18.459509  1977A     18.476640  
    1978A     18.563687  1979A     18.834431  1980A     25.341735  
    1981A     25.377767  

    Final Occupation by Irrep:
              A 
    DOCC [   300 ]
    NA   [   300 ]
    NB   [   300 ]

  @DF-RHF Final Energy: -3650.33833316410937

   => Energetics <=

    Nuclear Repulsion Energy =          15611.4211649754306563
    One-Electron Energy =              -36072.1011240963853197
    Two-Electron Energy =               16810.3416259568475652
    Total Energy =                      -3650.3383331641089171

Computation Completed


Properties will be evaluated at   0.000000,   0.000000,   0.000000 [a0]

Properties computed using the SCF density matrix


 Multipole Moments:

 ------------------------------------------------------------------------------------
     Multipole            Electronic (a.u.)      Nuclear  (a.u.)        Total (a.u.)
 ------------------------------------------------------------------------------------

 L = 1.  Multiply by 2.5417464519 to convert [e a0] to [Debye]
 Dipole X            :         -0.0008792            0.0002112           -0.0006680
 Dipole Y            :        123.2143176         -123.2131634            0.0011542
 Dipole Z            :       -570.5333293          570.5418402            0.0085109
 Magnitude           :                                                    0.0086148

 ------------------------------------------------------------------------------------

*** tstop() called on n2cn0262 at Wed Jan 24 22:17:00 2024
Module time:
	user time   =   20362.00 seconds =     339.37 minutes
	system time =    1632.17 seconds =      27.20 minutes
	total time  =       4934 seconds =      82.23 minutes
Total time:
	user time   =   54088.23 seconds =     901.47 minutes
	system time =    3909.34 seconds =      65.16 minutes
	total time  =      13670 seconds =     227.83 minutes
  Constructing Basis Sets for SAPT...

   => Loading Basis Set <=

    Name: (JUN-CC-PVDZ AUX)
    Role: RIFIT
    Keyword: DF_BASIS_SAPT
    atoms 1-2, 4-5, 10, 17-34, 41-53, 56-70, 73-89, 92-104, 109-119, 122-130 entry C          line   100 file /opt/software/pc2/EB-SW/software/PSI4/1.9-foss-2022a/share/psi4/basis/jun-cc-pvdz-ri.gbs 
    atoms 3, 6                                                               entry N          line   144 file /opt/software/pc2/EB-SW/software/PSI4/1.9-foss-2022a/share/psi4/basis/jun-cc-pvdz-ri.gbs 
    atoms 7-9, 11-16, 35-40, 54-55, 71-72, 90-91, 105-108, 120-121, 131-136  entry H          line    30 file /opt/software/pc2/EB-SW/software/PSI4/1.9-foss-2022a/share/psi4/basis/jun-cc-pvdz-ri.gbs 

   => Loading Basis Set <=

    Name: (JUN-CC-PVDZ AUX)
    Role: JKFIT
    Keyword: DF_BASIS_ELST
    atoms 1-2, 4-5, 10, 17-34, 41-53, 56-70, 73-89, 92-104, 109-119, 122-130 entry C          line   146 file /opt/software/pc2/EB-SW/software/PSI4/1.9-foss-2022a/share/psi4/basis/jun-cc-pvdz-jkfit.gbs 
    atoms 3, 6                                                               entry N          line   202 file /opt/software/pc2/EB-SW/software/PSI4/1.9-foss-2022a/share/psi4/basis/jun-cc-pvdz-jkfit.gbs 
    atoms 7-9, 11-16, 35-40, 54-55, 71-72, 90-91, 105-108, 120-121, 131-136  entry H          line    70 file /opt/software/pc2/EB-SW/software/PSI4/1.9-foss-2022a/share/psi4/basis/jun-cc-pvdz-jkfit.gbs 


  //>>>>>>>>>>>>>>>>>>>>>>>>>>>>>>>>>>>//
  //               SSAPT0              //
  //<<<<<<<<<<<<<<<<<<<<<<<<<<<<<<<<<<<//


*** tstart() called on n2cn0262
*** at Wed Jan 24 22:17:02 2024

        SAPT0  
    Ed Hohenstein
     6 June 2009

      Orbital Information
  --------------------------
    NSO        =      2019
    NMO        =      1981
    NRI        =      7157
    NRI (Elst) =      8896
    NOCC A     =        26
    NOCC B     =       300
    FOCC A     =         7
    FOCC B     =        96
    NVIR A     =      1955
    NVIR B     =      1681

    Elst10,r            =    -0.009131529068 [Eh]
    Exch10              =     0.000003889493 [Eh]
    Exch10 (S^2)        =     0.000003889483 [Eh]

    Iter     Energy [mEh]          dE [mEh]         Residual      Time [s]
       1      -0.01778395       0.017783949       1.253690209           519
       2      -0.01681425      -0.000969696       0.320605353           987
       3      -0.01842711       0.001612855       0.086858613          1425
       4      -0.01852235       0.000095244       0.038558801          1845
       5      -0.01845032      -0.000072034       0.012501293          2380
       6      -0.01844984      -0.000000481       0.004095806          2866
       7      -0.01845560       0.000005764       0.001307218          3323
       8      -0.01845640       0.000000795       0.000383383          3924
       9      -0.01845612      -0.000000272       0.000131304          5731
      10      -0.01845601      -0.000000113       0.000035734          6247
      11      -0.01845602       0.000000010       0.000009821          6854
      12      -0.01845603       0.000000008       0.000002974          7332
      13      -0.01845603       0.000000001       0.000000998          7798

    CHF Iterations converged


    Iter     Energy [mEh]          dE [mEh]         Residual      Time [s]
       1      -6.69454730       6.694547300      44.527532098           592
       2      -4.31898634      -2.375560960       5.345935155          1085
       3      -4.29677319      -0.022213152       1.811207965          1669
       4      -4.37721613       0.080442938       0.605003655          2207
       5      -4.38853012       0.011313995       0.238122609          2722
       6      -4.38664095      -0.001889167       0.160695116          3356
       7      -4.38405092      -0.002590030       0.061579366          3893
       8      -4.38421908       0.000168151       0.025260402          4468
       9      -4.38460646       0.000387388       0.008797058          4991
      10      -4.38459305      -0.000013409       0.005227535          5582
      11      -4.38455148      -0.000041573       0.002357297          6205
      12      -4.38454290      -0.000008583       0.001301708          6866
      13      -4.38455132       0.000008422       0.000736487          7467
      14      -4.38455593       0.000004614       0.000456201          7987
      15      -4.38455459      -0.000001345       0.000334388          8625
      16      -4.38455129      -0.000003302       0.000163747          9315
      17      -4.38455256       0.000001275       0.000089648          9833
      18      -4.38455327       0.000000710       0.000049556         10563
      19      -4.38455308      -0.000000188       0.000037939         11029
      20      -4.38455280      -0.000000278       0.000016291         11580
      21      -4.38455285       0.000000046       0.000007648         12012
      22      -4.38455290       0.000000050       0.000002973         12448
      23      -4.38455290       0.000000001       0.000001071         12897
      24      -4.38455290      -0.000000006       0.000000478         13300

    CHF Iterations converged

    Ind20,r (A<-B)      =    -0.000018456029 [Eh]
    Ind20,r (B<-A)      =    -0.004384552896 [Eh]
    Ind20,r             =    -0.004403008925 [Eh]
    Exch-Ind20,r (A<-B) =     0.000000156220 [Eh]
    Exch-Ind20,r (B<-A) =     0.000002125661 [Eh]
    Exch-Ind20,r        =     0.000002281882 [Eh]
    Disp20              =    -0.002482053201 [Eh]
    Disp20 (SS)         =    -0.001241026600 [Eh]
    Disp20 (OS)         =    -0.001241026600 [Eh]
    Exch-Disp20         =     0.000001049222 [Eh]
    Exch-Disp20 (SS)    =     0.000000752160 [Eh]
    Exch-Disp20 (OS)    =     0.000000297062 [Eh]

    SAPT Results 
  --------------------------------------------------------------------------------------------------------
    Electrostatics                 -9.13152907 [mEh]      -5.73012100 [kcal/mol]     -23.97482626 [kJ/mol]
      Elst10,r                     -9.13152907 [mEh]      -5.73012100 [kcal/mol]     -23.97482626 [kJ/mol]

    Exchange                        0.00388949 [mEh]       0.00244069 [kcal/mol]       0.01021186 [kJ/mol]
      Exch10                        0.00388949 [mEh]       0.00244069 [kcal/mol]       0.01021186 [kJ/mol]
      Exch10(S^2)                   0.00388948 [mEh]       0.00244069 [kcal/mol]       0.01021184 [kJ/mol]

    Induction                      -4.51200560 [mEh]      -2.83132626 [kcal/mol]     -11.84626906 [kJ/mol]
      Ind20,r                      -4.40300893 [mEh]      -2.76292981 [kcal/mol]     -11.56009834 [kJ/mol]
      Exch-Ind20,r                  0.00228188 [mEh]       0.00143190 [kcal/mol]       0.00599108 [kJ/mol]
      delta HF,r (2)               -0.11127855 [mEh]      -0.06982835 [kcal/mol]      -0.29216180 [kJ/mol]

    Dispersion                     -2.48100398 [mEh]      -1.55685350 [kcal/mol]      -6.51387505 [kJ/mol]
      Disp20                       -2.48205320 [mEh]      -1.55751190 [kcal/mol]      -6.51662978 [kJ/mol]
      Exch-Disp20                   0.00104922 [mEh]       0.00065840 [kcal/mol]       0.00275473 [kJ/mol]
      Disp20 (SS)                  -1.24102660 [mEh]      -0.77875595 [kcal/mol]      -3.25831489 [kJ/mol]
      Disp20 (OS)                  -1.24102660 [mEh]      -0.77875595 [kcal/mol]      -3.25831489 [kJ/mol]
      Exch-Disp20 (SS)              0.00075216 [mEh]       0.00047199 [kcal/mol]       0.00197480 [kJ/mol]
      Exch-Disp20 (OS)              0.00029706 [mEh]       0.00018641 [kcal/mol]       0.00077994 [kJ/mol]

  Total HF                        -13.63964517 [mEh]      -8.55900656 [kcal/mol]     -35.81088346 [kJ/mol]
  Total SAPT0                     -16.12064915 [mEh]     -10.11586006 [kcal/mol]     -42.32475851 [kJ/mol]

  Special recipe for scaled SAPT0 (see Manual):
    Electrostatics sSAPT0          -9.13152907 [mEh]      -5.73012100 [kcal/mol]     -23.97482626 [kJ/mol]
    Exchange sSAPT0                 0.00388949 [mEh]       0.00244069 [kcal/mol]       0.01021186 [kJ/mol]
    Induction sSAPT0               -4.51200560 [mEh]      -2.83132626 [kcal/mol]     -11.84626906 [kJ/mol]
    Dispersion sSAPT0              -2.48100398 [mEh]      -1.55685350 [kcal/mol]      -6.51387505 [kJ/mol]
  Total sSAPT0                    -16.12064915 [mEh]     -10.11586006 [kcal/mol]     -42.32475851 [kJ/mol]
  --------------------------------------------------------------------------------------------------------

*** tstop() called on n2cn0262 at Thu Jan 25 13:13:55 2024
Module time:
	user time   =   74943.01 seconds =    1249.05 minutes
	system time =    3912.65 seconds =      65.21 minutes
	total time  =      53813 seconds =     896.88 minutes
Total time:
	user time   =  129032.84 seconds =    2150.55 minutes
	system time =    7821.99 seconds =     130.37 minutes
	total time  =      67485 seconds =    1124.75 minutes

    Psi4 stopped on: Thursday, 25 January 2024 01:13PM
    Psi4 wall time for execution: 18:44:46.90

*** Psi4 exiting successfully. Buy a developer a beer!
