
    -----------------------------------------------------------------------
          Psi4: An Open-Source Ab Initio Electronic Structure Package
                               Psi4 1.9 release

                         Git: Rev {} zzzzzzz 


    D. G. A. Smith, L. A. Burns, A. C. Simmonett, R. M. Parrish,
    M. C. Schieber, R. Galvelis, P. Kraus, H. Kruse, R. Di Remigio,
    A. Alenaizan, A. M. James, S. Lehtola, J. P. Misiewicz, M. Scheurer,
    R. A. Shaw, J. B. Schriber, Y. Xie, Z. L. Glick, D. A. Sirianni,
    J. S. O'Brien, J. M. Waldrop, A. Kumar, E. G. Hohenstein,
    B. P. Pritchard, B. R. Brooks, H. F. Schaefer III, A. Yu. Sokolov,
    K. Patkowski, A. E. DePrince III, U. Bozkaya, R. A. King,
    F. A. Evangelista, J. M. Turney, T. D. Crawford, C. D. Sherrill,
    J. Chem. Phys. 152(18) 184108 (2020). https://doi.org/10.1063/5.0006002

                            Additional Code Authors
    E. T. Seidl, C. L. Janssen, E. F. Valeev, M. L. Leininger,
    J. F. Gonthier, R. M. Richard, H. R. McAlexander, M. Saitow, X. Wang,
    P. Verma, M. H. Lechner, A. Jiang, S. Behnle, A. G. Heide,
    M. F. Herbst, and D. L. Poole

             Previous Authors, Complete List of Code Contributors,
                       and Citations for Specific Modules
    https://github.com/psi4/psi4/blob/master/codemeta.json
    https://github.com/psi4/psi4/graphs/contributors
    http://psicode.org/psi4manual/master/introduction.html#citing-psifour

    -----------------------------------------------------------------------


    Psi4 started on: Monday, 22 January 2024 08:00PM

    Process ID: 1892443
    Host:       d-6-11-4
    PSIDATADIR: /home/gridsan/tfroembgen/.conda/envs/psi4test/share/psi4
    Memory:     500.0 MiB
    Threads:    12
    
  ==> Input File <==

--------------------------------------------------------------------------
memory 32 GB # how much memory is available ! Depends on the nodes/cores !

molecule dimer {
# monomer A
+1 1    # Charge and multiplicity
C  0.680067 -0.008042 -10.015929
C -0.680504 -0.006014 -10.015545
N -1.085635 -0.005016  -8.697221
C  0.000108 -0.001740  -7.915820
C -2.477365  0.044390  -8.229242
N  1.085222 -0.005016  -8.697221
H  1.385146 -0.015870 -10.833368
H -1.385302 -0.006204 -10.833214
H -0.000009  0.000007  -6.834731
C  2.478117 -0.021908  -8.232123
H  2.490592  0.005437  -7.141870
H  2.967028 -0.935354  -8.579299
H  3.001428  0.853575  -8.623595
H -2.857359  1.066461  -8.309201
H -3.082679 -0.625694  -8.842306
H -2.518128 -0.282594  -7.189294
--
# monomer B
0 1     # Charge and multiplicity
C   1.22531237526482      0.70753866091955      0.00613762728373
C   1.22532433589282     -0.70753852257020     -0.00619318228664
C   -0.00000567409046      1.41496628609039     -0.00672680580738
C   2.45644923379077      1.41832825917820      0.00902448468363
C   0.00001130712078     -1.41497612663474      0.00347275151708
C   -1.22530046906674      0.70754574598412      0.00838914760619
C   2.45643823516184     -1.41832293188077     -0.00843833914343
C   -0.00000085313587      2.83680140328112     -0.00913035594137
C   3.68182717731192      0.70931832800114     -0.00808954934571
C   2.45512052870677      2.83422403348893     -0.00819210630633
C   3.68182158506039     -0.70933346742900      0.00798293467272
C   -1.22531311884624     -0.70752714354401     -0.00512042085974
C   1.22670006104402      3.54346985599427      0.00816696660346
C   0.00000526469929     -2.83678176723568      0.00832091913869
C   -2.45643555300670      1.41831729028492      0.00842454345199
C   2.45512389762097     -2.83422965658853      0.00783102630520
C   -1.22671388474763      3.54346943575023      0.00827029982280
C   4.91451777504333      1.42717324448953     -0.00160886631602
C   3.69315067131765      3.54279566454522     -0.00155906667985
C   -2.45643712022637     -1.41831290883911     -0.00846337726810
C   1.22670532178455     -3.54347386990643     -0.00780316414624
C   -2.45512491866593      2.83421703463423     -0.00818572995999
C   4.91452486062398     -1.42718653794377      0.00136387641845
C   1.22142509354026      4.97013443726031      0.00150231067809
C   4.89300870916237      2.82518837202648     -0.00039219795739
C   -1.22669652864725     -3.54347062507680     -0.00753595973677
C   -3.68181849668397      0.70932533873199     -0.00807686886569
C   3.69314758099218     -3.54280096939050      0.00148176697923
C   -1.22143177215231      4.97012866986289      0.00168580605083
C   6.13477145276790      0.68054831910577     -0.00083909176631
C   3.65678936045204      4.97295361556775     -0.00065042889723
C   -2.45512642789169     -2.83421472106065      0.00758666850712
C   -3.68181869921921     -0.70932533146830      0.00810055625144
C   4.89301309775526     -2.82519973363176      0.00021895393805
C   -0.00000059327114      5.65044773803267      0.00045449734393
C   6.13477559217374     -0.68055448207492      0.00042622874941
C   2.47813196269732      5.65357712333155      0.00063835075260
C   1.22142288457925     -4.97012668293268     -0.00129718634452
C   -3.69316190412301      3.54279732619245     -0.00139355922051
C   -1.22142804110313     -4.97011793159564     -0.00140994817719
C   -4.91452132810043      1.42717581899491     -0.00153192130862
C   3.65678749952045     -4.97295485423912      0.00080007163680
C   -2.47813805026426      5.65357479452875      0.00092287576113
C   -3.69314125872231     -3.54278984697859      0.00136564082345
C   -4.91451200321153     -1.42718062802730      0.00139857359209
C   -0.00000552908399     -5.65043791501335      0.00005899322272
C   -4.89302000425900      2.82518897091939     -0.00040227981744
C   2.47812647313991     -5.65357317188818     -0.00029052915548
C   -3.65679823041642      4.97295655404175     -0.00047374852278
C   -4.89299899901461     -2.82519139505969      0.00006491824035
C   -2.47812801824129     -5.65356579800621     -0.00056571680280
C   -6.13477002348955      0.68054913825639     -0.00086464346868
C   -3.65678835334731     -4.97294365097028      0.00058578382008
C   -6.13476456307132     -0.68055354348201      0.00040575295444
H   5.83528897565761      3.36927626695423      0.00396712770529
H   7.07385965258860      1.22821762089947     -0.00037744837300
H   4.60066374401555      5.51238117445323     -0.00014522814529
H   5.83528386714679     -3.36930568472863     -0.00423551337640
H   -0.00001167146422      6.73853104613662     -0.00389474766392
H   7.07386165167227     -1.22822657074368     -0.00008250934481
H   2.47331421164041      6.74068466339473      0.00017162982210
H   4.60066897122302     -5.51237575717576      0.00039007446835
H   -2.47331820069565      6.74068209160650      0.00047297644710
H   -0.00000978838621     -6.73852780445195      0.00458867820736
H   -5.83530143450167      3.36927132229595      0.00410314985360
H   2.47330840367253     -6.74068500242887      0.00027980126949
H   -4.60067436136587      5.51237839860371      0.00002010017831
H   -5.83527902699321     -3.36928859177951     -0.00451481925734
H   -2.47329986759855     -6.74067870613986     -0.00016951527498
H   -7.07385728692578      1.22822084484047     -0.00046143985387
H   -4.60067330624313     -5.51236229778631      0.00021776644566
H   -7.07385645456741     -1.22822025997701     -0.00017736581114

    units angstrom      # Angstroms are the default
    no_reorient         # Geometry fixed, default
    symmetry c1         # C1 symmetry, default
}

set {
    scf_type DF         # Density fitting, faster than exact integrals
    freeze_core True    # Freeze core electrons
    basis jun-cc-pVDZ   # Jun-cc-pVDZ basis set, recommended for sSAPT0 in https://doi.org/10.1063/1.4867135
}

energy('ssapt0')        # Compute sSAPT0 energy, includes also SAPT0
--------------------------------------------------------------------------

  Memory set to  29.802 GiB by Python driver.

Scratch directory: /state/partition1/slurm_tmp/24798286.4294967291.0/
   => Loading Basis Set <=

    Name: JUN-CC-PVDZ
    Role: ORBITAL
    Keyword: BASIS
    atoms 1-2, 4-5, 10, 17-70 entry C          line   164 file /home/gridsan/tfroembgen/.conda/envs/psi4test/share/psi4/basis/jun-cc-pvdz.gbs 
    atoms 3, 6                entry N          line   198 file /home/gridsan/tfroembgen/.conda/envs/psi4test/share/psi4/basis/jun-cc-pvdz.gbs 
    atoms 7-9, 11-16, 71-88   entry H          line    36 file /home/gridsan/tfroembgen/.conda/envs/psi4test/share/psi4/basis/jun-cc-pvdz.gbs 

   => Loading Basis Set <=

    Name: JUN-CC-PVDZ
    Role: ORBITAL
    Keyword: BASIS
    atoms 1-2, 4-5, 10, 17-70 entry C          line   164 file /home/gridsan/tfroembgen/.conda/envs/psi4test/share/psi4/basis/jun-cc-pvdz.gbs 
    atoms 3, 6                entry N          line   198 file /home/gridsan/tfroembgen/.conda/envs/psi4test/share/psi4/basis/jun-cc-pvdz.gbs 
    atoms 7-9, 11-16, 71-88   entry H          line    36 file /home/gridsan/tfroembgen/.conda/envs/psi4test/share/psi4/basis/jun-cc-pvdz.gbs 


  //>>>>>>>>>>>>>>>>>>>>>>>>>>>>>>>>>>>//
  //              Dimer HF             //
  //<<<<<<<<<<<<<<<<<<<<<<<<<<<<<<<<<<<//

   => Libint2 <=

    Primary   basis highest AM E, G, H:  7, 7, 4
    Auxiliary basis highest AM E, G, H:  7, 7, 5
    Onebody   basis highest AM E, G, H:  7, 7, 5
    Solid Harmonics ordering:            gaussian

*** tstart() called on d-6-11-4
*** at Mon Jan 22 20:00:40 2024

   => Loading Basis Set <=

    Name: JUN-CC-PVDZ
    Role: ORBITAL
    Keyword: BASIS
    atoms 1-2, 4-5, 10, 17-70 entry C          line   164 file /home/gridsan/tfroembgen/.conda/envs/psi4test/share/psi4/basis/jun-cc-pvdz.gbs 
    atoms 3, 6                entry N          line   198 file /home/gridsan/tfroembgen/.conda/envs/psi4test/share/psi4/basis/jun-cc-pvdz.gbs 
    atoms 7-9, 11-16, 71-88   entry H          line    36 file /home/gridsan/tfroembgen/.conda/envs/psi4test/share/psi4/basis/jun-cc-pvdz.gbs 


         ---------------------------------------------------------
                                   SCF
               by Justin Turney, Rob Parrish, Andy Simmonett
                          and Daniel G. A. Smith
                              RHF Reference
                       12 Threads,  30517 MiB Core
         ---------------------------------------------------------

  ==> Geometry <==

    Molecular point group: c1
    Full point group: C1

    Geometry (in Angstrom), charge = 1, multiplicity = 1:

       Center              X                  Y                   Z               Mass       
    ------------   -----------------  -----------------  -----------------  -----------------
         C            0.680066520158    -0.008042372515    -8.896625265091    12.000000000000
         C           -0.680504479842    -0.006014372515    -8.896241265091    12.000000000000
         N           -1.085635479842    -0.005016372515    -7.577917265091    14.003074004430
         C            0.000107520158    -0.001740372515    -6.796516265091    12.000000000000
         C           -2.477365479842     0.044389627485    -7.109938265091    12.000000000000
         N            1.085221520158    -0.005016372515    -7.577917265091    14.003074004430
         H            1.385145520158    -0.015870372515    -9.714064265091     1.007825032230
         H           -1.385302479842    -0.006204372515    -9.713910265091     1.007825032230
         H           -0.000009479842     0.000006627485    -5.715427265091     1.007825032230
         C            2.478116520158    -0.021908372515    -7.112819265091    12.000000000000
         H            2.490591520158     0.005436627485    -6.022566265091     1.007825032230
         H            2.967027520158    -0.935354372515    -7.459995265091     1.007825032230
         H            3.001427520158     0.853574627485    -7.504291265091     1.007825032230
         H           -2.857359479842     1.066460627485    -7.189897265091     1.007825032230
         H           -3.082679479842    -0.625694372515    -7.723002265091     1.007825032230
         H           -2.518128479842    -0.282594372515    -6.069990265091     1.007825032230
         C            1.225311895423     0.707538288405     1.125441362192    12.000000000000
         C            1.225323856051    -0.707538895085     1.113110552622    12.000000000000
         C           -0.000006153932     1.414965913575     1.112576929101    12.000000000000
         C            2.456448753949     1.418327886663     1.128328219592    12.000000000000
         C            0.000010827279    -1.414976499150     1.122776486426    12.000000000000
         C           -1.225300948908     0.707545373469     1.127692882515    12.000000000000
         C            2.456437755320    -1.418323304396     1.110865395765    12.000000000000
         C           -0.000001332978     2.836801030766     1.110173378967    12.000000000000
         C            3.681826697470     0.709317955486     1.111214185563    12.000000000000
         C            2.455120048865     2.834223660974     1.111111628602    12.000000000000
         C            3.681821105219    -0.709333839944     1.127286669581    12.000000000000
         C           -1.225313598688    -0.707527516059     1.114183314049    12.000000000000
         C            1.226699581202     3.543469483479     1.127470701512    12.000000000000
         C            0.000004784858    -2.836782139751     1.127624654047    12.000000000000
         C           -2.456436032848     1.418316917770     1.127728278360    12.000000000000
         C            2.455123417779    -2.834230029103     1.127134761214    12.000000000000
         C           -1.226714364589     3.543469063235     1.127574034731    12.000000000000
         C            4.914517295202     1.427172871975     1.117694868592    12.000000000000
         C            3.693150191476     3.542795292030     1.117744668229    12.000000000000
         C           -2.456437600068    -1.418313281354     1.110840357640    12.000000000000
         C            1.226704841943    -3.543474242421     1.111500570762    12.000000000000
         C           -2.455125398508     2.834216662119     1.111118004949    12.000000000000
         C            4.914524380782    -1.427186910459     1.120667611327    12.000000000000
         C            1.221424613699     4.970134064745     1.120806045587    12.000000000000
         C            4.893008229321     2.825187999512     1.118911536951    12.000000000000
         C           -1.226697008489    -3.543470997592     1.111767775172    12.000000000000
         C           -3.681818976526     0.709324966217     1.111226866043    12.000000000000
         C            3.693147101150    -3.542801341905     1.120785501888    12.000000000000
         C           -1.221432251994     4.970128297348     1.120989540959    12.000000000000
         C            6.134770972926     0.680547946591     1.118464643142    12.000000000000
         C            3.656788880610     4.972953243053     1.118653306011    12.000000000000
         C           -2.455126907733    -2.834215093576     1.126890403416    12.000000000000
         C           -3.681819179061    -0.709325703983     1.127404291160    12.000000000000
         C            4.893012617914    -2.825200106147     1.119522688847    12.000000000000
         C           -0.000001073113     5.650447365518     1.119758232252    12.000000000000
         C            6.134775112332    -0.680554854590     1.119729963658    12.000000000000
         C            2.478131482856     5.653576750817     1.119942085661    12.000000000000
         C            1.221422404738    -4.970127055448     1.118006548564    12.000000000000
         C           -3.693162383965     3.542796953677     1.117910175688    12.000000000000
         C           -1.221428520945    -4.970118304111     1.117893786731    12.000000000000
         C           -4.914521807942     1.427175446480     1.117771813600    12.000000000000
         C            3.656787019679    -4.972955226754     1.120103806545    12.000000000000
         C           -2.478138530106     5.653574422014     1.120226610670    12.000000000000
         C           -3.693141738564    -3.542790219494     1.120669375732    12.000000000000
         C           -4.914512483053    -1.427181000542     1.120702308501    12.000000000000
         C           -0.000006008926    -5.650438287528     1.119362728131    12.000000000000
         C           -4.893020484101     2.825188598404     1.118901455091    12.000000000000
         C            2.478125993298    -5.653573544403     1.119013205753    12.000000000000
         C           -3.656798710258     4.972956181527     1.118829986386    12.000000000000
         C           -4.892999478856    -2.825191767575     1.119368653149    12.000000000000
         C           -2.478128498083    -5.653566170521     1.118738018106    12.000000000000
         C           -6.134770503331     0.680548765741     1.118439091440    12.000000000000
         C           -3.656788833189    -4.972944023485     1.119889518729    12.000000000000
         C           -6.134765042913    -0.680553915997     1.119709487863    12.000000000000
         H            5.835288495816     3.369275894439     1.123270862614     1.007825032230
         H            7.073859172747     1.228217248385     1.118926286536     1.007825032230
         H            4.600663264174     5.512380801938     1.119158506763     1.007825032230
         H            5.835283387305    -3.369306057244     1.115068221532     1.007825032230
         H           -0.000012151306     6.738530673622     1.115408987245     1.007825032230
         H            7.073861171831    -1.228226943259     1.119221225564     1.007825032230
         H            2.473313731799     6.740684290880     1.119475364731     1.007825032230
         H            4.600668491381    -5.512376129691     1.119693809377     1.007825032230
         H           -2.473318680537     6.740681719092     1.119776711356     1.007825032230
         H           -0.000010268228    -6.738528176967     1.123892413116     1.007825032230
         H           -5.835301914343     3.369270949781     1.123406884762     1.007825032230
         H            2.473307923831    -6.740685374944     1.119583536178     1.007825032230
         H           -4.600674841208     5.512378026089     1.119323835087     1.007825032230
         H           -5.835279506835    -3.369288964294     1.114788915651     1.007825032230
         H           -2.473300347440    -6.740679078655     1.119134219634     1.007825032230
         H           -7.073857766768     1.228220472326     1.118842295055     1.007825032230
         H           -4.600673786085    -5.512362670301     1.119521501354     1.007825032230
         H           -7.073856934409    -1.228220632492     1.119126369097     1.007825032230

  Running in c1 symmetry.

  Rotational constants: A =      0.00118  B =      0.00116  C =      0.00109 [cm^-1]
  Rotational constants: A =     35.49623  B =     34.90946  C =     32.71081 [MHz]
  Nuclear repulsion = 7717.264553937830897

  Charge       = 1
  Multiplicity = 1
  Electrons    = 394
  Nalpha       = 197
  Nbeta        = 197

  ==> Algorithm <==

  SCF Algorithm Type is DF.
  DIIS enabled.
  MOM disabled.
  Fractional occupation disabled.
  Guess Type is SAD.
  Energy threshold   = 1.00e-08
  Density threshold  = 1.00e-08
  Integral threshold = 1.00e-12

  ==> Primary Basis <==

  Basis Set: JUN-CC-PVDZ
    Blend: JUN-CC-PVDZ
    Number of shells: 569
    Number of basis functions: 1233
    Number of Cartesian functions: 1294
    Spherical Harmonics?: true
    Max angular momentum: 2

   => Loading Basis Set <=

    Name: (JUN-CC-PVDZ AUX)
    Role: JKFIT
    Keyword: DF_BASIS_SCF
    atoms 1-2, 4-5, 10, 17-70 entry C          line   146 file /home/gridsan/tfroembgen/.conda/envs/psi4test/share/psi4/basis/jun-cc-pvdz-jkfit.gbs 
    atoms 3, 6                entry N          line   202 file /home/gridsan/tfroembgen/.conda/envs/psi4test/share/psi4/basis/jun-cc-pvdz-jkfit.gbs 
    atoms 7-9, 11-16, 71-88   entry H          line    70 file /home/gridsan/tfroembgen/.conda/envs/psi4test/share/psi4/basis/jun-cc-pvdz-jkfit.gbs 

  ==> Integral Setup <==

  ==> DiskDFJK: Density-Fitted J/K Matrices <==

    J tasked:                  Yes
    K tasked:                  Yes
    wK tasked:                  No
    OpenMP threads:             12
    Integrals threads:          12
    Memory [MiB]:            22888
    Algorithm:                Core
    Integral Cache:           SAVE
    Schwarz Cutoff:          1E-12
    Fitting Condition:       1E-10

   => Auxiliary Basis Set <=

  Basis Set: (JUN-CC-PVDZ AUX)
    Blend: JUN-CC-PVDZ-JKFIT
    Number of shells: 1890
    Number of basis functions: 5440
    Number of Cartesian functions: 6226
    Spherical Harmonics?: true
    Max angular momentum: 3

  Minimum eigenvalue in the overlap matrix is 8.3993625639E-10.
  Reciprocal condition number of the overlap matrix is 3.7576260467E-11.
    Using canonical orthogonalization.
  Overall, 14 of 1233 possible MOs eliminated.


  ==> Pre-Iterations <==

  SCF Guess: Superposition of Atomic Densities via on-the-fly atomic UHF (no occupation information).

   -------------------------
    Irrep   Nso     Nmo    
   -------------------------
     A       1233    1219 
   -------------------------
    Total    1233    1219
   -------------------------

  ==> Iterations <==

                           Total Energy        Delta E     RMS |[F,P]|

   @DF-RHF iter SAD: -2365.39384167719209   -2.36539e+03   0.00000e+00 
   @DF-RHF iter   1: -2358.18527488827112    7.20857e+00   9.48838e-04 ADIIS/DIIS
   @DF-RHF iter   2: -2359.08687252110985   -9.01598e-01   3.24889e-04 ADIIS/DIIS
   @DF-RHF iter   3: -2359.17975061488551   -9.28781e-02   1.19481e-04 ADIIS/DIIS
   @DF-RHF iter   4: -2359.19313630699253   -1.33857e-02   4.55000e-05 DIIS
   @DF-RHF iter   5: -2359.19515261187644   -2.01630e-03   1.04853e-05 DIIS
   @DF-RHF iter   6: -2359.19533493636527   -1.82324e-04   5.24422e-06 DIIS
   @DF-RHF iter   7: -2359.19540632747885   -7.13911e-05   2.26371e-06 DIIS
   @DF-RHF iter   8: -2359.19542710861106   -2.07811e-05   1.12888e-06 DIIS
   @DF-RHF iter   9: -2359.19543225315874   -5.14455e-06   2.58760e-07 DIIS
   @DF-RHF iter  10: -2359.19543249454000   -2.41381e-07   8.55661e-08 DIIS
   @DF-RHF iter  11: -2359.19543251204277   -1.75028e-08   3.15910e-08 DIIS
   @DF-RHF iter  12: -2359.19543251562163   -3.57886e-09   1.11207e-08 DIIS
   @DF-RHF iter  13: -2359.19543251590676   -2.85127e-10   4.53134e-09 DIIS
  Energy and wave function converged.


  ==> Post-Iterations <==

    Orbital Energies [Eh]
    ---------------------

    Doubly Occupied:                                                      

       1A    -15.827191     2A    -15.826667     3A    -11.521931  
       4A    -11.453130     5A    -11.451576     6A    -11.442056  
       7A    -11.441948     8A    -11.314032     9A    -11.313564  
      10A    -11.313545    11A    -11.312620    12A    -11.312590  
      13A    -11.312244    14A    -11.311661    15A    -11.311646  
      16A    -11.311573    17A    -11.311457    18A    -11.311387  
      19A    -11.311224    20A    -11.310392    21A    -11.310376  
      22A    -11.310266    23A    -11.310231    24A    -11.310197  
      25A    -11.310175    26A    -11.310121    27A    -11.310118  
      28A    -11.309972    29A    -11.309965    30A    -11.309948  
      31A    -11.309941    32A    -11.309390    33A    -11.309387  
      34A    -11.309259    35A    -11.309247    36A    -11.309234  
      37A    -11.309219    38A    -11.308671    39A    -11.308656  
      40A    -11.308553    41A    -11.308529    42A    -11.308467  
      43A    -11.308455    44A    -11.302811    45A    -11.302808  
      46A    -11.302747    47A    -11.302744    48A    -11.302707  
      49A    -11.302705    50A    -11.302576    51A    -11.302551  
      52A    -11.302468    53A    -11.302465    54A    -11.302449  
      55A    -11.302442    56A    -11.301344    57A    -11.301341  
      58A    -11.301038    59A    -11.301035    60A    -11.301034  
      61A    -11.301031    62A     -1.570915    63A     -1.426445  
      64A     -1.297094    65A     -1.272263    66A     -1.272141  
      67A     -1.241525    68A     -1.241514    69A     -1.233443  
      70A     -1.231503    71A     -1.209095    72A     -1.200862  
      73A     -1.187824    74A     -1.187711    75A     -1.181846  
      76A     -1.164673    77A     -1.164646    78A     -1.134514  
      79A     -1.134506    80A     -1.130690    81A     -1.117328  
      82A     -1.117314    83A     -1.111392    84A     -1.091015  
      85A     -1.076690    86A     -1.074165    87A     -1.074127  
      88A     -1.069148    89A     -1.063985    90A     -1.038956  
      91A     -1.038929    92A     -1.015389    93A     -1.013330  
      94A     -1.013322    95A     -0.989523    96A     -0.945819  
      97A     -0.945761    98A     -0.940281    99A     -0.938535  
     100A     -0.938416   101A     -0.933399   102A     -0.933320  
     103A     -0.913313   104A     -0.909632   105A     -0.888251  
     106A     -0.869749   107A     -0.868721   108A     -0.864041  
     109A     -0.863966   110A     -0.845852   111A     -0.845847  
     112A     -0.843161   113A     -0.809168   114A     -0.805497  
     115A     -0.798745   116A     -0.796812   117A     -0.785365  
     118A     -0.785265   119A     -0.783408   120A     -0.783337  
     121A     -0.782942   122A     -0.778814   123A     -0.774867  
     124A     -0.768152   125A     -0.750433   126A     -0.750341  
     127A     -0.745246   128A     -0.745153   129A     -0.722025  
     130A     -0.718160   131A     -0.712339   132A     -0.709723  
     133A     -0.704777   134A     -0.703126   135A     -0.701320  
     136A     -0.701280   137A     -0.690692   138A     -0.690652  
     139A     -0.681405   140A     -0.679198   141A     -0.679185  
     142A     -0.659707   143A     -0.655993   144A     -0.653548  
     145A     -0.650997   146A     -0.650886   147A     -0.645442  
     148A     -0.643374   149A     -0.643296   150A     -0.635893  
     151A     -0.628951   152A     -0.628784   153A     -0.618278  
     154A     -0.618241   155A     -0.617802   156A     -0.617704  
     157A     -0.610477   158A     -0.605883   159A     -0.605764  
     160A     -0.590244   161A     -0.590224   162A     -0.589662  
     163A     -0.589636   164A     -0.589065   165A     -0.581146  
     166A     -0.580768   167A     -0.574328   168A     -0.574223  
     169A     -0.551463   170A     -0.547096   171A     -0.544372  
     172A     -0.539715   173A     -0.536855   174A     -0.533257  
     175A     -0.533220   176A     -0.522795   177A     -0.522650  
     178A     -0.516948   179A     -0.503187   180A     -0.503049  
     181A     -0.490454   182A     -0.490422   183A     -0.456961  
     184A     -0.456958   185A     -0.455613   186A     -0.426620  
     187A     -0.426611   188A     -0.400841   189A     -0.390535  
     190A     -0.389451   191A     -0.389410   192A     -0.362661  
     193A     -0.348938   194A     -0.336664   195A     -0.336647  
     196A     -0.276591   197A     -0.276565  

    Virtual:                                                              

     198A     -0.061267   199A     -0.055370   200A     -0.047949  
     201A     -0.042270   202A     -0.037735   203A     -0.037584  
     204A     -0.025276   205A     -0.022855   206A     -0.021757  
     207A     -0.018947   208A      0.000836   209A      0.002958  
     210A      0.003845   211A      0.004765   212A      0.005381  
     213A      0.005503   214A      0.007497   215A      0.010414  
     216A      0.010839   217A      0.012512   218A      0.012642  
     219A      0.013209   220A      0.015531   221A      0.019866  
     222A      0.023368   223A      0.027276   224A      0.031141  
     225A      0.031173   226A      0.032390   227A      0.034675  
     228A      0.034685   229A      0.036617   230A      0.037261  
     231A      0.038890   232A      0.041816   233A      0.046033  
     234A      0.046501   235A      0.046578   236A      0.047554  
     237A      0.047690   238A      0.048171   239A      0.054611  
     240A      0.055909   241A      0.056940   242A      0.062283  
     243A      0.066295   244A      0.066675   245A      0.066798  
     246A      0.070193   247A      0.071057   248A      0.073991  
     249A      0.074126   250A      0.075129   251A      0.080319  
     252A      0.080900   253A      0.084374   254A      0.085098  
     255A      0.086578   256A      0.087072   257A      0.089135  
     258A      0.089713   259A      0.090169   260A      0.090992  
     261A      0.092626   262A      0.093146   263A      0.094993  
     264A      0.104172   265A      0.105789   266A      0.108118  
     267A      0.108131   268A      0.108396   269A      0.112703  
     270A      0.113444   271A      0.115461   272A      0.116605  
     273A      0.118166   274A      0.122968   275A      0.124395  
     276A      0.127095   277A      0.132284   278A      0.132584  
     279A      0.134130   280A      0.134345   281A      0.135066  
     282A      0.136899   283A      0.137500   284A      0.137554  
     285A      0.137696   286A      0.140102   287A      0.142655  
     288A      0.142913   289A      0.143805   290A      0.145655  
     291A      0.147303   292A      0.149424   293A      0.151443  
     294A      0.156078   295A      0.157467   296A      0.157750  
     297A      0.158881   298A      0.164437   299A      0.164502  
     300A      0.164746   301A      0.165450   302A      0.165624  
     303A      0.167068   304A      0.167235   305A      0.169250  
     306A      0.170036   307A      0.170141   308A      0.172183  
     309A      0.175874   310A      0.177542   311A      0.180444  
     312A      0.180824   313A      0.181568   314A      0.182330  
     315A      0.183896   316A      0.184019   317A      0.184105  
     318A      0.186348   319A      0.186449   320A      0.190229  
     321A      0.190950   322A      0.191855   323A      0.192922  
     324A      0.196581   325A      0.198737   326A      0.198938  
     327A      0.200266   328A      0.203435   329A      0.203603  
     330A      0.206138   331A      0.206281   332A      0.207089  
     333A      0.207524   334A      0.209657   335A      0.210054  
     336A      0.218501   337A      0.218627   338A      0.218677  
     339A      0.219293   340A      0.219417   341A      0.220017  
     342A      0.220463   343A      0.220501   344A      0.222330  
     345A      0.225262   346A      0.225691   347A      0.228153  
     348A      0.233802   349A      0.235160   350A      0.238162  
     351A      0.238748   352A      0.239643   353A      0.241233  
     354A      0.248594   355A      0.248620   356A      0.249849  
     357A      0.253133   358A      0.254049   359A      0.254083  
     360A      0.256431   361A      0.257556   362A      0.259884  
     363A      0.260090   364A      0.260300   365A      0.261259  
     366A      0.262732   367A      0.262841   368A      0.265653  
     369A      0.266378   370A      0.266910   371A      0.269071  
     372A      0.272556   373A      0.272710   374A      0.272853  
     375A      0.273353   376A      0.273713   377A      0.274221  
     378A      0.274609   379A      0.275691   380A      0.278811  
     381A      0.280033   382A      0.280871   383A      0.283829  
     384A      0.289782   385A      0.291302   386A      0.293855  
     387A      0.294561   388A      0.296432   389A      0.296556  
     390A      0.297696   391A      0.297994   392A      0.300511  
     393A      0.301685   394A      0.301757   395A      0.303913  
     396A      0.306695   397A      0.306910   398A      0.311667  
     399A      0.313347   400A      0.317358   401A      0.319668  
     402A      0.320840   403A      0.323517   404A      0.323793  
     405A      0.323985   406A      0.326367   407A      0.327733  
     408A      0.331264   409A      0.334639   410A      0.335179  
     411A      0.336903   412A      0.341048   413A      0.341284  
     414A      0.341351   415A      0.341398   416A      0.342101  
     417A      0.345129   418A      0.346503   419A      0.346651  
     420A      0.347733   421A      0.348391   422A      0.349721  
     423A      0.352042   424A      0.352832   425A      0.355601  
     426A      0.355616   427A      0.355881   428A      0.356068  
     429A      0.357777   430A      0.357932   431A      0.360373  
     432A      0.361040   433A      0.362580   434A      0.370125  
     435A      0.370515   436A      0.371207   437A      0.373052  
     438A      0.373257   439A      0.377399   440A      0.382384  
     441A      0.386062   442A      0.386118   443A      0.388920  
     444A      0.392869   445A      0.393293   446A      0.394878  
     447A      0.394935   448A      0.395550   449A      0.398133  
     450A      0.400018   451A      0.401078   452A      0.401892  
     453A      0.407474   454A      0.408456   455A      0.409654  
     456A      0.409698   457A      0.409757   458A      0.411970  
     459A      0.412581   460A      0.413915   461A      0.415324  
     462A      0.417601   463A      0.420699   464A      0.420988  
     465A      0.426898   466A      0.431539   467A      0.431711  
     468A      0.432609   469A      0.432781   470A      0.438005  
     471A      0.442778   472A      0.442849   473A      0.444410  
     474A      0.444698   475A      0.446517   476A      0.447526  
     477A      0.451263   478A      0.451428   479A      0.451632  
     480A      0.454877   481A      0.456118   482A      0.461999  
     483A      0.462100   484A      0.462883   485A      0.463375  
     486A      0.468109   487A      0.468725   488A      0.474068  
     489A      0.475198   490A      0.475518   491A      0.478508  
     492A      0.487746   493A      0.488753   494A      0.490444  
     495A      0.493187   496A      0.497163   497A      0.497247  
     498A      0.497376   499A      0.502180   500A      0.502308  
     501A      0.502459   502A      0.504543   503A      0.504626  
     504A      0.505768   505A      0.510107   506A      0.510724  
     507A      0.511114   508A      0.512610   509A      0.518554  
     510A      0.518626   511A      0.535192   512A      0.535513  
     513A      0.545386   514A      0.546093   515A      0.546871  
     516A      0.554057   517A      0.562941   518A      0.563072  
     519A      0.568324   520A      0.570435   521A      0.570580  
     522A      0.575661   523A      0.575710   524A      0.593470  
     525A      0.598273   526A      0.598520   527A      0.603342  
     528A      0.611471   529A      0.616220   530A      0.616258  
     531A      0.618729   532A      0.626505   533A      0.626528  
     534A      0.627518   535A      0.632695   536A      0.652446  
     537A      0.656670   538A      0.664965   539A      0.665103  
     540A      0.668247   541A      0.680481   542A      0.681556  
     543A      0.689714   544A      0.690223   545A      0.691477  
     546A      0.692044   547A      0.692160   548A      0.692715  
     549A      0.698618   550A      0.704250   551A      0.706186  
     552A      0.706429   553A      0.711438   554A      0.715747  
     555A      0.716316   556A      0.724904   557A      0.740171  
     558A      0.741581   559A      0.745084   560A      0.746287  
     561A      0.748805   562A      0.753138   563A      0.754676  
     564A      0.755473   565A      0.757047   566A      0.758480  
     567A      0.763525   568A      0.764818   569A      0.772930  
     570A      0.775050   571A      0.776787   572A      0.776987  
     573A      0.778142   574A      0.782579   575A      0.783788  
     576A      0.784694   577A      0.787879   578A      0.790123  
     579A      0.803807   580A      0.803918   581A      0.805223  
     582A      0.808071   583A      0.813841   584A      0.814036  
     585A      0.819376   586A      0.821063   587A      0.821347  
     588A      0.821736   589A      0.823167   590A      0.824043  
     591A      0.827036   592A      0.827276   593A      0.831079  
     594A      0.837226   595A      0.837862   596A      0.838123  
     597A      0.844796   598A      0.847030   599A      0.847109  
     600A      0.850835   601A      0.856093   602A      0.857134  
     603A      0.857348   604A      0.858308   605A      0.860810  
     606A      0.862491   607A      0.862902   608A      0.864555  
     609A      0.867696   610A      0.871145   611A      0.871488  
     612A      0.877402   613A      0.880343   614A      0.880705  
     615A      0.880993   616A      0.884799   617A      0.884859  
     618A      0.890530   619A      0.890938   620A      0.891104  
     621A      0.894477   622A      0.894729   623A      0.903828  
     624A      0.906279   625A      0.906376   626A      0.908273  
     627A      0.919486   628A      0.919561   629A      0.920634  
     630A      0.920970   631A      0.922307   632A      0.922375  
     633A      0.926175   634A      0.928000   635A      0.929625  
     636A      0.936827   637A      0.936988   638A      0.942768  
     639A      0.947308   640A      0.947388   641A      0.949624  
     642A      0.954322   643A      0.956645   644A      0.964477  
     645A      0.964709   646A      0.964985   647A      0.967771  
     648A      0.967982   649A      0.972352   650A      0.979468  
     651A      0.980304   652A      0.980454   653A      0.983582  
     654A      0.983862   655A      0.986009   656A      0.986222  
     657A      0.988705   658A      0.988744   659A      0.990155  
     660A      0.993515   661A      0.993605   662A      0.994463  
     663A      0.995189   664A      0.995990   665A      0.998056  
     666A      1.002166   667A      1.002746   668A      1.008942  
     669A      1.009515   670A      1.009808   671A      1.010037  
     672A      1.012719   673A      1.017211   674A      1.017986  
     675A      1.021083   676A      1.021142   677A      1.023656  
     678A      1.024566   679A      1.026430   680A      1.029480  
     681A      1.031159   682A      1.032224   683A      1.032783  
     684A      1.035506   685A      1.036345   686A      1.036918  
     687A      1.048968   688A      1.050642   689A      1.052947  
     690A      1.053213   691A      1.057239   692A      1.064709  
     693A      1.065106   694A      1.065176   695A      1.065487  
     696A      1.069091   697A      1.070473   698A      1.072087  
     699A      1.074714   700A      1.074850   701A      1.081144  
     702A      1.083524   703A      1.083661   704A      1.089472  
     705A      1.089528   706A      1.090112   707A      1.092337  
     708A      1.093605   709A      1.103116   710A      1.103452  
     711A      1.110299   712A      1.116057   713A      1.120472  
     714A      1.122878   715A      1.126054   716A      1.126246  
     717A      1.131472   718A      1.131512   719A      1.132722  
     720A      1.133127   721A      1.143843   722A      1.144879  
     723A      1.146555   724A      1.147934   725A      1.148345  
     726A      1.156535   727A      1.159310   728A      1.166876  
     729A      1.166914   730A      1.169490   731A      1.169645  
     732A      1.171844   733A      1.171943   734A      1.186378  
     735A      1.188220   736A      1.188287   737A      1.204740  
     738A      1.207516   739A      1.211078   740A      1.211201  
     741A      1.211720   742A      1.211975   743A      1.214094  
     744A      1.214291   745A      1.217977   746A      1.226151  
     747A      1.227178   748A      1.243307   749A      1.243806  
     750A      1.244711   751A      1.246061   752A      1.247047  
     753A      1.247474   754A      1.256297   755A      1.256979  
     756A      1.258306   757A      1.258847   758A      1.267602  
     759A      1.267867   760A      1.268015   761A      1.269905  
     762A      1.271421   763A      1.278185   764A      1.278484  
     765A      1.278574   766A      1.282323   767A      1.287836  
     768A      1.288735   769A      1.289715   770A      1.293724  
     771A      1.294509   772A      1.302821   773A      1.302838  
     774A      1.306245   775A      1.307079   776A      1.307321  
     777A      1.307925   778A      1.313503   779A      1.313684  
     780A      1.325002   781A      1.329711   782A      1.339985  
     783A      1.347035   784A      1.352055   785A      1.352469  
     786A      1.353133   787A      1.355926   788A      1.356157  
     789A      1.361207   790A      1.361432   791A      1.368134  
     792A      1.370972   793A      1.373347   794A      1.373956  
     795A      1.377317   796A      1.378209   797A      1.379891  
     798A      1.385437   799A      1.385502   800A      1.388118  
     801A      1.388601   802A      1.388812   803A      1.396700  
     804A      1.396891   805A      1.399120   806A      1.411098  
     807A      1.411154   808A      1.420189   809A      1.420578  
     810A      1.429460   811A      1.465270   812A      1.465402  
     813A      1.469251   814A      1.469307   815A      1.471275  
     816A      1.479272   817A      1.484901   818A      1.500444  
     819A      1.510249   820A      1.521810   821A      1.524318  
     822A      1.545676   823A      1.547568   824A      1.548113  
     825A      1.556121   826A      1.556270   827A      1.557214  
     828A      1.559697   829A      1.559905   830A      1.563322  
     831A      1.569716   832A      1.569847   833A      1.570328  
     834A      1.577304   835A      1.577660   836A      1.588370  
     837A      1.588417   838A      1.591378   839A      1.591505  
     840A      1.591585   841A      1.591633   842A      1.598494  
     843A      1.609425   844A      1.609503   845A      1.611868  
     846A      1.615911   847A      1.623739   848A      1.623773  
     849A      1.624984   850A      1.625520   851A      1.625591  
     852A      1.626014   853A      1.631091   854A      1.634788  
     855A      1.634840   856A      1.644657   857A      1.645874  
     858A      1.648081   859A      1.648226   860A      1.648717  
     861A      1.652278   862A      1.652378   863A      1.664587  
     864A      1.664668   865A      1.667930   866A      1.676513  
     867A      1.687363   868A      1.690086   869A      1.695807  
     870A      1.699394   871A      1.709549   872A      1.709827  
     873A      1.710469   874A      1.710874   875A      1.725325  
     876A      1.725341   877A      1.738812   878A      1.740081  
     879A      1.740130   880A      1.752762   881A      1.755525  
     882A      1.763030   883A      1.764727   884A      1.765564  
     885A      1.765776   886A      1.767169   887A      1.772575  
     888A      1.772648   889A      1.779171   890A      1.779277  
     891A      1.784959   892A      1.787595   893A      1.790423  
     894A      1.790625   895A      1.808986   896A      1.809258  
     897A      1.809915   898A      1.810093   899A      1.812818  
     900A      1.813302   901A      1.816312   902A      1.817619  
     903A      1.820667   904A      1.823496   905A      1.828215  
     906A      1.828262   907A      1.844598   908A      1.844673  
     909A      1.848842   910A      1.850733   911A      1.852456  
     912A      1.852554   913A      1.856718   914A      1.856868  
     915A      1.862716   916A      1.862891   917A      1.863762  
     918A      1.866016   919A      1.866153   920A      1.867491  
     921A      1.870344   922A      1.870448   923A      1.874476  
     924A      1.888805   925A      1.890402   926A      1.890670  
     927A      1.890752   928A      1.896248   929A      1.896375  
     930A      1.900371   931A      1.901911   932A      1.902186  
     933A      1.902456   934A      1.902712   935A      1.904148  
     936A      1.906418   937A      1.919461   938A      1.930592  
     939A      1.930718   940A      1.938171   941A      1.945710  
     942A      1.947434   943A      1.947465   944A      1.950225  
     945A      1.953489   946A      1.957594   947A      1.961173  
     948A      1.961277   949A      1.972487   950A      1.975890  
     951A      1.976049   952A      1.978505   953A      1.978574  
     954A      1.979046   955A      1.979752   956A      1.979930  
     957A      1.996579   958A      2.000477   959A      2.000790  
     960A      2.005690   961A      2.006569   962A      2.007429  
     963A      2.008896   964A      2.010519   965A      2.016420  
     966A      2.018203   967A      2.019378   968A      2.019691  
     969A      2.023426   970A      2.023609   971A      2.028930  
     972A      2.032150   973A      2.032466   974A      2.041697  
     975A      2.042899   976A      2.045014   977A      2.045829  
     978A      2.046612   979A      2.049095   980A      2.049268  
     981A      2.055049   982A      2.056707   983A      2.056802  
     984A      2.057022   985A      2.057162   986A      2.058431  
     987A      2.063090   988A      2.068090   989A      2.068175  
     990A      2.068395   991A      2.068452   992A      2.072593  
     993A      2.074917   994A      2.075258   995A      2.082024  
     996A      2.083166   997A      2.084824   998A      2.084909  
     999A      2.091969  1000A      2.092095  1001A      2.092338  
    1002A      2.104277  1003A      2.107396  1004A      2.107428  
    1005A      2.111052  1006A      2.111207  1007A      2.118967  
    1008A      2.126940  1009A      2.127032  1010A      2.139936  
    1011A      2.140224  1012A      2.140639  1013A      2.141913  
    1014A      2.143185  1015A      2.143221  1016A      2.143620  
    1017A      2.145921  1018A      2.148281  1019A      2.163468  
    1020A      2.168150  1021A      2.168188  1022A      2.168304  
    1023A      2.175322  1024A      2.176490  1025A      2.176664  
    1026A      2.177351  1027A      2.192942  1028A      2.193382  
    1029A      2.193459  1030A      2.193684  1031A      2.196616  
    1032A      2.205504  1033A      2.209609  1034A      2.209703  
    1035A      2.218938  1036A      2.218977  1037A      2.221225  
    1038A      2.221261  1039A      2.229468  1040A      2.230950  
    1041A      2.249362  1042A      2.253069  1043A      2.255674  
    1044A      2.258398  1045A      2.260303  1046A      2.267860  
    1047A      2.270381  1048A      2.278501  1049A      2.278582  
    1050A      2.279054  1051A      2.281767  1052A      2.298753  
    1053A      2.299388  1054A      2.299993  1055A      2.301002  
    1056A      2.301075  1057A      2.314328  1058A      2.314450  
    1059A      2.321967  1060A      2.326910  1061A      2.328971  
    1062A      2.338748  1063A      2.364964  1064A      2.372430  
    1065A      2.372943  1066A      2.373067  1067A      2.385490  
    1068A      2.389301  1069A      2.389343  1070A      2.418288  
    1071A      2.421420  1072A      2.421826  1073A      2.434043  
    1074A      2.434206  1075A      2.446970  1076A      2.450903  
    1077A      2.463925  1078A      2.468397  1079A      2.478257  
    1080A      2.478440  1081A      2.492785  1082A      2.494311  
    1083A      2.494481  1084A      2.502178  1085A      2.502582  
    1086A      2.503890  1087A      2.503896  1088A      2.508430  
    1089A      2.508487  1090A      2.521410  1091A      2.521446  
    1092A      2.524288  1093A      2.524795  1094A      2.535184  
    1095A      2.535287  1096A      2.535521  1097A      2.538424  
    1098A      2.541191  1099A      2.554961  1100A      2.572569  
    1101A      2.572706  1102A      2.573400  1103A      2.576082  
    1104A      2.579505  1105A      2.580025  1106A      2.590336  
    1107A      2.590414  1108A      2.600124  1109A      2.600449  
    1110A      2.605822  1111A      2.607811  1112A      2.630028  
    1113A      2.631162  1114A      2.632895  1115A      2.636338  
    1116A      2.638615  1117A      2.649524  1118A      2.649824  
    1119A      2.661052  1120A      2.661179  1121A      2.663876  
    1122A      2.666841  1123A      2.666992  1124A      2.670931  
    1125A      2.671101  1126A      2.676276  1127A      2.680797  
    1128A      2.685493  1129A      2.690567  1130A      2.701127  
    1131A      2.701424  1132A      2.708574  1133A      2.724962  
    1134A      2.739892  1135A      2.742476  1136A      2.742693  
    1137A      2.750482  1138A      2.763790  1139A      2.775021  
    1140A      2.776101  1141A      2.792447  1142A      2.799608  
    1143A      2.800005  1144A      2.803496  1145A      2.805823  
    1146A      2.807417  1147A      2.807465  1148A      2.815886  
    1149A      2.865967  1150A      2.866011  1151A      2.872681  
    1152A      2.882630  1153A      2.882699  1154A      2.898391  
    1155A      2.898424  1156A      2.911876  1157A      2.920347  
    1158A      2.954650  1159A      2.954900  1160A      2.961497  
    1161A      2.978622  1162A      2.978794  1163A      3.011992  
    1164A      3.012002  1165A      3.018740  1166A      3.018909  
    1167A      3.048925  1168A      3.058398  1169A      3.059164  
    1170A      3.067473  1171A      3.076935  1172A      3.078365  
    1173A      3.078499  1174A      3.086410  1175A      3.095119  
    1176A      3.095170  1177A      3.095246  1178A      3.097970  
    1179A      3.098000  1180A      3.106506  1181A      3.106974  
    1182A      3.114436  1183A      3.114978  1184A      3.141011  
    1185A      3.160541  1186A      3.166614  1187A      3.186086  
    1188A      3.220172  1189A      3.225354  1190A      3.225459  
    1191A      3.230042  1192A      3.230313  1193A      3.364162  
    1194A      3.364633  1195A      3.388734  1196A      3.429003  
    1197A      3.431537  1198A      3.442199  1199A      3.496461  
    1200A      3.524466  1201A      3.526339  1202A      3.530606  
    1203A      3.541344  1204A      3.574812  1205A      3.576829  
    1206A      3.611185  1207A      3.616017  1208A      3.717349  
    1209A      3.730437  1210A      3.731343  1211A      3.819561  
    1212A      3.819665  1213A      3.861609  1214A      3.861794  
    1215A      3.924809  1216A      3.958695  1217A      3.979441  
    1218A      3.991285  1219A      4.027413  

    Final Occupation by Irrep:
              A 
    DOCC [   197 ]
    NA   [   197 ]
    NB   [   197 ]

  @DF-RHF Final Energy: -2359.19543251590676

   => Energetics <=

    Nuclear Repulsion Energy =           7717.2645539378308968
    One-Electron Energy =              -18541.9013735813568928
    Two-Electron Energy =                8465.4413871276192367
    Total Energy =                      -2359.1954325159058499

Computation Completed


Properties will be evaluated at   0.000000,   0.000000,   0.000000 [a0]

Properties computed using the SCF density matrix


 Multipole Moments:

 ------------------------------------------------------------------------------------
     Multipole            Electronic (a.u.)      Nuclear  (a.u.)        Total (a.u.)
 ------------------------------------------------------------------------------------

 L = 1.  Multiply by 2.5417464519 to convert [e a0] to [Debye]
 Dipole X            :         -0.0010185            0.0006313           -0.0003873
 Dipole Y            :         -0.0478612            0.0560211            0.0081599
 Dipole Z            :         30.5835079          -43.9847254          -13.4012175
 Magnitude           :                                                   13.4012200

 ------------------------------------------------------------------------------------

*** tstop() called on d-6-11-4 at Mon Jan 22 20:08:25 2024
Module time:
	user time   =    4266.87 seconds =      71.11 minutes
	system time =     155.19 seconds =       2.59 minutes
	total time  =        465 seconds =       7.75 minutes
Total time:
	user time   =    4266.87 seconds =      71.11 minutes
	system time =     155.19 seconds =       2.59 minutes
	total time  =        465 seconds =       7.75 minutes

  //>>>>>>>>>>>>>>>>>>>>>>>>>>>>>>>>>>>//
  //            Monomer A HF           //
  //<<<<<<<<<<<<<<<<<<<<<<<<<<<<<<<<<<<//

   => Libint2 <=

    Primary   basis highest AM E, G, H:  7, 7, 4
    Auxiliary basis highest AM E, G, H:  7, 7, 5
    Onebody   basis highest AM E, G, H:  7, 7, 5
    Solid Harmonics ordering:            gaussian

*** tstart() called on d-6-11-4
*** at Mon Jan 22 20:08:25 2024

   => Loading Basis Set <=

    Name: JUN-CC-PVDZ
    Role: ORBITAL
    Keyword: BASIS
    atoms 1-2, 4-5, 10, 17-70 entry C          line   164 file /home/gridsan/tfroembgen/.conda/envs/psi4test/share/psi4/basis/jun-cc-pvdz.gbs 
    atoms 3, 6                entry N          line   198 file /home/gridsan/tfroembgen/.conda/envs/psi4test/share/psi4/basis/jun-cc-pvdz.gbs 
    atoms 7-9, 11-16, 71-88   entry H          line    36 file /home/gridsan/tfroembgen/.conda/envs/psi4test/share/psi4/basis/jun-cc-pvdz.gbs 


         ---------------------------------------------------------
                                   SCF
               by Justin Turney, Rob Parrish, Andy Simmonett
                          and Daniel G. A. Smith
                              RHF Reference
                       12 Threads,  30517 MiB Core
         ---------------------------------------------------------

  ==> Geometry <==

    Molecular point group: c1
    Full point group: C1

    Geometry (in Angstrom), charge = 1, multiplicity = 1:

       Center              X                  Y                   Z               Mass       
    ------------   -----------------  -----------------  -----------------  -----------------
         C            0.680066520158    -0.008042372515    -8.896625265091    12.000000000000
         C           -0.680504479842    -0.006014372515    -8.896241265091    12.000000000000
         N           -1.085635479842    -0.005016372515    -7.577917265091    14.003074004430
         C            0.000107520158    -0.001740372515    -6.796516265091    12.000000000000
         C           -2.477365479842     0.044389627485    -7.109938265091    12.000000000000
         N            1.085221520158    -0.005016372515    -7.577917265091    14.003074004430
         H            1.385145520158    -0.015870372515    -9.714064265091     1.007825032230
         H           -1.385302479842    -0.006204372515    -9.713910265091     1.007825032230
         H           -0.000009479842     0.000006627485    -5.715427265091     1.007825032230
         C            2.478116520158    -0.021908372515    -7.112819265091    12.000000000000
         H            2.490591520158     0.005436627485    -6.022566265091     1.007825032230
         H            2.967027520158    -0.935354372515    -7.459995265091     1.007825032230
         H            3.001427520158     0.853574627485    -7.504291265091     1.007825032230
         H           -2.857359479842     1.066460627485    -7.189897265091     1.007825032230
         H           -3.082679479842    -0.625694372515    -7.723002265091     1.007825032230
         H           -2.518128479842    -0.282594372515    -6.069990265091     1.007825032230
      Gh(C)           1.225311895423     0.707538288405     1.125441362192    12.000000000000
      Gh(C)           1.225323856051    -0.707538895085     1.113110552622    12.000000000000
      Gh(C)          -0.000006153932     1.414965913575     1.112576929101    12.000000000000
      Gh(C)           2.456448753949     1.418327886663     1.128328219592    12.000000000000
      Gh(C)           0.000010827279    -1.414976499150     1.122776486426    12.000000000000
      Gh(C)          -1.225300948908     0.707545373469     1.127692882515    12.000000000000
      Gh(C)           2.456437755320    -1.418323304396     1.110865395765    12.000000000000
      Gh(C)          -0.000001332978     2.836801030766     1.110173378967    12.000000000000
      Gh(C)           3.681826697470     0.709317955486     1.111214185563    12.000000000000
      Gh(C)           2.455120048865     2.834223660974     1.111111628602    12.000000000000
      Gh(C)           3.681821105219    -0.709333839944     1.127286669581    12.000000000000
      Gh(C)          -1.225313598688    -0.707527516059     1.114183314049    12.000000000000
      Gh(C)           1.226699581202     3.543469483479     1.127470701512    12.000000000000
      Gh(C)           0.000004784858    -2.836782139751     1.127624654047    12.000000000000
      Gh(C)          -2.456436032848     1.418316917770     1.127728278360    12.000000000000
      Gh(C)           2.455123417779    -2.834230029103     1.127134761214    12.000000000000
      Gh(C)          -1.226714364589     3.543469063235     1.127574034731    12.000000000000
      Gh(C)           4.914517295202     1.427172871975     1.117694868592    12.000000000000
      Gh(C)           3.693150191476     3.542795292030     1.117744668229    12.000000000000
      Gh(C)          -2.456437600068    -1.418313281354     1.110840357640    12.000000000000
      Gh(C)           1.226704841943    -3.543474242421     1.111500570762    12.000000000000
      Gh(C)          -2.455125398508     2.834216662119     1.111118004949    12.000000000000
      Gh(C)           4.914524380782    -1.427186910459     1.120667611327    12.000000000000
      Gh(C)           1.221424613699     4.970134064745     1.120806045587    12.000000000000
      Gh(C)           4.893008229321     2.825187999512     1.118911536951    12.000000000000
      Gh(C)          -1.226697008489    -3.543470997592     1.111767775172    12.000000000000
      Gh(C)          -3.681818976526     0.709324966217     1.111226866043    12.000000000000
      Gh(C)           3.693147101150    -3.542801341905     1.120785501888    12.000000000000
      Gh(C)          -1.221432251994     4.970128297348     1.120989540959    12.000000000000
      Gh(C)           6.134770972926     0.680547946591     1.118464643142    12.000000000000
      Gh(C)           3.656788880610     4.972953243053     1.118653306011    12.000000000000
      Gh(C)          -2.455126907733    -2.834215093576     1.126890403416    12.000000000000
      Gh(C)          -3.681819179061    -0.709325703983     1.127404291160    12.000000000000
      Gh(C)           4.893012617914    -2.825200106147     1.119522688847    12.000000000000
      Gh(C)          -0.000001073113     5.650447365518     1.119758232252    12.000000000000
      Gh(C)           6.134775112332    -0.680554854590     1.119729963658    12.000000000000
      Gh(C)           2.478131482856     5.653576750817     1.119942085661    12.000000000000
      Gh(C)           1.221422404738    -4.970127055448     1.118006548564    12.000000000000
      Gh(C)          -3.693162383965     3.542796953677     1.117910175688    12.000000000000
      Gh(C)          -1.221428520945    -4.970118304111     1.117893786731    12.000000000000
      Gh(C)          -4.914521807942     1.427175446480     1.117771813600    12.000000000000
      Gh(C)           3.656787019679    -4.972955226754     1.120103806545    12.000000000000
      Gh(C)          -2.478138530106     5.653574422014     1.120226610670    12.000000000000
      Gh(C)          -3.693141738564    -3.542790219494     1.120669375732    12.000000000000
      Gh(C)          -4.914512483053    -1.427181000542     1.120702308501    12.000000000000
      Gh(C)          -0.000006008926    -5.650438287528     1.119362728131    12.000000000000
      Gh(C)          -4.893020484101     2.825188598404     1.118901455091    12.000000000000
      Gh(C)           2.478125993298    -5.653573544403     1.119013205753    12.000000000000
      Gh(C)          -3.656798710258     4.972956181527     1.118829986386    12.000000000000
      Gh(C)          -4.892999478856    -2.825191767575     1.119368653149    12.000000000000
      Gh(C)          -2.478128498083    -5.653566170521     1.118738018106    12.000000000000
      Gh(C)          -6.134770503331     0.680548765741     1.118439091440    12.000000000000
      Gh(C)          -3.656788833189    -4.972944023485     1.119889518729    12.000000000000
      Gh(C)          -6.134765042913    -0.680553915997     1.119709487863    12.000000000000
      Gh(H)           5.835288495816     3.369275894439     1.123270862614     1.007825032230
      Gh(H)           7.073859172747     1.228217248385     1.118926286536     1.007825032230
      Gh(H)           4.600663264174     5.512380801938     1.119158506763     1.007825032230
      Gh(H)           5.835283387305    -3.369306057244     1.115068221532     1.007825032230
      Gh(H)          -0.000012151306     6.738530673622     1.115408987245     1.007825032230
      Gh(H)           7.073861171831    -1.228226943259     1.119221225564     1.007825032230
      Gh(H)           2.473313731799     6.740684290880     1.119475364731     1.007825032230
      Gh(H)           4.600668491381    -5.512376129691     1.119693809377     1.007825032230
      Gh(H)          -2.473318680537     6.740681719092     1.119776711356     1.007825032230
      Gh(H)          -0.000010268228    -6.738528176967     1.123892413116     1.007825032230
      Gh(H)          -5.835301914343     3.369270949781     1.123406884762     1.007825032230
      Gh(H)           2.473307923831    -6.740685374944     1.119583536178     1.007825032230
      Gh(H)          -4.600674841208     5.512378026089     1.119323835087     1.007825032230
      Gh(H)          -5.835279506835    -3.369288964294     1.114788915651     1.007825032230
      Gh(H)          -2.473300347440    -6.740679078655     1.119134219634     1.007825032230
      Gh(H)          -7.073857766768     1.228220472326     1.118842295055     1.007825032230
      Gh(H)          -4.600673786085    -5.512362670301     1.119521501354     1.007825032230
      Gh(H)          -7.073856934409    -1.228220632492     1.119126369097     1.007825032230

  Running in c1 symmetry.

  Rotational constants: A =      0.00118  B =      0.00116  C =      0.00109 [cm^-1]
  Rotational constants: A =     35.49623  B =     34.90946  C =     32.71081 [MHz]
  Nuclear repulsion =  306.774908447733139

  Charge       = 1
  Multiplicity = 1
  Electrons    = 52
  Nalpha       = 26
  Nbeta        = 26

  ==> Algorithm <==

  SCF Algorithm Type is DF.
  DIIS enabled.
  MOM disabled.
  Fractional occupation disabled.
  Guess Type is SAD.
  Energy threshold   = 1.00e-08
  Density threshold  = 1.00e-08
  Integral threshold = 1.00e-12

  ==> Primary Basis <==

  Basis Set: JUN-CC-PVDZ
    Blend: JUN-CC-PVDZ
    Number of shells: 569
    Number of basis functions: 1233
    Number of Cartesian functions: 1294
    Spherical Harmonics?: true
    Max angular momentum: 2

   => Loading Basis Set <=

    Name: (JUN-CC-PVDZ AUX)
    Role: JKFIT
    Keyword: DF_BASIS_SCF
    atoms 1-2, 4-5, 10, 17-70 entry C          line   146 file /home/gridsan/tfroembgen/.conda/envs/psi4test/share/psi4/basis/jun-cc-pvdz-jkfit.gbs 
    atoms 3, 6                entry N          line   202 file /home/gridsan/tfroembgen/.conda/envs/psi4test/share/psi4/basis/jun-cc-pvdz-jkfit.gbs 
    atoms 7-9, 11-16, 71-88   entry H          line    70 file /home/gridsan/tfroembgen/.conda/envs/psi4test/share/psi4/basis/jun-cc-pvdz-jkfit.gbs 

  ==> Integral Setup <==

  ==> DiskDFJK: Density-Fitted J/K Matrices <==

    J tasked:                  Yes
    K tasked:                  Yes
    wK tasked:                  No
    OpenMP threads:             12
    Integrals threads:          12
    Memory [MiB]:            22888
    Algorithm:                Core
    Integral Cache:           LOAD
    Schwarz Cutoff:          1E-12
    Fitting Condition:       1E-10

   => Auxiliary Basis Set <=

  Basis Set: (JUN-CC-PVDZ AUX)
    Blend: JUN-CC-PVDZ-JKFIT
    Number of shells: 1890
    Number of basis functions: 5440
    Number of Cartesian functions: 6226
    Spherical Harmonics?: true
    Max angular momentum: 3

  Minimum eigenvalue in the overlap matrix is 8.3993625639E-10.
  Reciprocal condition number of the overlap matrix is 3.7576260467E-11.
    Using canonical orthogonalization.
  Overall, 14 of 1233 possible MOs eliminated.


  ==> Pre-Iterations <==

  SCF Guess: Superposition of Atomic Densities via on-the-fly atomic UHF (no occupation information).

   -------------------------
    Irrep   Nso     Nmo    
   -------------------------
     A       1233    1219 
   -------------------------
    Total    1233    1219
   -------------------------

  ==> Iterations <==

                           Total Energy        Delta E     RMS |[F,P]|

   @DF-RHF iter SAD:  -303.36533897098951   -3.03365e+02   0.00000e+00 
   @DF-RHF iter   1:  -303.16939359132363    1.95945e-01   3.44011e-04 ADIIS/DIIS
   @DF-RHF iter   2:  -303.28371891101671   -1.14325e-01   1.15850e-04 ADIIS/DIIS
   @DF-RHF iter   3:  -303.29516173572318   -1.14428e-02   4.53099e-05 DIIS
   @DF-RHF iter   4:  -303.29706210788828   -1.90037e-03   9.88667e-06 DIIS
   @DF-RHF iter   5:  -303.29716745956875   -1.05352e-04   2.40988e-06 DIIS
   @DF-RHF iter   6:  -303.29717670015953   -9.24059e-06   6.54119e-07 DIIS
   @DF-RHF iter   7:  -303.29717777192457   -1.07177e-06   3.31944e-07 DIIS
   @DF-RHF iter   8:  -303.29717802395783   -2.52033e-07   1.33531e-07 DIIS
   @DF-RHF iter   9:  -303.29717807230480   -4.83470e-08   3.37103e-08 DIIS
   @DF-RHF iter  10:  -303.29717807512964   -2.82483e-09   1.26800e-08 DIIS
   @DF-RHF iter  11:  -303.29717807537685   -2.47212e-10   2.99331e-09 DIIS
  Energy and wave function converged.


  ==> Post-Iterations <==

    Orbital Energies [Eh]
    ---------------------

    Doubly Occupied:                                                      

       1A    -15.834669     2A    -15.834137     3A    -11.529559  
       4A    -11.459861     5A    -11.458306     6A    -11.449669  
       7A    -11.449555     8A     -1.578240     9A     -1.433829  
      10A     -1.238671    11A     -1.189312    12A     -1.118869  
      13A     -1.022540    14A     -0.996971    15A     -0.917050  
      16A     -0.850525    17A     -0.816262    18A     -0.813209  
      19A     -0.790135    20A     -0.786228    21A     -0.781778  
      22A     -0.729706    23A     -0.725785    24A     -0.717097  
      25A     -0.596306    26A     -0.523862  

    Virtual:                                                              

      27A     -0.069647    28A     -0.068847    29A     -0.056166  
      30A     -0.050579    31A     -0.034003    32A     -0.033742  
      33A     -0.031187    34A     -0.030429    35A     -0.027177  
      36A     -0.023522    37A     -0.019791    38A     -0.013365  
      39A     -0.012488    40A     -0.007638    41A     -0.005172  
      42A     -0.004090    43A      0.001083    44A      0.001967  
      45A      0.003200    46A      0.003880    47A      0.004361  
      48A      0.009709    49A      0.010493    50A      0.013588  
      51A      0.017388    52A      0.022712    53A      0.022785  
      54A      0.023935    55A      0.028814    56A      0.030239  
      57A      0.031276    58A      0.033592    59A      0.033830  
      60A      0.038958    61A      0.039629    62A      0.043089  
      63A      0.043171    64A      0.043602    65A      0.052042  
      66A      0.053139    67A      0.054734    68A      0.058243  
      69A      0.059263    70A      0.061039    71A      0.061594  
      72A      0.065918    73A      0.067294    74A      0.068331  
      75A      0.071489    76A      0.072178    77A      0.072413  
      78A      0.073712    79A      0.074755    80A      0.076355  
      81A      0.077433    82A      0.078168    83A      0.080561  
      84A      0.085582    85A      0.086101    86A      0.087388  
      87A      0.087887    88A      0.089221    89A      0.092800  
      90A      0.094130    91A      0.094200    92A      0.094840  
      93A      0.096137    94A      0.098537    95A      0.098823  
      96A      0.101100    97A      0.105098    98A      0.105336  
      99A      0.105473   100A      0.106757   101A      0.108660  
     102A      0.112483   103A      0.113174   104A      0.117367  
     105A      0.120824   106A      0.121142   107A      0.123682  
     108A      0.123931   109A      0.124655   110A      0.125303  
     111A      0.128942   112A      0.129398   113A      0.130122  
     114A      0.130442   115A      0.131344   116A      0.131948  
     117A      0.133584   118A      0.135952   119A      0.136924  
     120A      0.139624   121A      0.141973   122A      0.142928  
     123A      0.146043   124A      0.146448   125A      0.146619  
     126A      0.147349   127A      0.147584   128A      0.152127  
     129A      0.152686   130A      0.154625   131A      0.154730  
     132A      0.157801   133A      0.158492   134A      0.158592  
     135A      0.159858   136A      0.161989   137A      0.168849  
     138A      0.171478   139A      0.171577   140A      0.173766  
     141A      0.173953   142A      0.175585   143A      0.175909  
     144A      0.176194   145A      0.176680   146A      0.178770  
     147A      0.181354   148A      0.185330   149A      0.185544  
     150A      0.187758   151A      0.188436   152A      0.189724  
     153A      0.190302   154A      0.190618   155A      0.191538  
     156A      0.191718   157A      0.192618   158A      0.193249  
     159A      0.195043   160A      0.198934   161A      0.200759  
     162A      0.201658   163A      0.203090   164A      0.203350  
     165A      0.204248   166A      0.205523   167A      0.219248  
     168A      0.219667   169A      0.221169   170A      0.222426  
     171A      0.225287   172A      0.225714   173A      0.226204  
     174A      0.226317   175A      0.227921   176A      0.227988  
     177A      0.231571   178A      0.232004   179A      0.234841  
     180A      0.235205   181A      0.235782   182A      0.236211  
     183A      0.237364   184A      0.237469   185A      0.237537  
     186A      0.240137   187A      0.246079   188A      0.248159  
     189A      0.248170   190A      0.249306   191A      0.251456  
     192A      0.254111   193A      0.259942   194A      0.260354  
     195A      0.260590   196A      0.265116   197A      0.265295  
     198A      0.268134   199A      0.270084   200A      0.274328  
     201A      0.275140   202A      0.275502   203A      0.278887  
     204A      0.279277   205A      0.281174   206A      0.281728  
     207A      0.283087   208A      0.294018   209A      0.294265  
     210A      0.295669   211A      0.296059   212A      0.296212  
     213A      0.296884   214A      0.299882   215A      0.302550  
     216A      0.303562   217A      0.305283   218A      0.305691  
     219A      0.310068   220A      0.312681   221A      0.312801  
     222A      0.313004   223A      0.314784   224A      0.315809  
     225A      0.317153   226A      0.319065   227A      0.320108  
     228A      0.323480   229A      0.323546   230A      0.327659  
     231A      0.327751   232A      0.329164   233A      0.329799  
     234A      0.336947   235A      0.337171   236A      0.339488  
     237A      0.342743   238A      0.349177   239A      0.351132  
     240A      0.352541   241A      0.353396   242A      0.354495  
     243A      0.359815   244A      0.361280   245A      0.368289  
     246A      0.368367   247A      0.371797   248A      0.372099  
     249A      0.372470   250A      0.377546   251A      0.378110  
     252A      0.379653   253A      0.379663   254A      0.380072  
     255A      0.381946   256A      0.382104   257A      0.383925  
     258A      0.386947   259A      0.387978   260A      0.392923  
     261A      0.394445   262A      0.394936   263A      0.395824  
     264A      0.398538   265A      0.402725   266A      0.403114  
     267A      0.403710   268A      0.403911   269A      0.405188  
     270A      0.406428   271A      0.410518   272A      0.412573  
     273A      0.415773   274A      0.416603   275A      0.416768  
     276A      0.420635   277A      0.422065   278A      0.422406  
     279A      0.425404   280A      0.425591   281A      0.431218  
     282A      0.432251   283A      0.432579   284A      0.434866  
     285A      0.435606   286A      0.435641   287A      0.435906  
     288A      0.437257   289A      0.441372   290A      0.442878  
     291A      0.442982   292A      0.450258   293A      0.454376  
     294A      0.454475   295A      0.455206   296A      0.455727  
     297A      0.458287   298A      0.465616   299A      0.465743  
     300A      0.471161   301A      0.472904   302A      0.474467  
     303A      0.475666   304A      0.475998   305A      0.478555  
     306A      0.478690   307A      0.479740   308A      0.482070  
     309A      0.489829   310A      0.490503   311A      0.491205  
     312A      0.493428   313A      0.494099   314A      0.494205  
     315A      0.496011   316A      0.506288   317A      0.509533  
     318A      0.512632   319A      0.512772   320A      0.515257  
     321A      0.521936   322A      0.522034   323A      0.523734  
     324A      0.524308   325A      0.524449   326A      0.526288  
     327A      0.527985   328A      0.528219   329A      0.533588  
     330A      0.546220   331A      0.546362   332A      0.546882  
     333A      0.547211   334A      0.548502   335A      0.548630  
     336A      0.557895   337A      0.558023   338A      0.560914  
     339A      0.564491   340A      0.564708   341A      0.566370  
     342A      0.567853   343A      0.568093   344A      0.568165  
     345A      0.579695   346A      0.579957   347A      0.580668  
     348A      0.587392   349A      0.587550   350A      0.593471  
     351A      0.593733   352A      0.594067   353A      0.596557  
     354A      0.604696   355A      0.606654   356A      0.610308  
     357A      0.610661   358A      0.619829   359A      0.623578  
     360A      0.625566   361A      0.626083   362A      0.626150  
     363A      0.627212   364A      0.627319   365A      0.630854  
     366A      0.637660   367A      0.637855   368A      0.639308  
     369A      0.639410   370A      0.645451   371A      0.645857  
     372A      0.647561   373A      0.650891   374A      0.651085  
     375A      0.651961   376A      0.654412   377A      0.654737  
     378A      0.654864   379A      0.655263   380A      0.655596  
     381A      0.662597   382A      0.670298   383A      0.670506  
     384A      0.671792   385A      0.671985   386A      0.677389  
     387A      0.684899   388A      0.688476   389A      0.691637  
     390A      0.696034   391A      0.696413   392A      0.698965  
     393A      0.708233   394A      0.708533   395A      0.709733  
     396A      0.710243   397A      0.712681   398A      0.713529  
     399A      0.713909   400A      0.713990   401A      0.715906  
     402A      0.715912   403A      0.718321   404A      0.721304  
     405A      0.722067   406A      0.723354   407A      0.724674  
     408A      0.725040   409A      0.729869   410A      0.735615  
     411A      0.735704   412A      0.736684   413A      0.738432  
     414A      0.743341   415A      0.743596   416A      0.744439  
     417A      0.744778   418A      0.749686   419A      0.751531  
     420A      0.753815   421A      0.754027   422A      0.754443  
     423A      0.763631   424A      0.777903   425A      0.785481  
     426A      0.792351   427A      0.792559   428A      0.796792  
     429A      0.796895   430A      0.807891   431A      0.808043  
     432A      0.815320   433A      0.817560   434A      0.817855  
     435A      0.828622   436A      0.828640   437A      0.833759  
     438A      0.833851   439A      0.837146   440A      0.838909  
     441A      0.846268   442A      0.846361   443A      0.850370  
     444A      0.853334   445A      0.864689   446A      0.872380  
     447A      0.872415   448A      0.884211   449A      0.895692  
     450A      0.900960   451A      0.907554   452A      0.907597  
     453A      0.916116   454A      0.916152   455A      0.925227  
     456A      0.937938   457A      0.943042   458A      0.947042  
     459A      0.947142   460A      0.949628   461A      0.952057  
     462A      0.957071   463A      0.965599   464A      0.974734  
     465A      0.975338   466A      0.975480   467A      0.990860  
     468A      0.991104   469A      1.006600   470A      1.013086  
     471A      1.013143   472A      1.015832   473A      1.015970  
     474A      1.026206   475A      1.030816   476A      1.045039  
     477A      1.050163   478A      1.050415   479A      1.053076  
     480A      1.065115   481A      1.095734   482A      1.102271  
     483A      1.102346   484A      1.102871   485A      1.108763  
     486A      1.108849   487A      1.122680   488A      1.123923  
     489A      1.125212   490A      1.130370   491A      1.130545  
     492A      1.138392   493A      1.144204   494A      1.144215  
     495A      1.149539   496A      1.149866   497A      1.161694  
     498A      1.167528   499A      1.167596   500A      1.175495  
     501A      1.177137   502A      1.235485   503A      1.243365  
     504A      1.243400   505A      1.249803   506A      1.253626  
     507A      1.253782   508A      1.261071   509A      1.269337  
     510A      1.269467   511A      1.272467   512A      1.274825  
     513A      1.276875   514A      1.311462   515A      1.317573  
     516A      1.318046   517A      1.318169   518A      1.345481  
     519A      1.368173   520A      1.390193   521A      1.390654  
     522A      1.409083   523A      1.409222   524A      1.410695  
     525A      1.414357   526A      1.414604   527A      1.417280  
     528A      1.421603   529A      1.429869   530A      1.430668  
     531A      1.463177   532A      1.477563   533A      1.491176  
     534A      1.502194   535A      1.502491   536A      1.502735  
     537A      1.504536   538A      1.505753   539A      1.515895  
     540A      1.516456   541A      1.562090   542A      1.569373  
     543A      1.582662   544A      1.585597   545A      1.594523  
     546A      1.597846   547A      1.604165   548A      1.606390  
     549A      1.608083   550A      1.609565   551A      1.618137  
     552A      1.629613   553A      1.630783   554A      1.634720  
     555A      1.639057   556A      1.646708   557A      1.659921  
     558A      1.668646   559A      1.679774   560A      1.685453  
     561A      1.692920   562A      1.693986   563A      1.694102  
     564A      1.695486   565A      1.696938   566A      1.699288  
     567A      1.706446   568A      1.707312   569A      1.709121  
     570A      1.711402   571A      1.722591   572A      1.730453  
     573A      1.734840   574A      1.737722   575A      1.738298  
     576A      1.740424   577A      1.742964   578A      1.746271  
     579A      1.746763   580A      1.749686   581A      1.755432  
     582A      1.758149   583A      1.758726   584A      1.771405  
     585A      1.772404   586A      1.776668   587A      1.777028  
     588A      1.777179   589A      1.780503   590A      1.780854  
     591A      1.781020   592A      1.788357   593A      1.788737  
     594A      1.788861   595A      1.789332   596A      1.793305  
     597A      1.803433   598A      1.806176   599A      1.808132  
     600A      1.808520   601A      1.809375   602A      1.816397  
     603A      1.822398   604A      1.823568   605A      1.825113  
     606A      1.829067   607A      1.832551   608A      1.833803  
     609A      1.835544   610A      1.839627   611A      1.840906  
     612A      1.842319   613A      1.851264   614A      1.853273  
[...]
     790A      1.643513   791A      1.643549   792A      1.643632  
     793A      1.643925   794A      1.649729   795A      1.660944  
     796A      1.661008   797A      1.663362   798A      1.667409  
     799A      1.676232   800A      1.676326   801A      1.676593  
     802A      1.676739   803A      1.676926   804A      1.677014  
     805A      1.686576   806A      1.686611   807A      1.686842  
     808A      1.696037   809A      1.697756   810A      1.699325  
     811A      1.699362   812A      1.700767   813A      1.704741  
     814A      1.704812   815A      1.715721   816A      1.715743  
     817A      1.741678   818A      1.751387   819A      1.754822  
     820A      1.760247   821A      1.760305   822A      1.761061  
     823A      1.761727   824A      1.776717   825A      1.776750  
     826A      1.785851   827A      1.791455   828A      1.791499  
     829A      1.796759   830A      1.799730   831A      1.802780  
     832A      1.816529   833A      1.816550   834A      1.816686  
     835A      1.818038   836A      1.824641   837A      1.824756  
     838A      1.830637   839A      1.830810   840A      1.833293  
     841A      1.836809   842A      1.842398   843A      1.842689  
     844A      1.855143   845A      1.860603   846A      1.860779  
     847A      1.860862   848A      1.860908   849A      1.864058  
     850A      1.868716   851A      1.872155   852A      1.880138  
     853A      1.880241   854A      1.889072   855A      1.896038  
     856A      1.896105   857A      1.896264   858A      1.899371  
     859A      1.902934   860A      1.903082   861A      1.908540  
     862A      1.908698   863A      1.913240   864A      1.913890  
     865A      1.914505   866A      1.917644   867A      1.917804  
     868A      1.919238   869A      1.921955   870A      1.922062  
     871A      1.940496   872A      1.941262   873A      1.941729  
     874A      1.941806   875A      1.942158   876A      1.946407  
     877A      1.946490   878A      1.953889   879A      1.954105  
     880A      1.954284   881A      1.954447   882A      1.957990  
     883A      1.970007   884A      1.982805   885A      1.982900  
     886A      1.989558   887A      1.992936   888A      1.997101  
     889A      1.998537   890A      1.998549   891A      2.004180  
     892A      2.008026   893A      2.012271   894A      2.012397  
     895A      2.015033   896A      2.027313   897A      2.027817  
     898A      2.029929   899A      2.030034   900A      2.030241  
     901A      2.031188   902A      2.031325   903A      2.031565  
     904A      2.036827   905A      2.046725   906A      2.048063  
     907A      2.051821   908A      2.052078   909A      2.055868  
     910A      2.057359   911A      2.058206   912A      2.059088  
     913A      2.060629   914A      2.068211   915A      2.070041  
     916A      2.071168   917A      2.071469   918A      2.075388  
     919A      2.075409   920A      2.080747   921A      2.081763  
     922A      2.084095   923A      2.084751   924A      2.085562  
     925A      2.092912   926A      2.094377   927A      2.095372  
     928A      2.096846   929A      2.100473   930A      2.100526  
     931A      2.105836   932A      2.107976   933A      2.108233  
     934A      2.108389   935A      2.109109   936A      2.109191  
     937A      2.111584   938A      2.114229   939A      2.119156  
     940A      2.119203   941A      2.120183   942A      2.120424  
     943A      2.122964   944A      2.125938   945A      2.126046  
     946A      2.131435   947A      2.133433   948A      2.134547  
     949A      2.135759   950A      2.135861   951A      2.142696  
     952A      2.143160   953A      2.143307   954A      2.155455  
     955A      2.158363   956A      2.159557   957A      2.160840  
     958A      2.162669   959A      2.162804   960A      2.171238  
     961A      2.178209   962A      2.178288   963A      2.185029  
     964A      2.190331   965A      2.190661   966A      2.191450  
     967A      2.192487   968A      2.193786   969A      2.195761  
     970A      2.195928   971A      2.198259   972A      2.211461  
     973A      2.219652   974A      2.220263   975A      2.220308  
     976A      2.227799   977A      2.228128   978A      2.228537  
     979A      2.228888   980A      2.232627   981A      2.243226  
     982A      2.243567   983A      2.243827   984A      2.244161  
     985A      2.247068   986A      2.260043   987A      2.260131  
     988A      2.266351   989A      2.270108   990A      2.270125  
     991A      2.271983   992A      2.272043   993A      2.274440  
     994A      2.281040   995A      2.295343   996A      2.300225  
     997A      2.306658   998A      2.310268   999A      2.311987  
    1000A      2.312451  1001A      2.319896  1002A      2.322241  
    1003A      2.330914  1004A      2.330963  1005A      2.331069  
    1006A      2.333789  1007A      2.337287  1008A      2.338351  
    1009A      2.350665  1010A      2.351337  1011A      2.352348  
    1012A      2.352409  1013A      2.366243  1014A      2.366384  
    1015A      2.374582  1016A      2.379255  1017A      2.383742  
    1018A      2.415814  1019A      2.423990  1020A      2.424357  
    1021A      2.424383  1022A      2.436439  1023A      2.440787  
    1024A      2.441076  1025A      2.441370  1026A      2.445962  
    1027A      2.454061  1028A      2.467532  1029A      2.469991  
    1030A      2.472570  1031A      2.472891  1032A      2.474516  
    1033A      2.485275  1034A      2.485363  1035A      2.502283  
    1036A      2.504581  1037A      2.519140  1038A      2.529706  
    1039A      2.529842  1040A      2.543465  1041A      2.545225  
    1042A      2.545354  1043A      2.554161  1044A      2.554229  
    1045A      2.554781  1046A      2.559806  1047A      2.559815  
    1048A      2.572952  1049A      2.572975  1050A      2.574519  
    1051A      2.575077  1052A      2.575294  1053A      2.586214  
    1054A      2.586326  1055A      2.587220  1056A      2.589690  
    1057A      2.591382  1058A      2.605972  1059A      2.623331  
    1060A      2.623466  1061A      2.624948  1062A      2.631187  
    1063A      2.631422  1064A      2.631921  1065A      2.641071  
    1066A      2.641203  1067A      2.643115  1068A      2.648839  
    1069A      2.650751  1070A      2.651100  1071A      2.656812  
    1072A      2.657081  1073A      2.672150  1074A      2.681865  
    1075A      2.682955  1076A      2.683963  1077A      2.686749  
    1078A      2.701896  1079A      2.702199  1080A      2.712989  
    1081A      2.712996  1082A      2.718629  1083A      2.718644  
    1084A      2.722418  1085A      2.722679  1086A      2.735123  
    1087A      2.737323  1088A      2.746211  1089A      2.752123  
    1090A      2.752419  1091A      2.765630  1092A      2.777017  
    1093A      2.794367  1094A      2.794504  1095A      2.802475  
    1096A      2.815408  1097A      2.827077  1098A      2.827540  
    1099A      2.833986  1100A      2.851036  1101A      2.851528  
    1102A      2.856000  1103A      2.858292  1104A      2.859270  
    1105A      2.859442  1106A      2.866612  1107A      2.872782  
    1108A      2.888063  1109A      2.907094  1110A      2.916738  
    1111A      2.916773  1112A      2.921729  1113A      2.923570  
    1114A      2.933465  1115A      2.933581  1116A      2.944624  
    1117A      2.949542  1118A      2.949589  1119A      2.962710  
    1120A      2.969154  1121A      2.992274  1122A      3.004207  
    1123A      3.006425  1124A      3.006751  1125A      3.011849  
    1126A      3.029231  1127A      3.036152  1128A      3.064074  
    1129A      3.064092  1130A      3.070434  1131A      3.070494  
    1132A      3.109305  1133A      3.110143  1134A      3.127456  
    1135A      3.129457  1136A      3.129649  1137A      3.137435  
    1138A      3.139325  1139A      3.146109  1140A      3.146227  
    1141A      3.146278  1142A      3.148845  1143A      3.148914  
    1144A      3.157543  1145A      3.157929  1146A      3.165514  
    1147A      3.166017  1148A      3.191623  1149A      3.211129  
    1150A      3.218379  1151A      3.237281  1152A      3.272179  
    1153A      3.276877  1154A      3.277039  1155A      3.281723  
    1156A      3.281884  1157A      3.284041  1158A      3.303436  
    1159A      3.316032  1160A      3.394441  1161A      3.416203  
    1162A      3.416703  1163A      3.442818  1164A      3.481294  
    1165A      3.483868  1166A      3.521410  1167A      3.548984  
    1168A      3.565303  1169A      3.576989  1170A      3.578959  
    1171A      3.593796  1172A      3.626450  1173A      3.628426  
    1174A      3.642564  1175A      3.662759  1176A      3.667534  
    1177A      3.755335  1178A      3.769204  1179A      3.782603  
    1180A      3.783622  1181A      3.813518  1182A      3.865698  
    1183A      3.870685  1184A      3.870701  1185A      3.913033  
    1186A      3.913144  1187A      3.956451  1188A      3.976887  
    1189A      4.010843  1190A      4.032629  1191A      4.044501  
    1192A      4.080701  1193A      4.202534  1194A      4.205970  
    1195A      4.338198  1196A      4.357605  1197A      4.481614  
    1198A      4.732388  1199A      4.770512  1200A      4.826894  
    1201A      4.843669  1202A      4.933105  1203A      5.047245  
    1204A      5.053931  1205A      5.063269  1206A      5.107948  
    1207A      5.125597  1208A      5.388815  1209A      5.418880  
    1210A      5.729544  1211A      5.750836  1212A      6.064912  
    1213A     18.196344  1214A     18.450867  1215A     18.468133  
    1216A     18.556143  1217A     18.828574  1218A     25.336569  
    1219A     25.372512  

    Final Occupation by Irrep:
              A 
    DOCC [   171 ]
    NA   [   171 ]
    NB   [   171 ]

  @DF-RHF Final Energy: -2055.89162808325136

   => Energetics <=

    Nuclear Repulsion Energy =           6452.5568002797781446
    One-Electron Energy =              -15636.4250887463167601
    Two-Electron Energy =                7127.9766603832886176
    Total Energy =                      -2055.8916280832509074

Computation Completed


Properties will be evaluated at   0.000000,   0.000000,   0.000000 [a0]

Properties computed using the SCF density matrix


 Multipole Moments:

 ------------------------------------------------------------------------------------
     Multipole            Electronic (a.u.)      Nuclear  (a.u.)        Total (a.u.)
 ------------------------------------------------------------------------------------

 L = 1.  Multiply by 2.5417464519 to convert [e a0] to [Debye]
 Dipole X            :          0.0001057           -0.0000085            0.0000972
 Dipole Y            :         -0.0000291            0.0000167           -0.0000124
 Dipole Z            :       -723.3885021          723.3892655            0.0007634
 Magnitude           :                                                    0.0007697

 ------------------------------------------------------------------------------------

*** tstop() called on d-6-11-4 at Mon Jan 22 20:19:40 2024
Module time:
	user time   =    2890.94 seconds =      48.18 minutes
	system time =      72.84 seconds =       1.21 minutes
	total time  =        341 seconds =       5.68 minutes
Total time:
	user time   =    9110.11 seconds =     151.84 minutes
	system time =     281.80 seconds =       4.70 minutes
	total time  =       1140 seconds =      19.00 minutes
  Constructing Basis Sets for SAPT...

   => Loading Basis Set <=

    Name: (JUN-CC-PVDZ AUX)
    Role: RIFIT
    Keyword: DF_BASIS_SAPT
    atoms 1-2, 4-5, 10, 17-70 entry C          line   100 file /home/gridsan/tfroembgen/.conda/envs/psi4test/share/psi4/basis/jun-cc-pvdz-ri.gbs 
    atoms 3, 6                entry N          line   144 file /home/gridsan/tfroembgen/.conda/envs/psi4test/share/psi4/basis/jun-cc-pvdz-ri.gbs 
    atoms 7-9, 11-16, 71-88   entry H          line    30 file /home/gridsan/tfroembgen/.conda/envs/psi4test/share/psi4/basis/jun-cc-pvdz-ri.gbs 

   => Loading Basis Set <=

    Name: (JUN-CC-PVDZ AUX)
    Role: JKFIT
    Keyword: DF_BASIS_ELST
    atoms 1-2, 4-5, 10, 17-70 entry C          line   146 file /home/gridsan/tfroembgen/.conda/envs/psi4test/share/psi4/basis/jun-cc-pvdz-jkfit.gbs 
    atoms 3, 6                entry N          line   202 file /home/gridsan/tfroembgen/.conda/envs/psi4test/share/psi4/basis/jun-cc-pvdz-jkfit.gbs 
    atoms 7-9, 11-16, 71-88   entry H          line    70 file /home/gridsan/tfroembgen/.conda/envs/psi4test/share/psi4/basis/jun-cc-pvdz-jkfit.gbs 


  //>>>>>>>>>>>>>>>>>>>>>>>>>>>>>>>>>>>//
  //               SSAPT0              //
  //<<<<<<<<<<<<<<<<<<<<<<<<<<<<<<<<<<<//


*** tstart() called on d-6-11-4
*** at Mon Jan 22 20:19:41 2024

        SAPT0  
    Ed Hohenstein
     6 June 2009

      Orbital Information
  --------------------------
    NSO        =      1233
    NMO        =      1219
    NRI        =      4343
    NRI (Elst) =      5440
    NOCC A     =        26
    NOCC B     =       171
    FOCC A     =         7
    FOCC B     =        54
    NVIR A     =      1193
    NVIR B     =      1048

    Elst10,r            =    -0.005391378588 [Eh]
    Exch10              =    -0.000000076379 [Eh]
    Exch10 (S^2)        =    -0.000000076379 [Eh]

    Iter     Energy [mEh]          dE [mEh]         Residual      Time [s]
       1      -0.01045180       0.010451797       0.966971385           230
       2      -0.00992500      -0.000526798       0.255034985           340
       3      -0.01094540       0.001020402       0.070101203           359
       4      -0.01100280       0.000057398       0.032858318           375
       5      -0.01095388      -0.000048919       0.008822548           392
       6      -0.01095566       0.000001774       0.003079768           409
       7      -0.01095916       0.000003500       0.000781859           425
       8      -0.01095934       0.000000184       0.000252955           441
       9      -0.01095921      -0.000000134       0.000074581           456
      10      -0.01095917      -0.000000039       0.000022776           472
      11      -0.01095917       0.000000004       0.000006402           487
      12      -0.01095918       0.000000004       0.000001844           502
      13      -0.01095918      -0.000000000       0.000000719           516

    CHF Iterations converged


    Iter     Energy [mEh]          dE [mEh]         Residual      Time [s]
       1      -1.72329940       1.723299397      21.613835202           360
       2      -1.17740437      -0.545895026       2.627012763           924
       3      -1.18135608       0.003951713       0.996300134          1207
       4      -1.21000038       0.028644298       0.223338694          1231
       5      -1.21120793       0.001207550       0.062564952          1256
       6      -1.21061766      -0.000590270       0.029416460          1283
       7      -1.21043089      -0.000186769       0.014179439          1308
       8      -1.21054158       0.000110682       0.010170497          1332
       9      -1.21057678       0.000035202       0.005966356          1358
      10      -1.21054907      -0.000027711       0.003450859          1383
      11      -1.21053955      -0.000009513       0.001599507          1405
      12      -1.21054312       0.000003569       0.000761599          1431
      13      -1.21054570       0.000002580       0.000318529          1499
      14      -1.21054513      -0.000000574       0.000175629          1670
      15      -1.21054454      -0.000000593       0.000075854          1720
      16      -1.21054464       0.000000101       0.000037749          1812
      17      -1.21054478       0.000000146       0.000011613          1960
      18      -1.21054477      -0.000000010       0.000003724          2144
      19      -1.21054476      -0.000000011       0.000001878          2266
      20      -1.21054476      -0.000000002       0.000000790          2468

    CHF Iterations converged

    Ind20,r (A<-B)      =    -0.000010959176 [Eh]
    Ind20,r (B<-A)      =    -0.001210544761 [Eh]
    Ind20,r             =    -0.001221503937 [Eh]
    Exch-Ind20,r (A<-B) =     0.000000004618 [Eh]
    Exch-Ind20,r (B<-A) =     0.000000019876 [Eh]
    Exch-Ind20,r        =     0.000000024494 [Eh]
    Disp20              =    -0.000471561436 [Eh]
    Disp20 (SS)         =    -0.000235780718 [Eh]
    Disp20 (OS)         =    -0.000235780718 [Eh]
    Exch-Disp20         =     0.000000011985 [Eh]
    Exch-Disp20 (SS)    =     0.000000008707 [Eh]
    Exch-Disp20 (OS)    =     0.000000003278 [Eh]

    SAPT Results 
  --------------------------------------------------------------------------------------------------------
    Electrostatics                 -5.39137859 [mEh]      -3.38314114 [kcal/mol]     -14.15506253 [kJ/mol]
      Elst10,r                     -5.39137859 [mEh]      -3.38314114 [kcal/mol]     -14.15506253 [kJ/mol]

    Exchange                       -0.00007638 [mEh]      -0.00004793 [kcal/mol]      -0.00020053 [kJ/mol]
      Exch10                       -0.00007638 [mEh]      -0.00004793 [kcal/mol]      -0.00020053 [kJ/mol]
      Exch10(S^2)                  -0.00007638 [mEh]      -0.00004793 [kcal/mol]      -0.00020053 [kJ/mol]

    Induction                      -1.23490231 [mEh]      -0.77491290 [kcal/mol]      -3.24223557 [kJ/mol]
      Ind20,r                      -1.22150394 [mEh]      -0.76650529 [kcal/mol]      -3.20705815 [kJ/mol]
      Exch-Ind20,r                  0.00002449 [mEh]       0.00001537 [kcal/mol]       0.00006431 [kJ/mol]
      delta HF,r (2)               -0.01342287 [mEh]      -0.00842298 [kcal/mol]      -0.03524174 [kJ/mol]

    Dispersion                     -0.47154945 [mEh]      -0.29590175 [kcal/mol]      -1.23805291 [kJ/mol]
      Disp20                       -0.47156144 [mEh]      -0.29590927 [kcal/mol]      -1.23808438 [kJ/mol]
      Exch-Disp20                   0.00001199 [mEh]       0.00000752 [kcal/mol]       0.00003147 [kJ/mol]
      Disp20 (SS)                  -0.23578072 [mEh]      -0.14795463 [kcal/mol]      -0.61904219 [kJ/mol]
      Disp20 (OS)                  -0.23578072 [mEh]      -0.14795463 [kcal/mol]      -0.61904219 [kJ/mol]
      Exch-Disp20 (SS)              0.00000871 [mEh]       0.00000546 [kcal/mol]       0.00002286 [kJ/mol]
      Exch-Disp20 (OS)              0.00000328 [mEh]       0.00000206 [kcal/mol]       0.00000861 [kJ/mol]

  Total HF                         -6.62635728 [mEh]      -4.15810197 [kcal/mol]     -17.39749864 [kJ/mol]
  Total SAPT0                      -7.09790673 [mEh]      -4.45400372 [kcal/mol]     -18.63555155 [kJ/mol]

  Special recipe for scaled SAPT0 (see Manual):
    Electrostatics sSAPT0          -5.39137859 [mEh]      -3.38314114 [kcal/mol]     -14.15506253 [kJ/mol]
    Exchange sSAPT0                -0.00007638 [mEh]      -0.00004793 [kcal/mol]      -0.00020053 [kJ/mol]
    Induction sSAPT0               -1.23490231 [mEh]      -0.77491290 [kcal/mol]      -3.24223557 [kJ/mol]
    Dispersion sSAPT0              -0.47154945 [mEh]      -0.29590175 [kcal/mol]      -1.23805291 [kJ/mol]
  Total sSAPT0                     -7.09790673 [mEh]      -4.45400372 [kcal/mol]     -18.63555155 [kJ/mol]
  --------------------------------------------------------------------------------------------------------

*** tstop() called on d-6-11-4 at Mon Jan 22 22:08:40 2024
Module time:
	user time   =    9291.49 seconds =     154.86 minutes
	system time =     969.90 seconds =      16.17 minutes
	total time  =       6539 seconds =     108.98 minutes
Total time:
	user time   =   18402.78 seconds =     306.71 minutes
	system time =    1251.70 seconds =      20.86 minutes
	total time  =       7680 seconds =     128.00 minutes

    Psi4 stopped on: Monday, 22 January 2024 10:08PM
    Psi4 wall time for execution: 2:08:01.14

*** Psi4 exiting successfully. Buy a developer a beer!
