
    -----------------------------------------------------------------------
          Psi4: An Open-Source Ab Initio Electronic Structure Package
                               Psi4 1.9 release

                         Git: Rev {} zzzzzzz 


    D. G. A. Smith, L. A. Burns, A. C. Simmonett, R. M. Parrish,
    M. C. Schieber, R. Galvelis, P. Kraus, H. Kruse, R. Di Remigio,
    A. Alenaizan, A. M. James, S. Lehtola, J. P. Misiewicz, M. Scheurer,
    R. A. Shaw, J. B. Schriber, Y. Xie, Z. L. Glick, D. A. Sirianni,
    J. S. O'Brien, J. M. Waldrop, A. Kumar, E. G. Hohenstein,
    B. P. Pritchard, B. R. Brooks, H. F. Schaefer III, A. Yu. Sokolov,
    K. Patkowski, A. E. DePrince III, U. Bozkaya, R. A. King,
    F. A. Evangelista, J. M. Turney, T. D. Crawford, C. D. Sherrill,
    J. Chem. Phys. 152(18) 184108 (2020). https://doi.org/10.1063/5.0006002

                            Additional Code Authors
    E. T. Seidl, C. L. Janssen, E. F. Valeev, M. L. Leininger,
    J. F. Gonthier, R. M. Richard, H. R. McAlexander, M. Saitow, X. Wang,
    P. Verma, M. H. Lechner, A. Jiang, S. Behnle, A. G. Heide,
    M. F. Herbst, and D. L. Poole

             Previous Authors, Complete List of Code Contributors,
                       and Citations for Specific Modules
    https://github.com/psi4/psi4/blob/master/codemeta.json
    https://github.com/psi4/psi4/graphs/contributors
    http://psicode.org/psi4manual/master/introduction.html#citing-psifour

    -----------------------------------------------------------------------


    Psi4 started on: Thursday, 25 January 2024 04:28AM

    Process ID: 4101862
    Host:       n2cn1179
    PSIDATADIR: /opt/software/pc2/EB-SW/software/PSI4/1.9-foss-2022a/share/psi4
    Memory:     500.0 MiB
    Threads:    16
    
  ==> Input File <==

--------------------------------------------------------------------------
memory 47 GB # how much memory is available ! Depends on the nodes/cores !

molecule dimer {
# monomer A
-1 1    # Charge and multiplicity
B -1.977592e-04  2.742729e-04 -3.999966
F  1.123153e-16  1.430594e-17 -2.587181
F  1.147860e+00  6.757812e-01 -4.471107
F  1.191806e-02 -1.332011e+00 -4.470905
F -1.159666e+00  6.560735e-01 -4.470826
--
# monomer B
0 1     # Charge and multiplicity
C   -3.66844126402057      7.80375217008252      0.00190004133558
C   -4.84759871934653      7.13124183134024     -0.00046653359696
C   -4.89495929917518      5.69633040353158     -0.00103944469517
C   -3.65374067877320      4.98073034095895      0.00662099703436
C   -2.40942512149445      7.11398103667468      0.00209438359570
C   -2.42547734410473      5.68112195090346     -0.00491050527438
C   -1.19474401643570      7.78614419430947      0.00356656413763
C   0.03795902893699      7.09942164575698      0.00139585983271
C   0.03033258741920      5.66948955970466     -0.00408752508301
C   -1.20098450790502      4.96927034791531      0.00488220885047
C   1.27795782581485      7.77285944319479      0.00277170839332
C   2.48535808472416      7.08769688523756      0.00049722048857
C   2.48612868491717      5.65477081024076     -0.00644052849921
C   1.25408291964399      4.95607811366431      0.00518741308898
C   3.75171459140595      7.76391215098033      0.00062407186893
C   4.92356605618520      7.07878077698995     -0.00143240883900
C   4.95560727132542      5.64344746336949     -0.00159282164606
C   3.70680153420475      4.94121020833308      0.00349873852374
H   -3.65852113775815      8.89082741913536      0.00358502958574
H   -1.18921332975660      8.87412108735996      0.00753844057883
H   1.28429423888630      8.86083343548850      0.00693053253426
H   3.75354208679975      8.85103527897216      0.00214659618464
H   5.86995870320703      7.61379483465560     -0.00235777588134
H   -5.78823170750226      7.67630221293400     -0.00202638095293
C   -6.09197395869619      4.99326001364347     -0.00291168518608
C   -6.12866148031747      3.58258016879823     -0.00171050815740
C   -3.66457974004527      3.56418217974434     -0.00463560277484
C   -4.89429820469869      2.86108077590057      0.00453338221034
C   -2.43733499489796      2.84761165708481      0.00719617576166
C   -1.20922785759670      3.54788693497833     -0.00648285103018
C   1.24714157216223      3.53468075142962     -0.00729145743546
C   0.01517603956900      2.83311183930540      0.00439272578912
C   2.46764517244071      2.82128997725533      0.00449278391269
C   3.70254947457969      3.52466015442405     -0.00899517692985
C   6.14498038638375      4.92757236613191     -0.00282626685777
C   6.16658835886151      3.51658447594213     -0.00065971342101
C   4.92460995845939      2.80840792535402      0.00587903281610
H   7.08990550964105      5.46688776622306     -0.00658814770723
H   -7.03104175110130      5.54268795285765     -0.00714490013730
C   -7.33969804112295      2.85841153457957     -0.00333767559888
C   -7.36488195805880      1.47032337158330     -0.00157213747140
C   -4.90350460894690      1.44442681216000     -0.00628840166334
C   -6.13225715261081      0.73993935705394      0.00600164231964
C   -3.67687480051673      0.72669714267312      0.00433931473643
C   -2.44565658606518      1.42964113326212     -0.00597039546461
C   -1.22360068130162      0.71532450163492      0.00545886906656
C   0.00763786931376      1.41738314923765      0.00392452278437
C   1.23121980774686      0.70211669058719     -0.01490206287210
C   2.46082110053113      1.40329203612573      0.00460244601878
C   3.68443025419614      0.68719842821222      0.00377365974158
C   4.91870890153864      1.39173456118907     -0.00862816189375
C   7.36980207796101      2.77948220318441     -0.00242013321349
C   7.38016266612146      1.39121750785509     -0.00087345036788
C   6.13979953912259      0.67411862320065      0.00545489144369
H   -8.27919079934664      3.40711804112415     -0.00763522772059
H   8.31511347147953      3.31811809662368     -0.00663070901292
C   -8.59175593758115      0.72483255304480     -0.00123170985383
C   -8.59902460370342     -0.63263980622873      0.00089141472904
C   -6.13981313911873     -0.67413663715361     -0.00609792660607
C   -7.38018411213749     -1.39126618958160      0.00131813493501
C   -4.91868448025621     -1.39175501803000      0.00624257154343
C   -3.68443829568458     -0.68723731573599     -0.00478966852105
C   -2.46081704024768     -1.40334517882457      0.00575341766833
C   -1.23116201232071     -0.70217386488055     -0.00636696112346
C   -0.00756962538737     -1.41741884941102      0.00108956317991
C   1.22364771588843     -0.71527537726392      0.01109518512883
C   2.44567064933149     -1.42964328900682     -0.00065482763106
C   3.67686670284649     -0.72670743155550     -0.00479541202602
C   6.13224884641929     -0.73997883984993     -0.00632338623858
C   4.90351914550401     -1.44445752054090      0.00751768830159
C   8.59901484869081      0.63260386666793     -0.00101133422380
C   8.59174548810050     -0.72485086719319      0.00072504603735
C   7.36486276438985     -1.47033266560598      0.00049486934466
H   -9.52830597181814      1.27684744919284     -0.00270163681798
H   9.54141097460619      1.17457248844457     -0.00206336648518
C   -7.36983790976868     -2.77954514593389      0.00312634335708
C   -4.92459910905015     -2.80843725734101     -0.00460528907921
C   -6.16662249566744     -3.51665219282533      0.00169655107992
C   -3.70251035970491     -3.52468154912026      0.00571878010666
C   -2.46764698511392     -2.82132596280400     -0.00632585824990
C   -0.01513347410770     -2.83314164539971     -0.00604426974092
C   -1.24712184122656     -3.53473217556300      0.00551968366725
C   1.20924506964357     -3.54791467864352      0.00805871345849
C   2.43733602215464     -2.84764173817541     -0.00608104485234
C   4.89430234377080     -2.86112296828604     -0.00526030478103
C   3.66461525504104     -3.56421984553201      0.00761911515957
C   6.12863901474565     -3.58258405771778      0.00096495711699
C   7.33967266469532     -2.85841330737039      0.00248018319869
H   -9.54144911125902     -1.17456346666430      0.00226083090216
H   9.52826186807155     -1.27691907390448      0.00197485379837
H   -8.31516504384864     -3.31814985321231      0.00729857188773
H   8.27915514249207     -3.40714078989363      0.00681973918158
C   -6.14499418870218     -4.92764727278338      0.00302254913999
C   -3.70678334799751     -4.94126171411716     -0.00679841894792
C   -4.95559005800169     -5.64349397349412      0.00116871569699
C   -2.48612132622665     -5.65478557440947      0.00614125209662
C   -1.25405833548005     -4.95612205000132     -0.00503435388927
C   1.20101257386816     -4.96928038819302     -0.00385322963129
C   -0.03033667441341     -5.66952030313900      0.00398997003238
C   3.65375010132847     -4.98074377541453     -0.00309522988330
C   2.42549269587528     -5.68117463552727      0.00628170066869
C   6.09196561781097     -4.99325796338655      0.00325918379042
C   4.89497644461045     -5.69634842095790      0.00202298796027
H   -7.08989238804069     -5.46699984223871      0.00742531082125
H   7.03105520920009     -5.54265853633254      0.00683896355417
C   -4.92354532219813     -7.07882109967734      0.00061394679214
C   -2.48534208823777     -7.08772807792913     -0.00189594564379
C   -3.75168589177895     -7.76394715763627     -0.00170126671874
C   -0.03794895698805     -7.09946487446944     -0.00168022049625
C   -1.27795610040136     -7.77290438466689     -0.00366491325785
C   2.40944432072629     -7.11402201200282     -0.00081701968533
C   1.19474993715296     -7.78618536556242     -0.00296931056689
C   4.84762105249800     -7.13126211057943      0.00168979497423
C   3.66847160587561     -7.80378799294376     -0.00065863938960
H   -5.86994035041618     -7.61383059804164      0.00215798365757
H   5.78824962538815     -7.67633218931421      0.00281691445618
H   -3.75352693944918     -8.85107156923607     -0.00353718114765
H   -1.28430440589466     -8.86087539249706     -0.00809229711623
H   1.18922157469537     -8.87416062058945     -0.00706194725726
H   3.65854661482387     -8.89086063405326     -0.00231318081200

    units angstrom      # Angstroms are the default
    no_reorient         # Geometry fixed, default
    symmetry c1         # C1 symmetry, default
}

set {
    scf_type DF         # Density fitting, faster than exact integrals
    freeze_core True    # Freeze core electrons
    basis jun-cc-pVDZ   # Jun-cc-pVDZ basis set, recommended for sSAPT0 in https://doi.org/10.1063/1.4867135
}

energy('ssapt0')        # Compute sSAPT0 energy, includes also SAPT0
--------------------------------------------------------------------------

  Memory set to  43.772 GiB by Python driver.

Scratch directory: /tmp/
   => Loading Basis Set <=

    Name: JUN-CC-PVDZ
    Role: ORBITAL
    Keyword: BASIS
    atoms 1                                                   entry B          line   130 file /opt/software/pc2/EB-SW/software/PSI4/1.9-foss-2022a/share/psi4/basis/jun-cc-pvdz.gbs 
    atoms 2-5                                                 entry F          line   266 file /opt/software/pc2/EB-SW/software/PSI4/1.9-foss-2022a/share/psi4/basis/jun-cc-pvdz.gbs 
    atoms 6-23, 30-42, 45-59, 62-78, 81-93, 98-108, 111-119   entry C          line   164 file /opt/software/pc2/EB-SW/software/PSI4/1.9-foss-2022a/share/psi4/basis/jun-cc-pvdz.gbs 
    atoms 24-29, 43-44, 60-61, 79-80, 94-97, 109-110, 120-125 entry H          line    36 file /opt/software/pc2/EB-SW/software/PSI4/1.9-foss-2022a/share/psi4/basis/jun-cc-pvdz.gbs 

   => Loading Basis Set <=

    Name: JUN-CC-PVDZ
    Role: ORBITAL
    Keyword: BASIS
    atoms 1                                                   entry B          line   130 file /opt/software/pc2/EB-SW/software/PSI4/1.9-foss-2022a/share/psi4/basis/jun-cc-pvdz.gbs 
    atoms 2-5                                                 entry F          line   266 file /opt/software/pc2/EB-SW/software/PSI4/1.9-foss-2022a/share/psi4/basis/jun-cc-pvdz.gbs 
    atoms 6-23, 30-42, 45-59, 62-78, 81-93, 98-108, 111-119   entry C          line   164 file /opt/software/pc2/EB-SW/software/PSI4/1.9-foss-2022a/share/psi4/basis/jun-cc-pvdz.gbs 
    atoms 24-29, 43-44, 60-61, 79-80, 94-97, 109-110, 120-125 entry H          line    36 file /opt/software/pc2/EB-SW/software/PSI4/1.9-foss-2022a/share/psi4/basis/jun-cc-pvdz.gbs 


  //>>>>>>>>>>>>>>>>>>>>>>>>>>>>>>>>>>>//
  //              Dimer HF             //
  //<<<<<<<<<<<<<<<<<<<<<<<<<<<<<<<<<<<//

   => Libint2 <=

    Primary   basis highest AM E, G, H:  5, 4, 3
    Auxiliary basis highest AM E, G, H:  6, 5, 4
    Onebody   basis highest AM E, G, H:  6, 5, 4
    Solid Harmonics ordering:            gaussian

*** tstart() called on n2cn1179
*** at Thu Jan 25 04:28:05 2024

   => Loading Basis Set <=

    Name: JUN-CC-PVDZ
    Role: ORBITAL
    Keyword: BASIS
    atoms 1                                                   entry B          line   130 file /opt/software/pc2/EB-SW/software/PSI4/1.9-foss-2022a/share/psi4/basis/jun-cc-pvdz.gbs 
    atoms 2-5                                                 entry F          line   266 file /opt/software/pc2/EB-SW/software/PSI4/1.9-foss-2022a/share/psi4/basis/jun-cc-pvdz.gbs 
    atoms 6-23, 30-42, 45-59, 62-78, 81-93, 98-108, 111-119   entry C          line   164 file /opt/software/pc2/EB-SW/software/PSI4/1.9-foss-2022a/share/psi4/basis/jun-cc-pvdz.gbs 
    atoms 24-29, 43-44, 60-61, 79-80, 94-97, 109-110, 120-125 entry H          line    36 file /opt/software/pc2/EB-SW/software/PSI4/1.9-foss-2022a/share/psi4/basis/jun-cc-pvdz.gbs 


         ---------------------------------------------------------
                                   SCF
               by Justin Turney, Rob Parrish, Andy Simmonett
                          and Daniel G. A. Smith
                              RHF Reference
                       16 Threads,  44822 MiB Core
         ---------------------------------------------------------

  ==> Geometry <==

    Molecular point group: c1
    Full point group: C1

    Geometry (in Angstrom), charge = -1, multiplicity = 1:

       Center              X                  Y                   Z               Mass       
    ------------   -----------------  -----------------  -----------------  -----------------
         B           -0.000201921932     0.000288800891    -3.724467053160    11.009305360000
         F           -0.000004162732     0.000014527991    -2.311682053160    18.998403162730
         F            1.147855837268     0.675795727991    -4.195608053160    18.998403162730
         F            0.011913897268    -1.331996472009    -4.195406053160    18.998403162730
         F           -1.159670162732     0.656088027991    -4.195327053160    18.998403162730
         C           -3.668445426752     7.803766698073     0.277398988175    12.000000000000
         C           -4.847602882078     7.131256359331     0.275032413243    12.000000000000
         C           -4.894963461907     5.696344931522     0.274459502145    12.000000000000
         C           -3.653744841505     4.980744868950     0.282119943874    12.000000000000
         C           -2.409429284226     7.113995564665     0.277593330436    12.000000000000
         C           -2.425481506836     5.681136478894     0.270588441566    12.000000000000
         C           -1.194748179167     7.786158722300     0.279065510978    12.000000000000
         C            0.037954866205     7.099436173748     0.276894806673    12.000000000000
         C            0.030328424687     5.669504087695     0.271411421757    12.000000000000
         C           -1.200988670637     4.969284875906     0.280381155690    12.000000000000
         C            1.277953663083     7.772873971185     0.278270655233    12.000000000000
         C            2.485353921992     7.087711413228     0.275996167328    12.000000000000
         C            2.486124522185     5.654785338231     0.269058418341    12.000000000000
         C            1.254078756912     4.956092641655     0.280686359929    12.000000000000
         C            3.751710428674     7.763926678971     0.276123018709    12.000000000000
         C            4.923561893453     7.078795304981     0.274066538001    12.000000000000
         C            4.955603108594     5.643461991360     0.273906125194    12.000000000000
         C            3.706797371473     4.941224736324     0.278997685364    12.000000000000
         H           -3.658525300490     8.890841947126     0.279083976426     1.007825032230
         H           -1.189217492488     8.874135615351     0.283037387419     1.007825032230
         H            1.284290076155     8.860847963479     0.282429479374     1.007825032230
         H            3.753537924068     8.851049806963     0.277645543025     1.007825032230
         H            5.869954540475     7.613809362646     0.273141170959     1.007825032230
         H           -5.788235870234     7.676316740925     0.273472565887     1.007825032230
         C           -6.091978121428     4.993274541634     0.272587261654    12.000000000000
         C           -6.128665643049     3.582594696789     0.273788438683    12.000000000000
         C           -3.664583902777     3.564196707735     0.270863344065    12.000000000000
         C           -4.894302367430     2.861095303891     0.280032329050    12.000000000000
         C           -2.437339157630     2.847626185075     0.282695122602    12.000000000000
         C           -1.209232020328     3.547901462969     0.269016095810    12.000000000000
         C            1.247137409430     3.534695279420     0.268207489404    12.000000000000
         C            0.015171876837     2.833126367296     0.279891672629    12.000000000000
         C            2.467641009709     2.821304505246     0.279991730753    12.000000000000
         C            3.702545311848     3.524674682415     0.266503769910    12.000000000000
         C            6.144976223652     4.927586894122     0.272672679982    12.000000000000
         C            6.166584196130     3.516599003933     0.274839233419    12.000000000000
         C            4.924605795728     2.808422453345     0.281377979656    12.000000000000
         H            7.089901346909     5.466902294214     0.268910799133     1.007825032230
         H           -7.031045913833     5.542702480848     0.268354046703     1.007825032230
         C           -7.339702203855     2.858426062570     0.272161271241    12.000000000000
         C           -7.364886120791     1.470337899574     0.273926809369    12.000000000000
         C           -4.903508771679     1.444441340151     0.269210545177    12.000000000000
         C           -6.132261315343     0.739953885044     0.281500589160    12.000000000000
         C           -3.676878963248     0.726711670664     0.279838261576    12.000000000000
         C           -2.445660748797     1.429655661253     0.269528551375    12.000000000000
         C           -1.223604844033     0.715339029625     0.280957815906    12.000000000000
         C            0.007633706582     1.417397677228     0.279423469624    12.000000000000
         C            1.231215645015     0.702131218578     0.260596883968    12.000000000000
         C            2.460816937799     1.403306564116     0.280101392859    12.000000000000
         C            3.684426091464     0.687212956203     0.279272606581    12.000000000000
         C            4.918704738807     1.391749089180     0.266870784946    12.000000000000
         C            7.369797915229     2.779496731175     0.273078813626    12.000000000000
         C            7.380158503390     1.391232035846     0.274625496472    12.000000000000
         C            6.139795376391     0.674133151191     0.280953838284    12.000000000000
         H           -8.279194962078     3.407132569115     0.267863719119     1.007825032230
         H            8.315109308748     3.318132624614     0.268868237827     1.007825032230
         C           -8.591760100313     0.724847081035     0.274267236986    12.000000000000
         C           -8.599028766435    -0.632625278238     0.276390361569    12.000000000000
         C           -6.139817301850    -0.674122109163     0.269401020234    12.000000000000
         C           -7.380188274869    -1.391251661591     0.276817081775    12.000000000000
         C           -4.918688642988    -1.391740490039     0.281741518383    12.000000000000
         C           -3.684442458416    -0.687222787745     0.270709278319    12.000000000000
         C           -2.460821202979    -1.403330650834     0.281252364508    12.000000000000
         C           -1.231166175052    -0.702159336890     0.269131985716    12.000000000000
         C           -0.007573788119    -1.417404321420     0.276588510020    12.000000000000
         C            1.223643553157    -0.715260849273     0.286594131969    12.000000000000
         C            2.445666486600    -1.429628761016     0.274844119209    12.000000000000
         C            3.676862540115    -0.726692903565     0.270703534814    12.000000000000
         C            6.132244683688    -0.739964311859     0.269175560601    12.000000000000
         C            4.903514982772    -1.444442992550     0.283016635141    12.000000000000
         C            8.599010685959     0.632618394658     0.274487612616    12.000000000000
         C            8.591741325369    -0.724836339203     0.276223992877    12.000000000000
         C            7.364858601658    -1.470318137615     0.275993816185    12.000000000000
         H           -9.528310134550     1.276861977183     0.272797310022     1.007825032230
         H            9.541406811874     1.174587016435     0.273435580355     1.007825032230
         C           -7.369842072500    -2.779530617943     0.278625290197    12.000000000000
         C           -4.924603271782    -2.808422729350     0.270893657761    12.000000000000
         C           -6.166626658399    -3.516637664835     0.277195497920    12.000000000000
         C           -3.702514522437    -3.524667021130     0.281217726947    12.000000000000
         C           -2.467651147846    -2.821311434813     0.269173088590    12.000000000000
         C           -0.015137636839    -2.833127117409     0.269454677099    12.000000000000
         C           -1.247126003958    -3.534717647572     0.281018630507    12.000000000000
         C            1.209240906912    -3.547900150653     0.283557660298    12.000000000000
         C            2.437331859423    -2.847627210185     0.269417901988    12.000000000000
         C            4.894298181039    -2.861108440295     0.270238642059    12.000000000000
         C            3.664611092309    -3.564205317541     0.283118061999    12.000000000000
         C            6.128634852014    -3.582569529727     0.276463903957    12.000000000000
         C            7.339668501964    -2.858398779380     0.277979130039    12.000000000000
         H           -9.541453273991    -1.174548938674     0.277759777742     1.007825032230
         H            9.528257705340    -1.276904545914     0.277473800638     1.007825032230
         H           -8.315169206580    -3.318135325222     0.282797518728     1.007825032230
         H            8.279150979760    -3.407126261903     0.282318686021     1.007825032230
         C           -6.144998351434    -4.927632744793     0.278521495980    12.000000000000
         C           -3.706787510729    -4.941247186127     0.268700527892    12.000000000000
         C           -4.955594220733    -5.643479445504     0.276667662537    12.000000000000
         C           -2.486125488958    -5.654771046419     0.281640198937    12.000000000000
         C           -1.254062498212    -4.956107522011     0.270464592951    12.000000000000
         C            1.201008411136    -4.969265860202     0.271645717209    12.000000000000
         C           -0.030340837145    -5.669505775148     0.279488916872    12.000000000000
         C            3.653745938597    -4.980729247424     0.272403716957    12.000000000000
         C            2.425488533144    -5.681160107537     0.281780647509    12.000000000000
         C            6.091961455079    -4.993243435396     0.278758130630    12.000000000000
         C            4.894972281879    -5.696333892967     0.277521934800    12.000000000000
         H           -7.089896550772    -5.466985314248     0.282924257661     1.007825032230
         H            7.031051046468    -5.542644008342     0.282337910394     1.007825032230
         C           -4.923549484930    -7.078806571687     0.276112893632    12.000000000000
         C           -2.485346250970    -7.087713549939     0.273603001196    12.000000000000
         C           -3.751690054511    -7.763932629646     0.273797680121    12.000000000000
         C           -0.037953119720    -7.099450346479     0.273818726344    12.000000000000
         C           -1.277960263133    -7.772889856676     0.271834033582    12.000000000000
         C            2.409440157995    -7.114007484012     0.274681927155    12.000000000000
         C            1.194745774421    -7.786170837572     0.272529636273    12.000000000000
         C            4.847616889766    -7.131247582589     0.277188741814    12.000000000000
         C            3.668467443144    -7.803773464953     0.274840307450    12.000000000000
         H           -5.869944513148    -7.613816070051     0.277656930497     1.007825032230
         H            5.788245462656    -7.676317661324     0.278315861296     1.007825032230
         H           -3.753531102181    -8.851057041246     0.271961765692     1.007825032230
         H           -1.284308568626    -8.860860864507     0.267406649724     1.007825032230
         H            1.189217411964    -8.874146092599     0.268436999583     1.007825032230
         H            3.658542452092    -8.890846106063     0.273185766028     1.007825032230

  Running in c1 symmetry.

  Rotational constants: A =      0.00067  B =      0.00067  C =      0.00035 [cm^-1]
  Rotational constants: A =     19.98053  B =     19.97715  C =     10.55117 [MHz]
  Nuclear repulsion = 17657.032719722850743

  Charge       = -1
  Multiplicity = 1
  Electrons    = 642
  Nalpha       = 321
  Nbeta        = 321

  ==> Algorithm <==

  SCF Algorithm Type is DF.
  DIIS enabled.
  MOM disabled.
  Fractional occupation disabled.
  Guess Type is SAD.
  Energy threshold   = 1.00e-08
  Density threshold  = 1.00e-08
  Integral threshold = 1.00e-12

  ==> Primary Basis <==

  Basis Set: JUN-CC-PVDZ
    Blend: JUN-CC-PVDZ
    Number of shells: 880
    Number of basis functions: 1938
    Number of Cartesian functions: 2039
    Spherical Harmonics?: true
    Max angular momentum: 2

   => Loading Basis Set <=

    Name: (JUN-CC-PVDZ AUX)
    Role: JKFIT
    Keyword: DF_BASIS_SCF
    atoms 1                                                   entry B          line    90 file /opt/software/pc2/EB-SW/software/PSI4/1.9-foss-2022a/share/psi4/basis/jun-cc-pvdz-jkfit.gbs 
    atoms 2-5                                                 entry F          line   314 file /opt/software/pc2/EB-SW/software/PSI4/1.9-foss-2022a/share/psi4/basis/jun-cc-pvdz-jkfit.gbs 
    atoms 6-23, 30-42, 45-59, 62-78, 81-93, 98-108, 111-119   entry C          line   146 file /opt/software/pc2/EB-SW/software/PSI4/1.9-foss-2022a/share/psi4/basis/jun-cc-pvdz-jkfit.gbs 
    atoms 24-29, 43-44, 60-61, 79-80, 94-97, 109-110, 120-125 entry H          line    70 file /opt/software/pc2/EB-SW/software/PSI4/1.9-foss-2022a/share/psi4/basis/jun-cc-pvdz-jkfit.gbs 

  ==> Integral Setup <==

  ==> DiskDFJK: Density-Fitted J/K Matrices <==

    J tasked:                  Yes
    K tasked:                  Yes
    wK tasked:                  No
    OpenMP threads:             16
    Integrals threads:          16
    Memory [MiB]:            33617
    Algorithm:                Disk
    Integral Cache:           SAVE
    Schwarz Cutoff:          1E-12
    Fitting Condition:       1E-10

   => Auxiliary Basis Set <=

  Basis Set: (JUN-CC-PVDZ AUX)
    Blend: JUN-CC-PVDZ-JKFIT
    Number of shells: 2943
    Number of basis functions: 8531
    Number of Cartesian functions: 9791
    Spherical Harmonics?: true
    Max angular momentum: 3

  Minimum eigenvalue in the overlap matrix is 7.6284803577E-11.
  Reciprocal condition number of the overlap matrix is 3.2249203049E-12.
    Using canonical orthogonalization.
  Overall, 38 of 1938 possible MOs eliminated.


  ==> Pre-Iterations <==

  SCF Guess: Superposition of Atomic Densities via on-the-fly atomic UHF (no occupation information).

   -------------------------
    Irrep   Nso     Nmo    
   -------------------------
     A       1938    1900 
   -------------------------
    Total    1938    1900
   -------------------------

  ==> Iterations <==

                           Total Energy        Delta E     RMS |[F,P]|

   @DF-RHF iter SAD: -4085.11785019126546   -4.08512e+03   0.00000e+00 
   @DF-RHF iter   1: -4071.50526950793073    1.36126e+01   7.91538e-04 DIIS/ADIIS
   @DF-RHF iter   2: -4072.91180151546951   -1.40653e+00   3.11687e-04 DIIS/ADIIS
   @DF-RHF iter   3: -4073.08132348652271   -1.69522e-01   1.05551e-04 DIIS/ADIIS
   @DF-RHF iter   4: -4073.10449617857375   -2.31727e-02   4.16282e-05 DIIS
   @DF-RHF iter   5: -4073.10866692123045   -4.17074e-03   1.23634e-05 DIIS
   @DF-RHF iter   6: -4073.10920590063324   -5.38979e-04   4.81626e-06 DIIS
   @DF-RHF iter   7: -4073.10939661012389   -1.90709e-04   2.60407e-06 DIIS
   @DF-RHF iter   8: -4073.10946219980906   -6.55897e-05   1.26146e-06 DIIS
   @DF-RHF iter   9: -4073.10948414664745   -2.19468e-05   4.43978e-07 DIIS
   @DF-RHF iter  10: -4073.10948553206526   -1.38542e-06   1.78891e-07 DIIS
   @DF-RHF iter  11: -4073.10948575015755   -2.18092e-07   6.33202e-08 DIIS
   @DF-RHF iter  12: -4073.10948578505486   -3.48973e-08   3.36792e-08 DIIS
   @DF-RHF iter  13: -4073.10948579358910   -8.53424e-09   1.07748e-08 DIIS
   @DF-RHF iter  14: -4073.10948579465276   -1.06365e-09   4.03595e-09 DIIS
  Energy and wave function converged.


  ==> Post-Iterations <==

    Orbital Energies [Eh]
    ---------------------

    Doubly Occupied:                                                      

       1A    -26.095750     2A    -26.082305     3A    -26.082221  
       4A    -26.082128     5A    -11.198790     6A    -11.198777  
       7A    -11.198774     8A    -11.198773     9A    -11.198771  
      10A    -11.198759    11A    -11.198756    12A    -11.198741  
      13A    -11.198741    14A    -11.198740    15A    -11.198736  
      16A    -11.198724    17A    -11.198011    18A    -11.197990  
      19A    -11.197989    20A    -11.197960    21A    -11.197942  
      22A    -11.197936    23A    -11.195387    24A    -11.195386  
      25A    -11.195375    26A    -11.195373    27A    -11.195372  
      28A    -11.195372    29A    -11.195038    30A    -11.195026  
      31A    -11.195015    32A    -11.194957    33A    -11.194952  
      34A    -11.194884    35A    -11.194848    36A    -11.194755  
      37A    -11.194754    38A    -11.194647    39A    -11.194642  
      40A    -11.194594    41A    -11.194025    42A    -11.193974  
      43A    -11.193968    44A    -11.193929    45A    -11.193928  
      46A    -11.193917    47A    -11.193915    48A    -11.193914  
      49A    -11.193914    50A    -11.193868    51A    -11.193855  
      52A    -11.193807    53A    -11.193249    54A    -11.193198  
      55A    -11.193192    56A    -11.193085    57A    -11.193077  
      58A    -11.193001    59A    -11.192902    60A    -11.192851  
      61A    -11.192847    62A    -11.192760    63A    -11.192756  
      64A    -11.192741    65A    -11.191013    66A    -11.190992  
      67A    -11.190969    68A    -11.190916    69A    -11.190893  
      70A    -11.190861    71A    -11.190747    72A    -11.190742  
      73A    -11.190730    74A    -11.190678    75A    -11.190673  
      76A    -11.190659    77A    -11.190653    78A    -11.190645  
      79A    -11.190635    80A    -11.190583    81A    -11.190576  
      82A    -11.190564    83A    -11.190026    84A    -11.189977  
      85A    -11.189947    86A    -11.189850    87A    -11.189841  
      88A    -11.189793    89A    -11.187656    90A    -11.187630  
      91A    -11.187589    92A    -11.187568    93A    -11.187503  
      94A    -11.187490    95A    -11.185544    96A    -11.185134  
      97A    -11.184999    98A    -11.184087    99A    -11.183956  
     100A    -11.183501   101A     -7.557818   102A     -1.430823  
     103A     -1.377708   104A     -1.366321   105A     -1.366158  
     106A     -1.182193   107A     -1.170790   108A     -1.170785  
     109A     -1.154119   110A     -1.154108   111A     -1.144614  
     112A     -1.136207   113A     -1.129957   114A     -1.118976  
     115A     -1.118971   116A     -1.109284   117A     -1.109281  
     118A     -1.087660   119A     -1.087655   120A     -1.083420  
     121A     -1.080617   122A     -1.080614   123A     -1.062277  
     124A     -1.048882   125A     -1.048012   126A     -1.047145  
     127A     -1.044016   128A     -1.044002   129A     -1.022347  
     130A     -1.022333   131A     -1.012995   132A     -1.012994  
     133A     -1.000587   134A     -1.000557   135A     -0.996570  
     136A     -0.981407   137A     -0.981397   138A     -0.974825  
     139A     -0.974775   140A     -0.974773   141A     -0.957696  
     142A     -0.951115   143A     -0.951066   144A     -0.942377  
     145A     -0.940487   146A     -0.937814   147A     -0.933489  
     148A     -0.933443   149A     -0.927730   150A     -0.904273  
     151A     -0.904229   152A     -0.891115   153A     -0.891061  
     154A     -0.842619   155A     -0.842578   156A     -0.837267  
     157A     -0.837223   158A     -0.834529   159A     -0.823548  
     160A     -0.823488   161A     -0.822698   162A     -0.821962  
     163A     -0.821903   164A     -0.808164   165A     -0.807296  
     166A     -0.787600   167A     -0.780725   168A     -0.780706  
     169A     -0.777579   170A     -0.776604   171A     -0.769413  
     172A     -0.769401   173A     -0.764783   174A     -0.764780  
     175A     -0.721616   176A     -0.721600   177A     -0.716405  
     178A     -0.716386   179A     -0.715244   180A     -0.715225  
     181A     -0.714667   182A     -0.701849   183A     -0.692948  
     184A     -0.683398   185A     -0.670309   186A     -0.661812  
     187A     -0.661796   188A     -0.659338   189A     -0.659307  
     190A     -0.659288   191A     -0.650239   192A     -0.646741  
     193A     -0.646739   194A     -0.635152   195A     -0.635139  
     196A     -0.624249   197A     -0.621992   198A     -0.621986  
     199A     -0.618065   200A     -0.617469   201A     -0.617458  
     202A     -0.613335   203A     -0.589200   204A     -0.586197  
     205A     -0.586167   206A     -0.585651   207A     -0.582759  
     208A     -0.582744   209A     -0.575759   210A     -0.575227  
     211A     -0.574301   212A     -0.574272   213A     -0.569981  
     214A     -0.569951   215A     -0.563922   216A     -0.555695  
     217A     -0.551603   218A     -0.551580   219A     -0.546431  
     220A     -0.546358   221A     -0.544693   222A     -0.544686  
     223A     -0.542261   224A     -0.533181   225A     -0.532402  
     226A     -0.532366   227A     -0.532356   228A     -0.531306  
     229A     -0.531297   230A     -0.530670   231A     -0.530665  
     232A     -0.530272   233A     -0.525553   234A     -0.525549  
     235A     -0.524258   236A     -0.519245   237A     -0.515636  
     238A     -0.515625   239A     -0.509515   240A     -0.509512  
     241A     -0.509191   242A     -0.503031   243A     -0.503020  
     244A     -0.499641   245A     -0.499616   246A     -0.498601  
     247A     -0.495913   248A     -0.495603   249A     -0.492518  
     250A     -0.492496   251A     -0.488545   252A     -0.486169  
     253A     -0.485907   254A     -0.478972   255A     -0.469639  
     256A     -0.469624   257A     -0.469281   258A     -0.469266  
     259A     -0.463790   260A     -0.463705   261A     -0.463002  
     262A     -0.462852   263A     -0.460011   264A     -0.451438  
     265A     -0.451433   266A     -0.451058   267A     -0.451027  
     268A     -0.445983   269A     -0.445966   270A     -0.433105  
     271A     -0.432601   272A     -0.430590   273A     -0.430574  
     274A     -0.427400   275A     -0.427326   276A     -0.425668  
     277A     -0.425657   278A     -0.417776   279A     -0.413969  
     280A     -0.413967   281A     -0.412859   282A     -0.409377  
     283A     -0.405238   284A     -0.405163   285A     -0.402445  
     286A     -0.400563   287A     -0.400555   288A     -0.399726  
     289A     -0.392736   290A     -0.377402   291A     -0.377336  
     292A     -0.373419   293A     -0.371917   294A     -0.370532  
     295A     -0.370484   296A     -0.369961   297A     -0.341299  
     298A     -0.341274   299A     -0.322665   300A     -0.322657  
     301A     -0.318848   302A     -0.318801   303A     -0.313216  
     304A     -0.288810   305A     -0.288796   306A     -0.284936  
     307A     -0.269884   308A     -0.269880   309A     -0.267141  
     310A     -0.261758   311A     -0.261597   312A     -0.239562  
     313A     -0.235577   314A     -0.233567   315A     -0.233500  
     316A     -0.221217   317A     -0.194937   318A     -0.184534  
     319A     -0.184419   320A     -0.138882   321A     -0.138792  

    Virtual:                                                              

     322A      0.053663   323A      0.053745   324A      0.093394  
     325A      0.093482   326A      0.093498   327A      0.095869  
     328A      0.095878   329A      0.100443   330A      0.101290  
     331A      0.102628   332A      0.102694   333A      0.103747  
     334A      0.109243   335A      0.109247   336A      0.120567  
     337A      0.120574   338A      0.128193   339A      0.129553  
     340A      0.131936   341A      0.135580   342A      0.135906  
     343A      0.136370   344A      0.137445   345A      0.137531  
     346A      0.137837   347A      0.138774   348A      0.138852  
     349A      0.139654   350A      0.141530   351A      0.141536  
     352A      0.146939   353A      0.147824   354A      0.147966  
     355A      0.148017   356A      0.148392   357A      0.148462  
     358A      0.156437   359A      0.160402   360A      0.160434  
     361A      0.160450   362A      0.162424   363A      0.162459  
     364A      0.163213   365A      0.168068   366A      0.169244  
     367A      0.169569   368A      0.169627   369A      0.169977  
     370A      0.170143   371A      0.171314   372A      0.171582  
     373A      0.173025   374A      0.173174   375A      0.175532  
     376A      0.178311   377A      0.178339   378A      0.178765  
     379A      0.178826   380A      0.185777   381A      0.185779  
     382A      0.188690   383A      0.191591   384A      0.194038  
     385A      0.194224   386A      0.197144   387A      0.197166  
     388A      0.200155   389A      0.201404   390A      0.201461  
     391A      0.202283   392A      0.202329   393A      0.210517  
     394A      0.213177   395A      0.213682   396A      0.213880  
     397A      0.214750   398A      0.216084   399A      0.217714  
     400A      0.218844   401A      0.219026   402A      0.219436  
     403A      0.221899   404A      0.221984   405A      0.222816  
     406A      0.223612   407A      0.223628   408A      0.224372  
     409A      0.224534   410A      0.227213   411A      0.227569  
     412A      0.232208   413A      0.233722   414A      0.236991  
     415A      0.236998   416A      0.239483   417A      0.241315  
     418A      0.241489   419A      0.241575   420A      0.241835  
     421A      0.241937   422A      0.247166   423A      0.249604  
     424A      0.249991   425A      0.251376   426A      0.251480  
     427A      0.255544   428A      0.255708   429A      0.256184  
     430A      0.257641   431A      0.258262   432A      0.258544  
     433A      0.259215   434A      0.259292   435A      0.261853  
     436A      0.264651   437A      0.264962   438A      0.268932  
     439A      0.268964   440A      0.270572   441A      0.270710  
     442A      0.270745   443A      0.271560   444A      0.271993  
     445A      0.272064   446A      0.272451   447A      0.272536  
     448A      0.273901   449A      0.273968   450A      0.275151  
     451A      0.275409   452A      0.276639   453A      0.276691  
     454A      0.282694   455A      0.283410   456A      0.286267  
     457A      0.286460   458A      0.286553   459A      0.289566  
     460A      0.290258   461A      0.290290   462A      0.291049  
     463A      0.291537   464A      0.292808   465A      0.292817  
     466A      0.294916   467A      0.296254   468A      0.296802  
     469A      0.297127   470A      0.303404   471A      0.304182  
     472A      0.304373   473A      0.306974   474A      0.308993  
     475A      0.313219   476A      0.314193   477A      0.314229  
     478A      0.315232   479A      0.316768   480A      0.316903  
     481A      0.318324   482A      0.319018   483A      0.319048  
     484A      0.319466   485A      0.319549   486A      0.322982  
     487A      0.323020   488A      0.324676   489A      0.324846  
     490A      0.326370   491A      0.328380   492A      0.328446  
     493A      0.332473   494A      0.334106   495A      0.334259  
     496A      0.336347   497A      0.336401   498A      0.337810  
     499A      0.337854   500A      0.339095   501A      0.341068  
     502A      0.342056   503A      0.342186   504A      0.344747  
     505A      0.344834   506A      0.345560   507A      0.346034  
     508A      0.347705   509A      0.350418   510A      0.351363  
     511A      0.357098   512A      0.357160   513A      0.358438  
     514A      0.358647   515A      0.359383   516A      0.363401  
     517A      0.363721   518A      0.363832   519A      0.364618  
     520A      0.364693   521A      0.366262   522A      0.367354  
     523A      0.367486   524A      0.368603   525A      0.369259  
     526A      0.369926   527A      0.369979   528A      0.372412  
     529A      0.372928   530A      0.373379   531A      0.373543  
     532A      0.374788   533A      0.374851   534A      0.377277  
     535A      0.378088   536A      0.378529   537A      0.381763  
     538A      0.381878   539A      0.383596   540A      0.383739  
     541A      0.384857   542A      0.384910   543A      0.387562  
     544A      0.387629   545A      0.388148   546A      0.389326  
     547A      0.390735   548A      0.393294   549A      0.393678  
     550A      0.393864   551A      0.394504   552A      0.396221  
     553A      0.396305   554A      0.399646   555A      0.400244  
     556A      0.400305   557A      0.401898   558A      0.403907  
     559A      0.403988   560A      0.404472   561A      0.406811  
     562A      0.408408   563A      0.413311   564A      0.413897  
     565A      0.415572   566A      0.416027   567A      0.419336  
     568A      0.420203   569A      0.421006   570A      0.421209  
     571A      0.421260   572A      0.422452   573A      0.423001  
     574A      0.424251   575A      0.426072   576A      0.427968  
     577A      0.428046   578A      0.430209   579A      0.430319  
     580A      0.431495   581A      0.435508   582A      0.435598  
     583A      0.436852   584A      0.436994   585A      0.440377  
     586A      0.440724   587A      0.441115   588A      0.443131  
     589A      0.443479   590A      0.445458   591A      0.445584  
     592A      0.449870   593A      0.449905   594A      0.450866  
     595A      0.452177   596A      0.452248   597A      0.452403  
     598A      0.453782   599A      0.453904   600A      0.455450  
     601A      0.458002   602A      0.458087   603A      0.458977  
     604A      0.459972   605A      0.460047   606A      0.462149  
     607A      0.462310   608A      0.462433   609A      0.463421  
     610A      0.463593   611A      0.463635   612A      0.464055  
     613A      0.467248   614A      0.467641   615A      0.468685  
     616A      0.468698   617A      0.469664   618A      0.470215  
     619A      0.471883   620A      0.472062   621A      0.472172  
     622A      0.473995   623A      0.474151   624A      0.474945  
     625A      0.475100   626A      0.476195   627A      0.476652  
     628A      0.478852   629A      0.478944   630A      0.479393  
     631A      0.480212   632A      0.481708   633A      0.483388  
     634A      0.484364   635A      0.484885   636A      0.487265  
     637A      0.487386   638A      0.487569   639A      0.490233  
     640A      0.490933   641A      0.493556   642A      0.494123  
     643A      0.494145   644A      0.494168   645A      0.495449  
     646A      0.497379   647A      0.497500   648A      0.497874  
     649A      0.497915   650A      0.499722   651A      0.500509  
     652A      0.501245   653A      0.501644   654A      0.502113  
     655A      0.503519   656A      0.503636   657A      0.507597  
     658A      0.508556   659A      0.508965   660A      0.510112  
     661A      0.510994   662A      0.512370   663A      0.515243  
     664A      0.515272   665A      0.515553   666A      0.515610  
     667A      0.515936   668A      0.517302   669A      0.517749  
     670A      0.518512   671A      0.518970   672A      0.519408  
     673A      0.519643   674A      0.521002   675A      0.524621  
     676A      0.525342   677A      0.525830   678A      0.526191  
     679A      0.528425   680A      0.528489   681A      0.532509  
     682A      0.533029   683A      0.535940   684A      0.536761  
     685A      0.536997   686A      0.539426   687A      0.539463  
     688A      0.540240   689A      0.540839   690A      0.541224  
     691A      0.542444   692A      0.542579   693A      0.545823  
     694A      0.546619   695A      0.546976   696A      0.547903  
     697A      0.548045   698A      0.548134   699A      0.552105  
     700A      0.552515   701A      0.552664   702A      0.554938  
     703A      0.555489   704A      0.556011   705A      0.557382  
     706A      0.558017   707A      0.558112   708A      0.560399  
     709A      0.560420   710A      0.562383   711A      0.562906  
     712A      0.563152   713A      0.564640   714A      0.564790  
     715A      0.565079   716A      0.565793   717A      0.566278  
     718A      0.572684   719A      0.572872   720A      0.574906  
     721A      0.575148   722A      0.575677   723A      0.577565  
     724A      0.578209   725A      0.578800   726A      0.581193  
     727A      0.582278   728A      0.582581   729A      0.583157  
     730A      0.586385   731A      0.588212   732A      0.588705  
     733A      0.589458   734A      0.591384   735A      0.591960  
     736A      0.595863   737A      0.597130   738A      0.599497  
     739A      0.599778   740A      0.602597   741A      0.603761  
     742A      0.603915   743A      0.606156   744A      0.607513  
     745A      0.607866   746A      0.611129   747A      0.612719  
     748A      0.619578   749A      0.621988   750A      0.622283  
     751A      0.626379   752A      0.627091   753A      0.627271  
     754A      0.628303   755A      0.628887   756A      0.630651  
     757A      0.630825   758A      0.632374   759A      0.632517  
     760A      0.636405   761A      0.636431   762A      0.637904  
     763A      0.638998   764A      0.640264   765A      0.644326  
     766A      0.646769   767A      0.647060   768A      0.648498  
     769A      0.651181   770A      0.651405   771A      0.653336  
     772A      0.654580   773A      0.654937   774A      0.655263  
     775A      0.656121   776A      0.657438   777A      0.657711  
     778A      0.661568   779A      0.665481   780A      0.666417  
     781A      0.667678   782A      0.669804   783A      0.671939  
     784A      0.672044   785A      0.673315   786A      0.673703  
     787A      0.680067   788A      0.680213   789A      0.684032  
     790A      0.684746   791A      0.684918   792A      0.689222  
     793A      0.689272   794A      0.694232   795A      0.694928  
     796A      0.698755   797A      0.700452   798A      0.701741  
     799A      0.704768   800A      0.706915   801A      0.708125  
     802A      0.709273   803A      0.711772   804A      0.713013  
     805A      0.714373   806A      0.724981   807A      0.726414  
     808A      0.726700   809A      0.727883   810A      0.727957  
     811A      0.731856   812A      0.733949   813A      0.734173  
     814A      0.738951   815A      0.739247   816A      0.742122  
     817A      0.744306   818A      0.752850   819A      0.753367  
     820A      0.753760   821A      0.755280   822A      0.755357  
     823A      0.756221   824A      0.759067   825A      0.759148  
     826A      0.761691   827A      0.764037   828A      0.767769  
     829A      0.769037   830A      0.776017   831A      0.779160  
     832A      0.779525   833A      0.780998   834A      0.785170  
     835A      0.786573   836A      0.793271   837A      0.795791  
     838A      0.797434   839A      0.798211   840A      0.800290  
     841A      0.805339   842A      0.807112   843A      0.808765  
     844A      0.809084   845A      0.813057   846A      0.813223  
     847A      0.820127   848A      0.820514   849A      0.821713  
     850A      0.822140   851A      0.834971   852A      0.839436  
     853A      0.842547   854A      0.847245   855A      0.848054  
     856A      0.854298   857A      0.854392   858A      0.858649  
     859A      0.859443   860A      0.861292   861A      0.862215  
     862A      0.865013   863A      0.865802   864A      0.866824  
     865A      0.869902   866A      0.870767   867A      0.875475  
     868A      0.875790   869A      0.878486   870A      0.878872  
     871A      0.880061   872A      0.880158   873A      0.882446  
     874A      0.882566   875A      0.890778   876A      0.891168  
     877A      0.892464   878A      0.896840   879A      0.899686  
     880A      0.899906   881A      0.906292   882A      0.907104  
     883A      0.908995   884A      0.909118   885A      0.909947  
     886A      0.910662   887A      0.914924   888A      0.919107  
     889A      0.919743   890A      0.920288   891A      0.921477  
     892A      0.923171   893A      0.923330   894A      0.926517  
     895A      0.926856   896A      0.929784   897A      0.931780  
     898A      0.934523   899A      0.934846   900A      0.936020  
     901A      0.936961   902A      0.939379   903A      0.940470  
     904A      0.941242   905A      0.941499   906A      0.942298  
     907A      0.949506   908A      0.949916   909A      0.951031  
     910A      0.951322   911A      0.953059   912A      0.954624  
     913A      0.957691   914A      0.959196   915A      0.962763  
     916A      0.962790   917A      0.967536   918A      0.967813  
     919A      0.971650   920A      0.974660   921A      0.975062  
     922A      0.975524   923A      0.976251   924A      0.977446  
     925A      0.980476   926A      0.980833   927A      0.982273  
     928A      0.983824   929A      0.985674   930A      0.986006  
     931A      0.986362   932A      0.987158   933A      0.987727  
     934A      0.991588   935A      0.996795   936A      0.997716  
     937A      0.997958   938A      0.998098   939A      0.998748  
     940A      1.000043   941A      1.005249   942A      1.005561  
     943A      1.006396   944A      1.007360   945A      1.008647  
     946A      1.009288   947A      1.012746   948A      1.014069  
     949A      1.014306   950A      1.014463   951A      1.018154  
     952A      1.018692   953A      1.019150   954A      1.019540  
     955A      1.019705   956A      1.023271   957A      1.024365  
     958A      1.025376   959A      1.029260   960A      1.029896  
     961A      1.036041   962A      1.036671   963A      1.045855  
     964A      1.047622   965A      1.047821   966A      1.053328  
     967A      1.054086   968A      1.054274   969A      1.057921  
     970A      1.058427   971A      1.061606   972A      1.062908  
     973A      1.063507   974A      1.065132   975A      1.068326  
     976A      1.068599   977A      1.068765   978A      1.069314  
     979A      1.069615   980A      1.073995   981A      1.078143  
     982A      1.078546   983A      1.082174   984A      1.084389  
     985A      1.084627   986A      1.084761   987A      1.086968  
     988A      1.087921   989A      1.090864   990A      1.092571  
     991A      1.101590   992A      1.101632   993A      1.102983  
     994A      1.103661   995A      1.109554   996A      1.110374  
     997A      1.110545   998A      1.111819   999A      1.112303  
    1000A      1.112957  1001A      1.113279  1002A      1.116023  
    1003A      1.116097  1004A      1.116366  1005A      1.116626  
    1006A      1.117631  1007A      1.118260  1008A      1.120517  
    1009A      1.121518  1010A      1.126181  1011A      1.126529  
    1012A      1.126766  1013A      1.128572  1014A      1.130846  
    1015A      1.132993  1016A      1.133405  1017A      1.134829  
    1018A      1.135209  1019A      1.136053  1020A      1.137281  
    1021A      1.137434  1022A      1.138066  1023A      1.138222  
    1024A      1.140811  1025A      1.140940  1026A      1.143536  
    1027A      1.144199  1028A      1.144976  1029A      1.145114  
    1030A      1.145883  1031A      1.146173  1032A      1.146347  
    1033A      1.146905  1034A      1.147041  1035A      1.147912  
    1036A      1.148267  1037A      1.148988  1038A      1.150441  
    1039A      1.150540  1040A      1.151931  1041A      1.153751  
    1042A      1.154569  1043A      1.157511  1044A      1.157622  
    1045A      1.159825  1046A      1.161702  1047A      1.162507  
    1048A      1.164926  1049A      1.165699  1050A      1.166139  
    1051A      1.167651  1052A      1.169963  1053A      1.170521  
    1054A      1.170769  1055A      1.171568  1056A      1.173183  
    1057A      1.178426  1058A      1.179954  1059A      1.181578  
    1060A      1.182283  1061A      1.183704  1062A      1.184286  
    1063A      1.190295  1064A      1.191791  1065A      1.194020  
    1066A      1.194321  1067A      1.198078  1068A      1.198997  
    1069A      1.199140  1070A      1.202481  1071A      1.203584  
    1072A      1.204705  1073A      1.204994  1074A      1.206702  
    1075A      1.207772  1076A      1.208918  1077A      1.211452  
    1078A      1.212643  1079A      1.214074  1080A      1.216955  
    1081A      1.217476  1082A      1.219673  1083A      1.220375  
    1084A      1.222210  1085A      1.223236  1086A      1.223330  
    1087A      1.224603  1088A      1.225412  1089A      1.225561  
    1090A      1.231282  1091A      1.236582  1092A      1.238167  
    1093A      1.238212  1094A      1.239455  1095A      1.240103  
    1096A      1.244712  1097A      1.249550  1098A      1.252076  
    1099A      1.252441  1100A      1.253965  1101A      1.254050  
    1102A      1.254490  1103A      1.258040  1104A      1.259152  
    1105A      1.265854  1106A      1.267794  1107A      1.270590  
    1108A      1.270880  1109A      1.271290  1110A      1.271369  
    1111A      1.272119  1112A      1.273648  1113A      1.276883  
    1114A      1.278503  1115A      1.278740  1116A      1.281564  
    1117A      1.283075  1118A      1.285139  1119A      1.285172  
    1120A      1.286817  1121A      1.289241  1122A      1.292128  
    1123A      1.299998  1124A      1.300369  1125A      1.310135  
    1126A      1.315431  1127A      1.316604  1128A      1.317671  
    1129A      1.318288  1130A      1.318885  1131A      1.323578  
    1132A      1.326363  1133A      1.326403  1134A      1.326794  
    1135A      1.330527  1136A      1.332431  1137A      1.332861  
    1138A      1.336964  1139A      1.337500  1140A      1.345440  
    1141A      1.345524  1142A      1.351327  1143A      1.356420  
    1144A      1.356754  1145A      1.357996  1146A      1.358070  
    1147A      1.359956  1148A      1.361447  1149A      1.366324  
    1150A      1.367895  1151A      1.368602  1152A      1.369389  
    1153A      1.375591  1154A      1.377587  1155A      1.378595  
    1156A      1.379395  1157A      1.379412  1158A      1.380499  
    1159A      1.381380  1160A      1.382979  1161A      1.384901  
    1162A      1.385488  1163A      1.390216  1164A      1.390420  
    1165A      1.393118  1166A      1.393219  1167A      1.395393  
    1168A      1.398189  1169A      1.398785  1170A      1.400488  
    1171A      1.401760  1172A      1.406089  1173A      1.406260  
    1174A      1.417954  1175A      1.419098  1176A      1.422585  
    1177A      1.422614  1178A      1.425354  1179A      1.425680  
    1180A      1.426521  1181A      1.426963  1182A      1.427266  
    1183A      1.428954  1184A      1.429165  1185A      1.429620  
    1186A      1.438731  1187A      1.440407  1188A      1.443939  
    1189A      1.444560  1190A      1.445977  1191A      1.452081  
    1192A      1.452197  1193A      1.452641  1194A      1.456705  
    1195A      1.456805  1196A      1.462355  1197A      1.462518  
    1198A      1.466494  1199A      1.470541  1200A      1.473209  
    1201A      1.473464  1202A      1.473750  1203A      1.474262  
    1204A      1.475007  1205A      1.475186  1206A      1.484737  
    1207A      1.484928  1208A      1.487002  1209A      1.487185  
    1210A      1.489971  1211A      1.492965  1212A      1.493214  
    1213A      1.496563  1214A      1.497162  1215A      1.497294  
    1216A      1.498558  1217A      1.501992  1218A      1.502594  
    1219A      1.507989  1220A      1.508184  1221A      1.508383  
    1222A      1.510123  1223A      1.510555  1224A      1.511566  
    1225A      1.517073  1226A      1.519383  1227A      1.519473  
    1228A      1.524103  1229A      1.524128  1230A      1.525520  
    1231A      1.526645  1232A      1.533249  1233A      1.538811  
    1234A      1.539064  1235A      1.540433  1236A      1.540789  
    1237A      1.547575  1238A      1.549234  1239A      1.549751  
    1240A      1.550113  1241A      1.558684  1242A      1.558911  
    1243A      1.559297  1244A      1.566940  1245A      1.567296  
    1246A      1.568436  1247A      1.574820  1248A      1.582259  
    1249A      1.583224  1250A      1.585980  1251A      1.586967  
    1252A      1.603176  1253A      1.603349  1254A      1.603983  
    1255A      1.613706  1256A      1.622061  1257A      1.622192  
    1258A      1.633917  1259A      1.650564  1260A      1.650671  
    1261A      1.652439  1262A      1.652658  1263A      1.668506  
    1264A      1.670489  1265A      1.673985  1266A      1.674438  
    1267A      1.676006  1268A      1.676468  1269A      1.678201  
    1270A      1.679134  1271A      1.680030  1272A      1.680397  
    1273A      1.683456  1274A      1.684852  1275A      1.685136  
    1276A      1.686123  1277A      1.688524  1278A      1.689198  
    1279A      1.689699  1280A      1.690090  1281A      1.693249  
    1282A      1.694804  1283A      1.695083  1284A      1.695537  
    1285A      1.699501  1286A      1.700701  1287A      1.702508  
    1288A      1.703335  1289A      1.704594  1290A      1.705216  
    1291A      1.705802  1292A      1.706624  1293A      1.707325  
    1294A      1.708415  1295A      1.708968  1296A      1.710010  
    1297A      1.710818  1298A      1.711308  1299A      1.711923  
    1300A      1.721141  1301A      1.721630  1302A      1.722401  
    1303A      1.723713  1304A      1.724116  1305A      1.724503  
    1306A      1.732909  1307A      1.733382  1308A      1.735360  
    1309A      1.736212  1310A      1.736287  1311A      1.736785  
    1312A      1.738420  1313A      1.738587  1314A      1.740985  
    1315A      1.742456  1316A      1.742838  1317A      1.747422  
    1318A      1.747824  1319A      1.753179  1320A      1.756149  
    1321A      1.759138  1322A      1.764062  1323A      1.765385  
    1324A      1.765543  1325A      1.766510  1326A      1.772710  
    1327A      1.775231  1328A      1.775286  1329A      1.779751  
    1330A      1.780362  1331A      1.780436  1332A      1.780990  
    1333A      1.784523  1334A      1.786718  1335A      1.789185  
    1336A      1.789449  1337A      1.792970  1338A      1.793042  
    1339A      1.794619  1340A      1.803088  1341A      1.814869  
    1342A      1.815106  1343A      1.815734  1344A      1.815953  
    1345A      1.831708  1346A      1.832095  1347A      1.832118  
    1348A      1.838689  1349A      1.845544  1350A      1.846742  
    1351A      1.848836  1352A      1.849575  1353A      1.872654  
    1354A      1.872879  1355A      1.876140  1356A      1.884237  
    1357A      1.888039  1358A      1.891885  1359A      1.891929  
    1360A      1.892806  1361A      1.893133  1362A      1.894299  
    1363A      1.898243  1364A      1.898413  1365A      1.899280  
    1366A      1.904119  1367A      1.906446  1368A      1.910240  
    1369A      1.914326  1370A      1.915358  1371A      1.918209  
    1372A      1.918366  1373A      1.920256  1374A      1.924388  
    1375A      1.925102  1376A      1.930311  1377A      1.930427  
    1378A      1.933866  1379A      1.933900  1380A      1.935900  
    1381A      1.936319  1382A      1.937396  1383A      1.937918  
    1384A      1.938111  1385A      1.943561  1386A      1.943981  
    1387A      1.946603  1388A      1.947046  1389A      1.949518  
    1390A      1.950094  1391A      1.956031  1392A      1.959095  
    1393A      1.961332  1394A      1.961571  1395A      1.967007  
    1396A      1.967176  1397A      1.971924  1398A      1.972103  
    1399A      1.974221  1400A      1.980893  1401A      1.983429  
    1402A      1.984216  1403A      1.989565  1404A      1.990138  
    1405A      1.990604  1406A      1.992456  1407A      1.995231  
    1408A      1.995565  1409A      1.999455  1410A      1.999724  
    1411A      2.003137  1412A      2.003316  1413A      2.004021  
    1414A      2.004723  1415A      2.007374  1416A      2.009135  
    1417A      2.009274  1418A      2.013371  1419A      2.014309  
    1420A      2.022239  1421A      2.022876  1422A      2.024002  
    1423A      2.024279  1424A      2.026064  1425A      2.026776  
    1426A      2.028668  1427A      2.031203  1428A      2.032900  
    1429A      2.034854  1430A      2.035560  1431A      2.038090  
    1432A      2.038749  1433A      2.041551  1434A      2.042977  
    1435A      2.044153  1436A      2.050204  1437A      2.053598  
    1438A      2.054072  1439A      2.054765  1440A      2.055223  
    1441A      2.056527  1442A      2.059938  1443A      2.063434  
    1444A      2.064277  1445A      2.067294  1446A      2.072215  
    1447A      2.073096  1448A      2.076998  1449A      2.078969  
    1450A      2.079813  1451A      2.081740  1452A      2.082012  
    1453A      2.082189  1454A      2.084131  1455A      2.086856  
    1456A      2.087788  1457A      2.088552  1458A      2.089815  
    1459A      2.091564  1460A      2.092758  1461A      2.097125  
    1462A      2.097258  1463A      2.099513  1464A      2.101428  
    1465A      2.103473  1466A      2.104021  1467A      2.104178  
    1468A      2.108916  1469A      2.109562  1470A      2.111692  
    1471A      2.116304  1472A      2.119805  1473A      2.121487  
    1474A      2.124384  1475A      2.126011  1476A      2.127539  
    1477A      2.127669  1478A      2.132117  1479A      2.133249  
    1480A      2.134306  1481A      2.136383  1482A      2.137364  
    1483A      2.138916  1484A      2.139744  1485A      2.144916  
    1486A      2.145960  1487A      2.148704  1488A      2.149053  
    1489A      2.149212  1490A      2.149842  1491A      2.150649  
    1492A      2.150937  1493A      2.152522  1494A      2.152616  
    1495A      2.153304  1496A      2.154260  1497A      2.154839  
    1498A      2.156574  1499A      2.157293  1500A      2.158130  
    1501A      2.158503  1502A      2.160204  1503A      2.163769  
    1504A      2.165268  1505A      2.167492  1506A      2.168589  
    1507A      2.169993  1508A      2.171430  1509A      2.175454  
    1510A      2.177514  1511A      2.178250  1512A      2.181637  
    1513A      2.182484  1514A      2.182885  1515A      2.183489  
    1516A      2.185409  1517A      2.186799  1518A      2.187427  
    1519A      2.189528  1520A      2.191533  1521A      2.192147  
    1522A      2.192247  1523A      2.194330  1524A      2.194972  
    1525A      2.197002  1526A      2.198616  1527A      2.201452  
    1528A      2.205645  1529A      2.205965  1530A      2.206606  
    1531A      2.207589  1532A      2.208449  1533A      2.208841  
    1534A      2.209531  1535A      2.210988  1536A      2.212620  
    1537A      2.213022  1538A      2.220327  1539A      2.224573  
    1540A      2.224751  1541A      2.226038  1542A      2.226101  
    1543A      2.226358  1544A      2.226382  1545A      2.226569  
    1546A      2.228826  1547A      2.229697  1548A      2.235315  
    1549A      2.238204  1550A      2.238528  1551A      2.244748  
    1552A      2.246669  1553A      2.247447  1554A      2.247969  
    1555A      2.254668  1556A      2.255980  1557A      2.258923  
    1558A      2.260675  1559A      2.260950  1560A      2.264282  
    1561A      2.264691  1562A      2.266266  1563A      2.267991  
    1564A      2.268059  1565A      2.268641  1566A      2.272667  
    1567A      2.272893  1568A      2.274001  1569A      2.275438  
    1570A      2.278272  1571A      2.278541  1572A      2.279652  
    1573A      2.283589  1574A      2.286191  1575A      2.287303  
    1576A      2.288971  1577A      2.291823  1578A      2.292557  
    1579A      2.292746  1580A      2.294251  1581A      2.295827  
    1582A      2.297157  1583A      2.301122  1584A      2.307710  
    1585A      2.308728  1586A      2.309166  1587A      2.309542  
    1588A      2.310511  1589A      2.313268  1590A      2.316610  
    1591A      2.320437  1592A      2.323900  1593A      2.326603  
    1594A      2.327348  1595A      2.330762  1596A      2.335319  
    1597A      2.336602  1598A      2.345155  1599A      2.345917  
    1600A      2.348754  1601A      2.348863  1602A      2.350045  
    1603A      2.355306  1604A      2.358939  1605A      2.362975  
    1606A      2.364336  1607A      2.369994  1608A      2.370576  
    1609A      2.374083  1610A      2.387269  1611A      2.390197  
    1612A      2.391784  1613A      2.392217  1614A      2.393657  
    1615A      2.394543  1616A      2.394966  1617A      2.401186  
    1618A      2.401453  1619A      2.402526  1620A      2.404413  
    1621A      2.405872  1622A      2.408179  1623A      2.408214  
    1624A      2.410433  1625A      2.410706  1626A      2.411078  
    1627A      2.413989  1628A      2.423740  1629A      2.424506  
    1630A      2.444795  1631A      2.447401  1632A      2.448877  
    1633A      2.450812  1634A      2.452933  1635A      2.463291  
    1636A      2.469397  1637A      2.477629  1638A      2.482350  
    1639A      2.484568  1640A      2.485902  1641A      2.492012  
    1642A      2.493340  1643A      2.502185  1644A      2.508163  
    1645A      2.510011  1646A      2.520622  1647A      2.521344  
    1648A      2.527492  1649A      2.529948  1650A      2.532030  
    1651A      2.533164  1652A      2.536302  1653A      2.536574  
    1654A      2.541853  1655A      2.554817  1656A      2.555166  
    1657A      2.565900  1658A      2.570326  1659A      2.570797  
    1660A      2.574017  1661A      2.581093  1662A      2.597318  
    1663A      2.604647  1664A      2.606608  1665A      2.606894  
    1666A      2.609695  1667A      2.610683  1668A      2.611036  
    1669A      2.612504  1670A      2.614056  1671A      2.615950  
    1672A      2.625888  1673A      2.626107  1674A      2.629721  
    1675A      2.633734  1676A      2.636034  1677A      2.644374  
    1678A      2.645153  1679A      2.645843  1680A      2.649037  
    1681A      2.650093  1682A      2.650228  1683A      2.650603  
    1684A      2.654022  1685A      2.657745  1686A      2.665974  
    1687A      2.666042  1688A      2.666778  1689A      2.678598  
    1690A      2.678929  1691A      2.679014  1692A      2.679856  
    1693A      2.682478  1694A      2.683101  1695A      2.698255  
    1696A      2.706488  1697A      2.707198  1698A      2.710853  
    1699A      2.711087  1700A      2.713290  1701A      2.715559  
    1702A      2.716019  1703A      2.717071  1704A      2.719595  
    1705A      2.719870  1706A      2.730468  1707A      2.733293  
    1708A      2.733584  1709A      2.736017  1710A      2.741660  
    1711A      2.742830  1712A      2.742967  1713A      2.743330  
    1714A      2.752568  1715A      2.753543  1716A      2.755667  
    1717A      2.757211  1718A      2.757376  1719A      2.758330  
    1720A      2.759895  1721A      2.762464  1722A      2.764102  
    1723A      2.774272  1724A      2.788187  1725A      2.793768  
    1726A      2.794384  1727A      2.794738  1728A      2.797185  
    1729A      2.797282  1730A      2.819801  1731A      2.830523  
    1732A      2.831018  1733A      2.845832  1734A      2.847971  
    1735A      2.848460  1736A      2.856135  1737A      2.867651  
    1738A      2.867726  1739A      2.869767  1740A      2.869845  
    1741A      2.878617  1742A      2.880742  1743A      2.883932  
    1744A      2.884128  1745A      2.884728  1746A      2.885069  
    1747A      2.888929  1748A      2.900034  1749A      2.900402  
    1750A      2.907132  1751A      2.909174  1752A      2.909231  
    1753A      2.912315  1754A      2.914064  1755A      2.932740  
    1756A      2.933006  1757A      2.935749  1758A      2.936953  
    1759A      2.941123  1760A      2.967401  1761A      2.967742  
    1762A      2.969701  1763A      2.980513  1764A      2.980677  
    1765A      2.987519  1766A      2.989599  1767A      2.996275  
    1768A      2.999517  1769A      2.999553  1770A      3.028511  
    1771A      3.028667  1772A      3.029102  1773A      3.039210  
    1774A      3.039944  1775A      3.040385  1776A      3.059596  
    1777A      3.060058  1778A      3.095757  1779A      3.096432  
    1780A      3.099608  1781A      3.102774  1782A      3.110778  
    1783A      3.114463  1784A      3.114996  1785A      3.124293  
    1786A      3.124398  1787A      3.126794  1788A      3.138267  
    1789A      3.170447  1790A      3.176964  1791A      3.177361  
    1792A      3.187771  1793A      3.194225  1794A      3.194337  
    1795A      3.201901  1796A      3.204887  1797A      3.205714  
    1798A      3.206058  1799A      3.206905  1800A      3.213952  
    1801A      3.214399  1802A      3.217522  1803A      3.217669  
    1804A      3.224035  1805A      3.233326  1806A      3.235372  
    1807A      3.240616  1808A      3.241359  1809A      3.243494  
    1810A      3.256136  1811A      3.256835  1812A      3.282421  
    1813A      3.317383  1814A      3.321614  1815A      3.327461  
    1816A      3.328132  1817A      3.329592  1818A      3.330844  
    1819A      3.337308  1820A      3.338999  1821A      3.340161  
    1822A      3.340700  1823A      3.364987  1824A      3.367156  
    1825A      3.368414  1826A      3.376663  1827A      3.385778  
    1828A      3.430169  1829A      3.430985  1830A      3.474750  
    1831A      3.494954  1832A      3.505309  1833A      3.513323  
    1834A      3.525521  1835A      3.529197  1836A      3.533249  
    1837A      3.533824  1838A      3.537666  1839A      3.540240  
    1840A      3.542939  1841A      3.556446  1842A      3.558741  
    1843A      3.577062  1844A      3.579594  1845A      3.603827  
    1846A      3.623765  1847A      3.645029  1848A      3.646877  
    1849A      3.654968  1850A      3.658080  1851A      3.715641  
    1852A      3.717805  1853A      3.732438  1854A      3.734558  
    1855A      3.773702  1856A      3.821404  1857A      3.823494  
    1858A      3.827862  1859A      3.841428  1860A      3.842940  
    1861A      3.859792  1862A      3.907273  1863A      3.916163  
    1864A      3.938037  1865A      3.941495  1866A      3.983728  
    1867A      3.986019  1868A      4.014055  1869A      4.015217  
    1870A      4.026476  1871A      4.030559  1872A      4.039081  
    1873A      4.043727  1874A      4.044864  1875A      4.094356  
    1876A      4.097334  1877A      4.145268  1878A      4.157475  
    1879A      4.159202  1880A      4.160593  1881A      4.187127  
    1882A      4.190720  1883A      4.191854  1884A      4.200760  
    1885A      4.201613  1886A      4.228180  1887A      4.229554  
    1888A      4.268772  1889A      4.334710  1890A      4.421072  
    1891A      4.437116  1892A      4.439030  1893A      4.471737  
    1894A      4.508775  1895A      4.634404  1896A      4.649320  
    1897A      4.650346  1898A      4.738003  1899A      4.772656  
    1900A      4.773057  

    Final Occupation by Irrep:
              A 
    DOCC [   321 ]
    NA   [   321 ]
    NB   [   321 ]

  @DF-RHF Final Energy: -4073.10948579465276

   => Energetics <=

    Nuclear Repulsion Energy =          17657.0327197228507430
    One-Electron Energy =              -40802.3575074557302287
    Two-Electron Energy =               19072.2153019382276398
    Total Energy =                      -4073.1094857946518459

Computation Completed


Properties will be evaluated at   0.000000,   0.000000,   0.000000 [a0]

Properties computed using the SCF density matrix


 Multipole Moments:

 ------------------------------------------------------------------------------------
     Multipole            Electronic (a.u.)      Nuclear  (a.u.)        Total (a.u.)
 ------------------------------------------------------------------------------------

 L = 1.  Multiply by 2.5417464519 to convert [e a0] to [Debye]
 Dipole X            :          0.0004623           -0.0000548            0.0004075
 Dipole Y            :          0.0008572           -0.0002464            0.0006109
 Dipole Z            :        -18.2516670           23.8041597            5.5524927
 Magnitude           :                                                    5.5524927

 ------------------------------------------------------------------------------------

*** tstop() called on n2cn1179 at Thu Jan 25 09:41:40 2024
Module time:
	user time   =   23881.64 seconds =     398.03 minutes
	system time =    1165.12 seconds =      19.42 minutes
	total time  =      18815 seconds =     313.58 minutes
Total time:
	user time   =   23881.64 seconds =     398.03 minutes
	system time =    1165.12 seconds =      19.42 minutes
	total time  =      18815 seconds =     313.58 minutes

  //>>>>>>>>>>>>>>>>>>>>>>>>>>>>>>>>>>>//
  //            Monomer A HF           //
  //<<<<<<<<<<<<<<<<<<<<<<<<<<<<<<<<<<<//

   => Libint2 <=

    Primary   basis highest AM E, G, H:  5, 4, 3
    Auxiliary basis highest AM E, G, H:  6, 5, 4
    Onebody   basis highest AM E, G, H:  6, 5, 4
    Solid Harmonics ordering:            gaussian

*** tstart() called on n2cn1179
*** at Thu Jan 25 09:41:40 2024

   => Loading Basis Set <=

    Name: JUN-CC-PVDZ
    Role: ORBITAL
    Keyword: BASIS
    atoms 1                                                   entry B          line   130 file /opt/software/pc2/EB-SW/software/PSI4/1.9-foss-2022a/share/psi4/basis/jun-cc-pvdz.gbs 
    atoms 2-5                                                 entry F          line   266 file /opt/software/pc2/EB-SW/software/PSI4/1.9-foss-2022a/share/psi4/basis/jun-cc-pvdz.gbs 
    atoms 6-23, 30-42, 45-59, 62-78, 81-93, 98-108, 111-119   entry C          line   164 file /opt/software/pc2/EB-SW/software/PSI4/1.9-foss-2022a/share/psi4/basis/jun-cc-pvdz.gbs 
    atoms 24-29, 43-44, 60-61, 79-80, 94-97, 109-110, 120-125 entry H          line    36 file /opt/software/pc2/EB-SW/software/PSI4/1.9-foss-2022a/share/psi4/basis/jun-cc-pvdz.gbs 


         ---------------------------------------------------------
                                   SCF
               by Justin Turney, Rob Parrish, Andy Simmonett
                          and Daniel G. A. Smith
                              RHF Reference
                       16 Threads,  44822 MiB Core
         ---------------------------------------------------------

  ==> Geometry <==

    Molecular point group: c1
    Full point group: C1

    Geometry (in Angstrom), charge = -1, multiplicity = 1:

       Center              X                  Y                   Z               Mass       
    ------------   -----------------  -----------------  -----------------  -----------------
         B           -0.000201921932     0.000288800891    -3.724467053160    11.009305360000
         F           -0.000004162732     0.000014527991    -2.311682053160    18.998403162730
         F            1.147855837268     0.675795727991    -4.195608053160    18.998403162730
         F            0.011913897268    -1.331996472009    -4.195406053160    18.998403162730
         F           -1.159670162732     0.656088027991    -4.195327053160    18.998403162730
      Gh(C)          -3.668445426752     7.803766698073     0.277398988175    12.000000000000
      Gh(C)          -4.847602882078     7.131256359331     0.275032413243    12.000000000000
      Gh(C)          -4.894963461907     5.696344931522     0.274459502145    12.000000000000
      Gh(C)          -3.653744841505     4.980744868950     0.282119943874    12.000000000000
      Gh(C)          -2.409429284226     7.113995564665     0.277593330436    12.000000000000
      Gh(C)          -2.425481506836     5.681136478894     0.270588441566    12.000000000000
      Gh(C)          -1.194748179167     7.786158722300     0.279065510978    12.000000000000
      Gh(C)           0.037954866205     7.099436173748     0.276894806673    12.000000000000
      Gh(C)           0.030328424687     5.669504087695     0.271411421757    12.000000000000
      Gh(C)          -1.200988670637     4.969284875906     0.280381155690    12.000000000000
      Gh(C)           1.277953663083     7.772873971185     0.278270655233    12.000000000000
      Gh(C)           2.485353921992     7.087711413228     0.275996167328    12.000000000000
      Gh(C)           2.486124522185     5.654785338231     0.269058418341    12.000000000000
      Gh(C)           1.254078756912     4.956092641655     0.280686359929    12.000000000000
      Gh(C)           3.751710428674     7.763926678971     0.276123018709    12.000000000000
      Gh(C)           4.923561893453     7.078795304981     0.274066538001    12.000000000000
      Gh(C)           4.955603108594     5.643461991360     0.273906125194    12.000000000000
      Gh(C)           3.706797371473     4.941224736324     0.278997685364    12.000000000000
      Gh(H)          -3.658525300490     8.890841947126     0.279083976426     1.007825032230
      Gh(H)          -1.189217492488     8.874135615351     0.283037387419     1.007825032230
      Gh(H)           1.284290076155     8.860847963479     0.282429479374     1.007825032230
      Gh(H)           3.753537924068     8.851049806963     0.277645543025     1.007825032230
      Gh(H)           5.869954540475     7.613809362646     0.273141170959     1.007825032230
      Gh(H)          -5.788235870234     7.676316740925     0.273472565887     1.007825032230
[...]
    1510A      2.129313  1511A      2.130084  1512A      2.132319  
    1513A      2.138920  1514A      2.138955  1515A      2.139764  
    1516A      2.142907  1517A      2.143078  1518A      2.143611  
    1519A      2.144587  1520A      2.145143  1521A      2.147260  
    1522A      2.157604  1523A      2.158042  1524A      2.158218  
    1525A      2.159952  1526A      2.160303  1527A      2.161140  
    1528A      2.161286  1529A      2.164661  1530A      2.164743  
    1531A      2.171357  1532A      2.172537  1533A      2.172937  
    1534A      2.174136  1535A      2.181408  1536A      2.183423  
    1537A      2.183557  1538A      2.192107  1539A      2.192496  
    1540A      2.195073  1541A      2.195564  1542A      2.196131  
    1543A      2.196616  1544A      2.198063  1545A      2.199678  
    1546A      2.201143  1547A      2.201237  1548A      2.204336  
    1549A      2.205385  1550A      2.208940  1551A      2.209844  
    1552A      2.210392  1553A      2.211388  1554A      2.214798  
    1555A      2.216099  1556A      2.216416  1557A      2.220240  
    1558A      2.222948  1559A      2.225723  1560A      2.226218  
    1561A      2.228253  1562A      2.228780  1563A      2.231058  
    1564A      2.232061  1565A      2.232915  1566A      2.237466  
    1567A      2.239695  1568A      2.239768  1569A      2.240498  
    1570A      2.247385  1571A      2.247962  1572A      2.248427  
    1573A      2.254437  1574A      2.257694  1575A      2.262247  
    1576A      2.263805  1577A      2.266051  1578A      2.269992  
    1579A      2.275357  1580A      2.275714  1581A      2.278449  
    1582A      2.283115  1583A      2.284468  1584A      2.293232  
    1585A      2.294597  1586A      2.296896  1587A      2.297615  
    1588A      2.304399  1589A      2.304632  1590A      2.311626  
    1591A      2.325091  1592A      2.325593  1593A      2.325637  
    1594A      2.326369  1595A      2.329806  1596A      2.330336  
    1597A      2.330997  1598A      2.333201  1599A      2.334963  
    1600A      2.335729  1601A      2.338232  1602A      2.340600  
    1603A      2.342080  1604A      2.342337  1605A      2.342506  
    1606A      2.345076  1607A      2.346204  1608A      2.346550  
    1609A      2.350732  1610A      2.351008  1611A      2.370218  
    1612A      2.373946  1613A      2.375124  1614A      2.384405  
    1615A      2.388101  1616A      2.392458  1617A      2.397875  
    1618A      2.411217  1619A      2.412893  1620A      2.418709  
    1621A      2.420106  1622A      2.425369  1623A      2.428057  
    1624A      2.433101  1625A      2.442418  1626A      2.444444  
    1627A      2.453199  1628A      2.457006  1629A      2.465241  
    1630A      2.465478  1631A      2.468573  1632A      2.468679  
    1633A      2.472026  1634A      2.472240  1635A      2.491398  
    1636A      2.491809  1637A      2.502253  1638A      2.504967  
    1639A      2.507114  1640A      2.507798  1641A      2.511711  
    1642A      2.516349  1643A      2.539753  1644A      2.540133  
    1645A      2.540251  1646A      2.544483  1647A      2.545628  
    1648A      2.546739  1649A      2.547914  1650A      2.548932  
    1651A      2.549418  1652A      2.554979  1653A      2.556751  
    1654A      2.556841  1655A      2.564303  1656A      2.571623  
    1657A      2.571677  1658A      2.582438  1659A      2.584148  
    1660A      2.584704  1661A      2.585815  1662A      2.587133  
    1663A      2.588958  1664A      2.589179  1665A      2.593261  
    1666A      2.593606  1667A      2.601899  1668A      2.602064  
    1669A      2.614131  1670A      2.614658  1671A      2.614747  
    1672A      2.615032  1673A      2.617739  1674A      2.618324  
    1675A      2.632662  1676A      2.641520  1677A      2.642391  
    1678A      2.645125  1679A      2.645714  1680A      2.648863  
    1681A      2.649524  1682A      2.649998  1683A      2.653357  
    1684A      2.656328  1685A      2.656623  1686A      2.666187  
    1687A      2.667893  1688A      2.668797  1689A      2.670759  
    1690A      2.671000  1691A      2.673895  1692A      2.680410  
    1693A      2.680662  1694A      2.686333  1695A      2.687546  
    1696A      2.689950  1697A      2.691497  1698A      2.691631  
    1699A      2.693123  1700A      2.694707  1701A      2.696994  
    1702A      2.698956  1703A      2.708239  1704A      2.725012  
    1705A      2.730832  1706A      2.731516  1707A      2.731676  
    1708A      2.732021  1709A      2.732350  1710A      2.755231  
    1711A      2.760730  1712A      2.761181  1713A      2.776332  
    1714A      2.780613  1715A      2.780802  1716A      2.781172  
    1717A      2.799938  1718A      2.800142  1719A      2.802311  
    1720A      2.802361  1721A      2.805404  1722A      2.811723  
    1723A      2.813048  1724A      2.815206  1725A      2.816211  
    1726A      2.817098  1727A      2.818039  1728A      2.829756  
    1729A      2.830231  1730A      2.840048  1731A      2.841816  
    1732A      2.842555  1733A      2.842638  1734A      2.846550  
    1735A      2.852009  1736A      2.852664  1737A      2.859581  
    1738A      2.865449  1739A      2.865589  1740A      2.870649  
    1741A      2.871745  1742A      2.875221  1743A      2.896064  
    1744A      2.896933  1745A      2.916696  1746A      2.918158  
    1747A      2.918259  1748A      2.927535  1749A      2.930203  
    1750A      2.935505  1751A      2.935584  1752A      2.963808  
    1753A      2.965922  1754A      2.966481  1755A      2.976366  
    1756A      2.991949  1757A      2.993016  1758A      3.001504  
    1759A      3.030136  1760A      3.030644  1761A      3.036500  
    1762A      3.039603  1763A      3.047545  1764A      3.047887  
    1765A      3.048437  1766A      3.057791  1767A      3.057891  
    1768A      3.067858  1769A      3.073005  1770A      3.110824  
    1771A      3.113750  1772A      3.114352  1773A      3.123460  
    1774A      3.129131  1775A      3.129402  1776A      3.136561  
    1777A      3.139803  1778A      3.142450  1779A      3.143424  
    1780A      3.150403  1781A      3.150812  1782A      3.151428  
    1783A      3.151702  1784A      3.154178  1785A      3.162165  
    1786A      3.168317  1787A      3.173260  1788A      3.178114  
    1789A      3.178221  1790A      3.193411  1791A      3.194201  
    1792A      3.220617  1793A      3.256534  1794A      3.259938  
    1795A      3.262819  1796A      3.263307  1797A      3.263371  
    1798A      3.265817  1799A      3.272075  1800A      3.274396  
    1801A      3.276021  1802A      3.276551  1803A      3.299387  
    1804A      3.301343  1805A      3.302486  1806A      3.311344  
    1807A      3.362270  1808A      3.363156  1809A      3.392438  
    1810A      3.417964  1811A      3.434879  1812A      3.436233  
    1813A      3.452218  1814A      3.455871  1815A      3.459810  
    1816A      3.465296  1817A      3.467170  1818A      3.471776  
    1819A      3.474322  1820A      3.486598  1821A      3.489098  
    1822A      3.494734  1823A      3.509191  1824A      3.535013  
    1825A      3.553017  1826A      3.577425  1827A      3.579155  
    1828A      3.586536  1829A      3.590440  1830A      3.646261  
    1831A      3.648770  1832A      3.665994  1833A      3.668275  
    1834A      3.705862  1835A      3.755823  1836A      3.758419  
    1837A      3.759494  1838A      3.772168  1839A      3.778660  
    1840A      3.785642  1841A      3.842516  1842A      3.848422  
    1843A      3.872627  1844A      3.876043  1845A      3.918815  
    1846A      3.920069  1847A      3.947994  1848A      3.949723  
    1849A      3.956141  1850A      3.959843  1851A      3.967008  
    1852A      3.973030  1853A      3.974628  1854A      4.024805  
    1855A      4.027573  1856A      4.074949  1857A      4.247290  
    1858A      4.278005  1859A      4.286552  1860A      4.376986  
    1861A      4.400291  1862A      4.412201  1863A      4.561556  
    1864A      5.753620  1865A      5.760605  1866A      5.761221  
    1867A      5.764334  1868A      5.767019  1869A      5.767350  
    1870A      5.774884  1871A      5.776701  1872A      5.801683  
    1873A      5.802414  1874A      5.829050  1875A      6.025619  
    1876A      6.029063  1877A      6.029941  1878A      6.204322  
    1879A      6.334090  1880A      6.334498  1881A      6.386717  
    1882A      6.387521  1883A      6.387831  1884A      7.275281  
    1885A      7.276102  1886A      7.281698  1887A      7.316300  
    1888A      7.350110  1889A      7.350399  1890A      7.488564  
    1891A      7.493497  1892A      7.591227  1893A      7.592321  
    1894A      7.671303  1895A      7.910612  1896A     12.691705  
    1897A     42.929791  1898A     42.929889  1899A     42.950861  
    1900A     42.978193  

    Final Occupation by Irrep:
              A 
    DOCC [   300 ]
    NA   [   300 ]
    NB   [   300 ]

  @DF-RHF Final Energy: -3650.33930495105642

   => Energetics <=

    Nuclear Repulsion Energy =          15611.4211649754324753
    One-Electron Energy =              -36072.1261825676483568
    Two-Electron Energy =               16810.3657126411599165
    Total Energy =                      -3650.3393049510559649

Computation Completed


Properties will be evaluated at   0.000000,   0.000000,   0.000000 [a0]

Properties computed using the SCF density matrix


 Multipole Moments:

 ------------------------------------------------------------------------------------
     Multipole            Electronic (a.u.)      Nuclear  (a.u.)        Total (a.u.)
 ------------------------------------------------------------------------------------

 L = 1.  Multiply by 2.5417464519 to convert [e a0] to [Debye]
 Dipole X            :         -0.0002172            0.0002304            0.0000132
 Dipole Y            :          0.0012746           -0.0013052           -0.0000306
 Dipole Z            :       -312.3711074          312.3739263            0.0028190
 Magnitude           :                                                    0.0028192

 ------------------------------------------------------------------------------------

*** tstop() called on n2cn1179 at Thu Jan 25 12:22:33 2024
Module time:
	user time   =   16883.12 seconds =     281.39 minutes
	system time =     779.76 seconds =      13.00 minutes
	total time  =       5815 seconds =      96.92 minutes
Total time:
	user time   =   44658.14 seconds =     744.30 minutes
	system time =    2225.30 seconds =      37.09 minutes
	total time  =      28468 seconds =     474.47 minutes
  Constructing Basis Sets for SAPT...

   => Loading Basis Set <=

    Name: (JUN-CC-PVDZ AUX)
    Role: RIFIT
    Keyword: DF_BASIS_SAPT
    atoms 1                                                   entry B          line    56 file /opt/software/pc2/EB-SW/software/PSI4/1.9-foss-2022a/share/psi4/basis/jun-cc-pvdz-ri.gbs 
    atoms 2-5                                                 entry F          line   232 file /opt/software/pc2/EB-SW/software/PSI4/1.9-foss-2022a/share/psi4/basis/jun-cc-pvdz-ri.gbs 
    atoms 6-23, 30-42, 45-59, 62-78, 81-93, 98-108, 111-119   entry C          line   100 file /opt/software/pc2/EB-SW/software/PSI4/1.9-foss-2022a/share/psi4/basis/jun-cc-pvdz-ri.gbs 
    atoms 24-29, 43-44, 60-61, 79-80, 94-97, 109-110, 120-125 entry H          line    30 file /opt/software/pc2/EB-SW/software/PSI4/1.9-foss-2022a/share/psi4/basis/jun-cc-pvdz-ri.gbs 

   => Loading Basis Set <=

    Name: (JUN-CC-PVDZ AUX)
    Role: JKFIT
    Keyword: DF_BASIS_ELST
    atoms 1                                                   entry B          line    90 file /opt/software/pc2/EB-SW/software/PSI4/1.9-foss-2022a/share/psi4/basis/jun-cc-pvdz-jkfit.gbs 
    atoms 2-5                                                 entry F          line   314 file /opt/software/pc2/EB-SW/software/PSI4/1.9-foss-2022a/share/psi4/basis/jun-cc-pvdz-jkfit.gbs 
    atoms 6-23, 30-42, 45-59, 62-78, 81-93, 98-108, 111-119   entry C          line   146 file /opt/software/pc2/EB-SW/software/PSI4/1.9-foss-2022a/share/psi4/basis/jun-cc-pvdz-jkfit.gbs 
    atoms 24-29, 43-44, 60-61, 79-80, 94-97, 109-110, 120-125 entry H          line    70 file /opt/software/pc2/EB-SW/software/PSI4/1.9-foss-2022a/share/psi4/basis/jun-cc-pvdz-jkfit.gbs 


  //>>>>>>>>>>>>>>>>>>>>>>>>>>>>>>>>>>>//
  //               SSAPT0              //
  //<<<<<<<<<<<<<<<<<<<<<<<<<<<<<<<<<<<//


*** tstart() called on n2cn1179
*** at Thu Jan 25 12:22:34 2024

        SAPT0  
    Ed Hohenstein
     6 June 2009

      Orbital Information
  --------------------------
    NSO        =      1938
    NMO        =      1900
    NRI        =      6901
    NRI (Elst) =      8531
    NOCC A     =        21
    NOCC B     =       300
    FOCC A     =         5
    FOCC B     =        96
    NVIR A     =      1879
    NVIR B     =      1600

    Elst10,r            =     0.006622812979 [Eh]
    Exch10              =     0.013133534991 [Eh]
    Exch10 (S^2)        =     0.013118395850 [Eh]

    Iter     Energy [mEh]          dE [mEh]         Residual      Time [s]
       1      -1.48693118       1.486931180       6.453314385           255
       2      -1.84294259       0.356011413       2.569337608           534
       3      -1.87867964       0.035737045       0.393232220           777
       4      -1.87402993      -0.004649704       0.109437261          1028
       5      -1.87373223      -0.000297709       0.026053382          1249
       6      -1.87387665       0.000144427       0.007966712          1483
       7      -1.87391531       0.000038659       0.001542489          1699
       8      -1.87390510      -0.000010208       0.000308464          1946
       9      -1.87390573       0.000000623       0.000054385          2216
      10      -1.87390586       0.000000138       0.000007965          2424
      11      -1.87390583      -0.000000035       0.000001482          2678
      12      -1.87390583       0.000000005       0.000000401          2899

    CHF Iterations converged


    Iter     Energy [mEh]          dE [mEh]         Residual      Time [s]
       1     -26.70896319      26.708963186      87.858646414           249
       2     -17.53536818      -9.173595008      10.559908892           490
       3     -17.46690382      -0.068464363       3.404229179           757
       4     -17.74924219       0.282338375       1.180331119          1006
       5     -17.79242313       0.043180941       0.423131212          1283
       6     -17.77800215      -0.014420981       0.249368290          1529
       7     -17.77090274      -0.007099413       0.102752154          1764
       8     -17.77257434       0.001671598       0.041086492          2019
       9     -17.77388187       0.001307535       0.012776442          2315
      10     -17.77376502      -0.000116849       0.008180810          2540
      11     -17.77355982      -0.000205206       0.005719056          2900
      12     -17.77358945       0.000029638       0.004454605          3191
      13     -17.77366100       0.000071545       0.002059307          3698
      14     -17.77366120       0.000000198       0.000841398          4182
      15     -17.77365070      -0.000010501       0.000527729          4689
      16     -17.77364327      -0.000007428       0.000294550          5159
      17     -17.77364894       0.000005674       0.000147746          5586
      18     -17.77365029       0.000001344       0.000062054          6047
      19     -17.77364923      -0.000001053       0.000036197          6515
      20     -17.77364882      -0.000000409       0.000017031          6914
      21     -17.77364905       0.000000223       0.000006817          7283
      22     -17.77364913       0.000000084       0.000002884          7607
      23     -17.77364911      -0.000000019       0.000001185          8048
      24     -17.77364910      -0.000000017       0.000000506          8335

    CHF Iterations converged

    Ind20,r (A<-B)      =    -0.001873905834 [Eh]
    Ind20,r (B<-A)      =    -0.017773649096 [Eh]
    Ind20,r             =    -0.019647554930 [Eh]
    Exch-Ind20,r (A<-B) =     0.001729555628 [Eh]
    Exch-Ind20,r (B<-A) =     0.001930593503 [Eh]
    Exch-Ind20,r        =     0.003660149130 [Eh]
    Disp20              =    -0.010630993638 [Eh]
    Disp20 (SS)         =    -0.005315496819 [Eh]
    Disp20 (OS)         =    -0.005315496819 [Eh]
    Exch-Disp20         =     0.001532386928 [Eh]
    Exch-Disp20 (SS)    =     0.000871304443 [Eh]
    Exch-Disp20 (OS)    =     0.000661082485 [Eh]

    SAPT Results 
  --------------------------------------------------------------------------------------------------------
    Electrostatics                  6.62281298 [mEh]       4.15587789 [kcal/mol]      17.38819308 [kJ/mol]
      Elst10,r                      6.62281298 [mEh]       4.15587789 [kcal/mol]      17.38819308 [kJ/mol]

    Exchange                       13.13353499 [mEh]       8.24141763 [kcal/mol]      34.48209137 [kJ/mol]
      Exch10                       13.13353499 [mEh]       8.24141763 [kcal/mol]      34.48209137 [kJ/mol]
      Exch10(S^2)                  13.11839585 [mEh]       8.23191768 [kcal/mol]      34.44234356 [kJ/mol]

    Induction                     -16.89677595 [mEh]     -10.60288698 [kcal/mol]     -44.36247914 [kJ/mol]
      Ind20,r                     -19.64755493 [mEh]     -12.32902686 [kcal/mol]     -51.58464836 [kJ/mol]
      Exch-Ind20,r                  3.66014913 [mEh]       2.29677825 [kcal/mol]       9.60972022 [kJ/mol]
      delta HF,r (2)               -0.90937015 [mEh]      -0.57063838 [kcal/mol]      -2.38755099 [kJ/mol]

    Dispersion                     -9.09860671 [mEh]      -5.70946191 [kcal/mol]     -23.88838863 [kJ/mol]
      Disp20                      -10.63099364 [mEh]      -6.67104922 [kcal/mol]     -27.91166995 [kJ/mol]
      Exch-Disp20                   1.53238693 [mEh]       0.96158731 [kcal/mol]       4.02328133 [kJ/mol]
      Disp20 (SS)                  -5.31549682 [mEh]      -3.33552461 [kcal/mol]     -13.95583498 [kJ/mol]
      Disp20 (OS)                  -5.31549682 [mEh]      -3.33552461 [kcal/mol]     -13.95583498 [kJ/mol]
      Exch-Disp20 (SS)              0.87130444 [mEh]       0.54675179 [kcal/mol]       2.28760950 [kJ/mol]
      Exch-Disp20 (OS)              0.66108249 [mEh]       0.41483552 [kcal/mol]       1.73567183 [kJ/mol]

  Total HF                          2.85957202 [mEh]       1.79440853 [kcal/mol]       7.50780531 [kJ/mol]
  Total SAPT0                      -6.23903469 [mEh]      -3.91505337 [kcal/mol]     -16.38058332 [kJ/mol]

  Special recipe for scaled SAPT0 (see Manual):
    Electrostatics sSAPT0           6.62281298 [mEh]       4.15587789 [kcal/mol]      17.38819308 [kJ/mol]
    Exchange sSAPT0                13.13353499 [mEh]       8.24141763 [kcal/mol]      34.48209137 [kJ/mol]
    Induction sSAPT0              -16.88408945 [mEh]     -10.59492609 [kcal/mol]     -44.32917075 [kJ/mol]
    Dispersion sSAPT0              -9.09329528 [mEh]      -5.70612894 [kcal/mol]     -23.87444347 [kJ/mol]
  Total sSAPT0                     -6.22103677 [mEh]      -3.90375951 [kcal/mol]     -16.33332978 [kJ/mol]
  --------------------------------------------------------------------------------------------------------

*** tstop() called on n2cn1179 at Thu Jan 25 23:18:14 2024
Module time:
	user time   =   62649.58 seconds =    1044.16 minutes
	system time =    3135.42 seconds =      52.26 minutes
	total time  =      39340 seconds =     655.67 minutes
Total time:
	user time   =  107309.00 seconds =    1788.48 minutes
	system time =    5360.72 seconds =      89.35 minutes
	total time  =      67809 seconds =    1130.15 minutes

    Psi4 stopped on: Thursday, 25 January 2024 11:18PM
    Psi4 wall time for execution: 18:50:10.26

*** Psi4 exiting successfully. Buy a developer a beer!
