
    -----------------------------------------------------------------------
          Psi4: An Open-Source Ab Initio Electronic Structure Package
                               Psi4 1.9 release

                         Git: Rev {} zzzzzzz 


    D. G. A. Smith, L. A. Burns, A. C. Simmonett, R. M. Parrish,
    M. C. Schieber, R. Galvelis, P. Kraus, H. Kruse, R. Di Remigio,
    A. Alenaizan, A. M. James, S. Lehtola, J. P. Misiewicz, M. Scheurer,
    R. A. Shaw, J. B. Schriber, Y. Xie, Z. L. Glick, D. A. Sirianni,
    J. S. O'Brien, J. M. Waldrop, A. Kumar, E. G. Hohenstein,
    B. P. Pritchard, B. R. Brooks, H. F. Schaefer III, A. Yu. Sokolov,
    K. Patkowski, A. E. DePrince III, U. Bozkaya, R. A. King,
    F. A. Evangelista, J. M. Turney, T. D. Crawford, C. D. Sherrill,
    J. Chem. Phys. 152(18) 184108 (2020). https://doi.org/10.1063/5.0006002

                            Additional Code Authors
    E. T. Seidl, C. L. Janssen, E. F. Valeev, M. L. Leininger,
    J. F. Gonthier, R. M. Richard, H. R. McAlexander, M. Saitow, X. Wang,
    P. Verma, M. H. Lechner, A. Jiang, S. Behnle, A. G. Heide,
    M. F. Herbst, and D. L. Poole

             Previous Authors, Complete List of Code Contributors,
                       and Citations for Specific Modules
    https://github.com/psi4/psi4/blob/master/codemeta.json
    https://github.com/psi4/psi4/graphs/contributors
    http://psicode.org/psi4manual/master/introduction.html#citing-psifour

    -----------------------------------------------------------------------


    Psi4 started on: Saturday, 27 January 2024 12:13AM

    Process ID: 358866
    Host:       n2cn0565
    PSIDATADIR: /opt/software/pc2/EB-SW/software/PSI4/1.9-foss-2022a/share/psi4
    Memory:     500.0 MiB
    Threads:    16
    
  ==> Input File <==

--------------------------------------------------------------------------
memory 64 GB # how much memory is available ! Depends on the nodes/cores !

molecule dimer {
# monomer A
+1 1    # Charge and multiplicity
C  0.680067 -0.008042 -10.415929
C -0.680504 -0.006014 -10.415545
N -1.085635 -0.005016  -9.097221
C  0.000108 -0.001740  -8.315820
C -2.477365  0.044390  -8.629242
N  1.085222 -0.005016  -9.097221
H  1.385146 -0.015870 -11.233368
H -1.385302 -0.006204 -11.233214
H -0.000009  0.000007  -7.234731
C  2.478117 -0.021908  -8.632123
H  2.490592  0.005437  -7.541870
H  2.967028 -0.935354  -8.979299
H  3.001428  0.853575  -9.023595
H -2.857359  1.066461  -8.709201
H -3.082679 -0.625694  -9.242306
H -2.518128 -0.282594  -7.589294
--
# monomer B
0 1     # Charge and multiplicity
C   -3.66844126402057      7.80375217008252      0.00190004133558
C   -4.84759871934653      7.13124183134024     -0.00046653359696
C   -4.89495929917518      5.69633040353158     -0.00103944469517
C   -3.65374067877320      4.98073034095895      0.00662099703436
C   -2.40942512149445      7.11398103667468      0.00209438359570
C   -2.42547734410473      5.68112195090346     -0.00491050527438
C   -1.19474401643570      7.78614419430947      0.00356656413763
C   0.03795902893699      7.09942164575698      0.00139585983271
C   0.03033258741920      5.66948955970466     -0.00408752508301
C   -1.20098450790502      4.96927034791531      0.00488220885047
C   1.27795782581485      7.77285944319479      0.00277170839332
C   2.48535808472416      7.08769688523756      0.00049722048857
C   2.48612868491717      5.65477081024076     -0.00644052849921
C   1.25408291964399      4.95607811366431      0.00518741308898
C   3.75171459140595      7.76391215098033      0.00062407186893
C   4.92356605618520      7.07878077698995     -0.00143240883900
C   4.95560727132542      5.64344746336949     -0.00159282164606
C   3.70680153420475      4.94121020833308      0.00349873852374
H   -3.65852113775815      8.89082741913536      0.00358502958574
H   -1.18921332975660      8.87412108735996      0.00753844057883
H   1.28429423888630      8.86083343548850      0.00693053253426
H   3.75354208679975      8.85103527897216      0.00214659618464
H   5.86995870320703      7.61379483465560     -0.00235777588134
H   -5.78823170750226      7.67630221293400     -0.00202638095293
C   -6.09197395869619      4.99326001364347     -0.00291168518608
C   -6.12866148031747      3.58258016879823     -0.00171050815740
C   -3.66457974004527      3.56418217974434     -0.00463560277484
C   -4.89429820469869      2.86108077590057      0.00453338221034
C   -2.43733499489796      2.84761165708481      0.00719617576166
C   -1.20922785759670      3.54788693497833     -0.00648285103018
C   1.24714157216223      3.53468075142962     -0.00729145743546
C   0.01517603956900      2.83311183930540      0.00439272578912
C   2.46764517244071      2.82128997725533      0.00449278391269
C   3.70254947457969      3.52466015442405     -0.00899517692985
C   6.14498038638375      4.92757236613191     -0.00282626685777
C   6.16658835886151      3.51658447594213     -0.00065971342101
C   4.92460995845939      2.80840792535402      0.00587903281610
H   7.08990550964105      5.46688776622306     -0.00658814770723
H   -7.03104175110130      5.54268795285765     -0.00714490013730
C   -7.33969804112295      2.85841153457957     -0.00333767559888
C   -7.36488195805880      1.47032337158330     -0.00157213747140
C   -4.90350460894690      1.44442681216000     -0.00628840166334
C   -6.13225715261081      0.73993935705394      0.00600164231964
C   -3.67687480051673      0.72669714267312      0.00433931473643
C   -2.44565658606518      1.42964113326212     -0.00597039546461
C   -1.22360068130162      0.71532450163492      0.00545886906656
C   0.00763786931376      1.41738314923765      0.00392452278437
C   1.23121980774686      0.70211669058719     -0.01490206287210
C   2.46082110053113      1.40329203612573      0.00460244601878
C   3.68443025419614      0.68719842821222      0.00377365974158
C   4.91870890153864      1.39173456118907     -0.00862816189375
C   7.36980207796101      2.77948220318441     -0.00242013321349
C   7.38016266612146      1.39121750785509     -0.00087345036788
C   6.13979953912259      0.67411862320065      0.00545489144369
H   -8.27919079934664      3.40711804112415     -0.00763522772059
H   8.31511347147953      3.31811809662368     -0.00663070901292
C   -8.59175593758115      0.72483255304480     -0.00123170985383
C   -8.59902460370342     -0.63263980622873      0.00089141472904
C   -6.13981313911873     -0.67413663715361     -0.00609792660607
C   -7.38018411213749     -1.39126618958160      0.00131813493501
C   -4.91868448025621     -1.39175501803000      0.00624257154343
C   -3.68443829568458     -0.68723731573599     -0.00478966852105
C   -2.46081704024768     -1.40334517882457      0.00575341766833
C   -1.23116201232071     -0.70217386488055     -0.00636696112346
C   -0.00756962538737     -1.41741884941102      0.00108956317991
C   1.22364771588843     -0.71527537726392      0.01109518512883
C   2.44567064933149     -1.42964328900682     -0.00065482763106
C   3.67686670284649     -0.72670743155550     -0.00479541202602
C   6.13224884641929     -0.73997883984993     -0.00632338623858
C   4.90351914550401     -1.44445752054090      0.00751768830159
C   8.59901484869081      0.63260386666793     -0.00101133422380
C   8.59174548810050     -0.72485086719319      0.00072504603735
C   7.36486276438985     -1.47033266560598      0.00049486934466
H   -9.52830597181814      1.27684744919284     -0.00270163681798
H   9.54141097460619      1.17457248844457     -0.00206336648518
C   -7.36983790976868     -2.77954514593389      0.00312634335708
C   -4.92459910905015     -2.80843725734101     -0.00460528907921
C   -6.16662249566744     -3.51665219282533      0.00169655107992
C   -3.70251035970491     -3.52468154912026      0.00571878010666
C   -2.46764698511392     -2.82132596280400     -0.00632585824990
C   -0.01513347410770     -2.83314164539971     -0.00604426974092
C   -1.24712184122656     -3.53473217556300      0.00551968366725
C   1.20924506964357     -3.54791467864352      0.00805871345849
C   2.43733602215464     -2.84764173817541     -0.00608104485234
C   4.89430234377080     -2.86112296828604     -0.00526030478103
C   3.66461525504104     -3.56421984553201      0.00761911515957
C   6.12863901474565     -3.58258405771778      0.00096495711699
C   7.33967266469532     -2.85841330737039      0.00248018319869
H   -9.54144911125902     -1.17456346666430      0.00226083090216
H   9.52826186807155     -1.27691907390448      0.00197485379837
H   -8.31516504384864     -3.31814985321231      0.00729857188773
H   8.27915514249207     -3.40714078989363      0.00681973918158
C   -6.14499418870218     -4.92764727278338      0.00302254913999
C   -3.70678334799751     -4.94126171411716     -0.00679841894792
C   -4.95559005800169     -5.64349397349412      0.00116871569699
C   -2.48612132622665     -5.65478557440947      0.00614125209662
C   -1.25405833548005     -4.95612205000132     -0.00503435388927
C   1.20101257386816     -4.96928038819302     -0.00385322963129
C   -0.03033667441341     -5.66952030313900      0.00398997003238
C   3.65375010132847     -4.98074377541453     -0.00309522988330
C   2.42549269587528     -5.68117463552727      0.00628170066869
C   6.09196561781097     -4.99325796338655      0.00325918379042
C   4.89497644461045     -5.69634842095790      0.00202298796027
H   -7.08989238804069     -5.46699984223871      0.00742531082125
H   7.03105520920009     -5.54265853633254      0.00683896355417
C   -4.92354532219813     -7.07882109967734      0.00061394679214
C   -2.48534208823777     -7.08772807792913     -0.00189594564379
C   -3.75168589177895     -7.76394715763627     -0.00170126671874
C   -0.03794895698805     -7.09946487446944     -0.00168022049625
C   -1.27795610040136     -7.77290438466689     -0.00366491325785
C   2.40944432072629     -7.11402201200282     -0.00081701968533
C   1.19474993715296     -7.78618536556242     -0.00296931056689
C   4.84762105249800     -7.13126211057943      0.00168979497423
C   3.66847160587561     -7.80378799294376     -0.00065863938960
H   -5.86994035041618     -7.61383059804164      0.00215798365757
H   5.78824962538815     -7.67633218931421      0.00281691445618
H   -3.75352693944918     -8.85107156923607     -0.00353718114765
H   -1.28430440589466     -8.86087539249706     -0.00809229711623
H   1.18922157469537     -8.87416062058945     -0.00706194725726
H   3.65854661482387     -8.89086063405326     -0.00231318081200

    units angstrom      # Angstroms are the default
    no_reorient         # Geometry fixed, default
    symmetry c1         # C1 symmetry, default
}

set {
    scf_type DF         # Density fitting, faster than exact integrals
    freeze_core True    # Freeze core electrons
    basis jun-cc-pVDZ   # Jun-cc-pVDZ basis set, recommended for sSAPT0 in https://doi.org/10.1063/1.4867135
}

energy('ssapt0')        # Compute sSAPT0 energy, includes also SAPT0
--------------------------------------------------------------------------

  Memory set to  59.605 GiB by Python driver.

Scratch directory: /tmp/
   => Loading Basis Set <=

    Name: JUN-CC-PVDZ
    Role: ORBITAL
    Keyword: BASIS
    atoms 1-2, 4-5, 10, 17-34, 41-53, 56-70, 73-89, 92-104, 109-119, 122-130 entry C          line   164 file /opt/software/pc2/EB-SW/software/PSI4/1.9-foss-2022a/share/psi4/basis/jun-cc-pvdz.gbs 
    atoms 3, 6                                                               entry N          line   198 file /opt/software/pc2/EB-SW/software/PSI4/1.9-foss-2022a/share/psi4/basis/jun-cc-pvdz.gbs 
    atoms 7-9, 11-16, 35-40, 54-55, 71-72, 90-91, 105-108, 120-121, 131-136  entry H          line    36 file /opt/software/pc2/EB-SW/software/PSI4/1.9-foss-2022a/share/psi4/basis/jun-cc-pvdz.gbs 

   => Loading Basis Set <=

    Name: JUN-CC-PVDZ
    Role: ORBITAL
    Keyword: BASIS
    atoms 1-2, 4-5, 10, 17-34, 41-53, 56-70, 73-89, 92-104, 109-119, 122-130 entry C          line   164 file /opt/software/pc2/EB-SW/software/PSI4/1.9-foss-2022a/share/psi4/basis/jun-cc-pvdz.gbs 
    atoms 3, 6                                                               entry N          line   198 file /opt/software/pc2/EB-SW/software/PSI4/1.9-foss-2022a/share/psi4/basis/jun-cc-pvdz.gbs 
    atoms 7-9, 11-16, 35-40, 54-55, 71-72, 90-91, 105-108, 120-121, 131-136  entry H          line    36 file /opt/software/pc2/EB-SW/software/PSI4/1.9-foss-2022a/share/psi4/basis/jun-cc-pvdz.gbs 


  //>>>>>>>>>>>>>>>>>>>>>>>>>>>>>>>>>>>//
  //              Dimer HF             //
  //<<<<<<<<<<<<<<<<<<<<<<<<<<<<<<<<<<<//

   => Libint2 <=

    Primary   basis highest AM E, G, H:  5, 4, 3
    Auxiliary basis highest AM E, G, H:  6, 5, 4
    Onebody   basis highest AM E, G, H:  6, 5, 4
    Solid Harmonics ordering:            gaussian

*** tstart() called on n2cn0565
*** at Sat Jan 27 00:13:57 2024

   => Loading Basis Set <=

    Name: JUN-CC-PVDZ
    Role: ORBITAL
    Keyword: BASIS
    atoms 1-2, 4-5, 10, 17-34, 41-53, 56-70, 73-89, 92-104, 109-119, 122-130 entry C          line   164 file /opt/software/pc2/EB-SW/software/PSI4/1.9-foss-2022a/share/psi4/basis/jun-cc-pvdz.gbs 
    atoms 3, 6                                                               entry N          line   198 file /opt/software/pc2/EB-SW/software/PSI4/1.9-foss-2022a/share/psi4/basis/jun-cc-pvdz.gbs 
    atoms 7-9, 11-16, 35-40, 54-55, 71-72, 90-91, 105-108, 120-121, 131-136  entry H          line    36 file /opt/software/pc2/EB-SW/software/PSI4/1.9-foss-2022a/share/psi4/basis/jun-cc-pvdz.gbs 


         ---------------------------------------------------------
                                   SCF
               by Justin Turney, Rob Parrish, Andy Simmonett
                          and Daniel G. A. Smith
                              RHF Reference
                       16 Threads,  61035 MiB Core
         ---------------------------------------------------------

  ==> Geometry <==

    Molecular point group: c1
    Full point group: C1

    Geometry (in Angstrom), charge = 1, multiplicity = 1:

       Center              X                  Y                   Z               Mass       
    ------------   -----------------  -----------------  -----------------  -----------------
         C            0.680062820275    -0.008027535675    -9.714505842413    12.000000000000
         C           -0.680508179725    -0.005999535675    -9.714121842413    12.000000000000
         N           -1.085639179725    -0.005001535675    -8.395797842413    14.003074004430
         C            0.000103820275    -0.001725535675    -7.614396842413    12.000000000000
         C           -2.477369179725     0.044404464325    -7.927818842413    12.000000000000
         N            1.085217820275    -0.005001535675    -8.395797842413    14.003074004430
         H            1.385141820275    -0.015855535675   -10.531944842413     1.007825032230
         H           -1.385306179725    -0.006189535675   -10.531790842413     1.007825032230
         H           -0.000013179725     0.000021464325    -6.533307842413     1.007825032230
         C            2.478112820275    -0.021893535675    -7.930699842413    12.000000000000
         H            2.490587820275     0.005451464325    -6.840446842413     1.007825032230
         H            2.967023820275    -0.935339535675    -8.277875842413     1.007825032230
         H            3.001423820275     0.853589464325    -8.322171842413     1.007825032230
         H           -2.857363179725     1.066475464325    -8.007777842413     1.007825032230
         H           -3.082683179725    -0.625679535675    -8.540882842413     1.007825032230
         H           -2.518132179725    -0.282579535675    -6.887870842413     1.007825032230
         C           -3.668445443746     7.803766634408     0.703323198923    12.000000000000
         C           -4.847602899072     7.131256295665     0.700956623990    12.000000000000
         C           -4.894963478901     5.696344867857     0.700383712892    12.000000000000
         C           -3.653744858499     4.980744805284     0.708044154622    12.000000000000
         C           -2.409429301220     7.113995501000     0.703517541183    12.000000000000
         C           -2.425481523830     5.681136415228     0.696512652313    12.000000000000
         C           -1.194748196161     7.786158658634     0.704989721725    12.000000000000
         C            0.037954849212     7.099436110082     0.702819017420    12.000000000000
         C            0.030328407694     5.669504024030     0.697335632504    12.000000000000
         C           -1.200988687630     4.969284812240     0.706305366438    12.000000000000
         C            1.277953646089     7.772873907520     0.704194865981    12.000000000000
         C            2.485353904999     7.087711349563     0.701920378076    12.000000000000
         C            2.486124505192     5.654785274566     0.694982629088    12.000000000000
         C            1.254078739919     4.956092577989     0.706610570676    12.000000000000
         C            3.751710411681     7.763926615305     0.702047229456    12.000000000000
         C            4.923561876460     7.078795241315     0.699990748748    12.000000000000
         C            4.955603091600     5.643461927694     0.699830335941    12.000000000000
         C            3.706797354479     4.941224672658     0.704921896111    12.000000000000
         H           -3.658525317484     8.890841883460     0.705008187173     1.007825032230
         H           -1.189217509482     8.874135551685     0.708961598166     1.007825032230
         H            1.284290059161     8.860847899813     0.708353690122     1.007825032230
         H            3.753537907074     8.851049743297     0.703569753772     1.007825032230
         H            5.869954523482     7.613809298981     0.699065381706     1.007825032230
         H           -5.788235887228     7.676316677259     0.699396776635     1.007825032230
         C           -6.091978138422     4.993274477968     0.698511472401    12.000000000000
         C           -6.128665660043     3.582594633123     0.699712649430    12.000000000000
         C           -3.664583919771     3.564196644069     0.696787554813    12.000000000000
         C           -4.894302384424     2.861095240226     0.705956539798    12.000000000000
         C           -2.437339174623     2.847626121410     0.708619333349    12.000000000000
         C           -1.209232037322     3.547901399303     0.694940306557    12.000000000000
         C            1.247137392437     3.534695215755     0.694131700152    12.000000000000
         C            0.015171859844     2.833126303630     0.705815883377    12.000000000000
         C            2.467640992715     2.821304441580     0.705915941500    12.000000000000
         C            3.702545294854     3.524674618749     0.692427980658    12.000000000000
         C            6.144976206658     4.927586830457     0.698596890730    12.000000000000
         C            6.166584179136     3.516598940267     0.700763444166    12.000000000000
         C            4.924605778734     2.808422389679     0.707302190404    12.000000000000
         H            7.089901329916     5.466902230548     0.694835009880     1.007825032230
         H           -7.031045930827     5.542702417183     0.694278257450     1.007825032230
         C           -7.339702220848     2.858425998905     0.698085481989    12.000000000000
         C           -7.364886137784     1.470337835908     0.699851020116    12.000000000000
         C           -4.903508788672     1.444441276485     0.695134755924    12.000000000000
         C           -6.132261332336     0.739953821379     0.707424799907    12.000000000000
         C           -3.676878980242     0.726711606998     0.705762472324    12.000000000000
         C           -2.445660765791     1.429655597587     0.695452762123    12.000000000000
         C           -1.223604861027     0.715338965960     0.706882026654    12.000000000000
         C            0.007633689588     1.417397613563     0.705347680372    12.000000000000
         C            1.231215628021     0.702131154912     0.686521094715    12.000000000000
         C            2.460816920806     1.403306500451     0.706025603606    12.000000000000
         C            3.684426074471     0.687212892537     0.705196817329    12.000000000000
         C            4.918704721813     1.391749025514     0.692794995694    12.000000000000
         C            7.369797898236     2.779496667509     0.699003024374    12.000000000000
         C            7.380158486396     1.391231972180     0.700549707220    12.000000000000
         C            6.139795359397     0.674133087526     0.706878049031    12.000000000000
         H           -8.279194979072     3.407132505449     0.693787929867     1.007825032230
         H            8.315109291754     3.318132560949     0.694792448575     1.007825032230
         C           -8.591760117307     0.724847017370     0.700191447734    12.000000000000
         C           -8.599028783429    -0.632625341904     0.702314572316    12.000000000000
         C           -6.139817318844    -0.674122172829     0.695325230981    12.000000000000
         C           -7.380188291863    -1.391251725257     0.702741292522    12.000000000000
         C           -4.918688659982    -1.391740553705     0.707665729131    12.000000000000
         C           -3.684442475410    -0.687222851411     0.696633489066    12.000000000000
         C           -2.460821219973    -1.403330714500     0.707176575256    12.000000000000
         C           -1.231166192046    -0.702159400556     0.695056196464    12.000000000000
         C           -0.007573805113    -1.417404385086     0.702512720767    12.000000000000
         C            1.223643536163    -0.715260912939     0.712518342716    12.000000000000
         C            2.445666469606    -1.429628824682     0.700768329956    12.000000000000
         C            3.676862523121    -0.726692967231     0.696627745561    12.000000000000
         C            6.132244666694    -0.739964375525     0.695099771349    12.000000000000
         C            4.903514965779    -1.444443056216     0.708940845889    12.000000000000
         C            8.599010668965     0.632618330993     0.700411823364    12.000000000000
         C            8.591741308375    -0.724836402868     0.702148203625    12.000000000000
         C            7.364858584664    -1.470318201281     0.701918026932    12.000000000000
         H           -9.528310151544     1.276861913518     0.698721520769     1.007825032230
         H            9.541406794881     1.174586952770     0.699359791102     1.007825032230
         C           -7.369842089494    -2.779530681609     0.704549500945    12.000000000000
         C           -4.924603288776    -2.808422793016     0.696817868508    12.000000000000
         C           -6.166626675393    -3.516637728500     0.703119708667    12.000000000000
         C           -3.702514539430    -3.524667084795     0.707141937694    12.000000000000
         C           -2.467651164839    -2.821311498479     0.695097299338    12.000000000000
         C           -0.015137653833    -2.833127181075     0.695378887847    12.000000000000
         C           -1.247126020952    -3.534717711238     0.706942841255    12.000000000000
         C            1.209240889918    -3.547900214319     0.709481871046    12.000000000000
         C            2.437331842429    -2.847627273850     0.695342112735    12.000000000000
         C            4.894298164045    -2.861108503961     0.696162852806    12.000000000000
         C            3.664611075316    -3.564205381207     0.709042272747    12.000000000000
         C            6.128634835020    -3.582569593393     0.702388114704    12.000000000000
         C            7.339668484970    -2.858398843045     0.703903340786    12.000000000000
         H           -9.541453290984    -1.174549002339     0.703683988490     1.007825032230
         H            9.528257688346    -1.276904609579     0.703398011386     1.007825032230
         H           -8.315169223574    -3.318135388887     0.708721729475     1.007825032230
         H            8.279150962767    -3.407126325569     0.708242896769     1.007825032230
         C           -6.144998368428    -4.927632808458     0.704445706727    12.000000000000
         C           -3.706787527723    -4.941247249792     0.694624738640    12.000000000000
         C           -4.955594237727    -5.643479509169     0.702591873284    12.000000000000
         C           -2.486125505952    -5.654771110084     0.707564409684    12.000000000000
         C           -1.254062515205    -4.956107585676     0.696388803698    12.000000000000
         C            1.201008394143    -4.969265923868     0.697569927956    12.000000000000
         C           -0.030340854139    -5.669505838814     0.705413127620    12.000000000000
         C            3.653745921603    -4.980729311090     0.698327927704    12.000000000000
         C            2.425488516150    -5.681160171202     0.707704858256    12.000000000000
         C            6.091961438086    -4.993243499062     0.704682341378    12.000000000000
         C            4.894972264885    -5.696333956633     0.703446145548    12.000000000000
         H           -7.089896567766    -5.466985377914     0.708848468409     1.007825032230
         H            7.031051029475    -5.542644072008     0.708262121142     1.007825032230
         C           -4.923549501924    -7.078806635352     0.702037104380    12.000000000000
         C           -2.485346267963    -7.087713613604     0.699527211944    12.000000000000
         C           -3.751690071504    -7.763932693311     0.699721890869    12.000000000000
         C           -0.037953136713    -7.099450410144     0.699742937091    12.000000000000
         C           -1.277960280127    -7.772889920342     0.697758244330    12.000000000000
         C            2.409440141001    -7.114007547678     0.700606137902    12.000000000000
         C            1.194745757428    -7.786170901237     0.698453847021    12.000000000000
         C            4.847616872773    -7.131247646254     0.703112952562    12.000000000000
         C            3.668467426150    -7.803773528619     0.700764518198    12.000000000000
         H           -5.869944530142    -7.613816133717     0.703581141245     1.007825032230
         H            5.788245445663    -7.676317724989     0.704240072044     1.007825032230
         H           -3.753531119175    -8.851057104911     0.697885976440     1.007825032230
         H           -1.284308585620    -8.860860928172     0.693330860471     1.007825032230
         H            1.189217394970    -8.874146156264     0.694361210330     1.007825032230
         H            3.658542435098    -8.890846169728     0.699109976775     1.007825032230

  Running in c1 symmetry.

  Rotational constants: A =      0.00053  B =      0.00053  C =      0.00035 [cm^-1]
  Rotational constants: A =     16.01091  B =     15.89194  C =     10.51914 [MHz]
  Nuclear repulsion = 17434.559559604673268

  Charge       = 1
  Multiplicity = 1
  Electrons    = 652
  Nalpha       = 326
  Nbeta        = 326

  ==> Algorithm <==

  SCF Algorithm Type is DF.
  DIIS enabled.
  MOM disabled.
  Fractional occupation disabled.
  Guess Type is SAD.
  Energy threshold   = 1.00e-08
  Density threshold  = 1.00e-08
  Integral threshold = 1.00e-12

  ==> Primary Basis <==

  Basis Set: JUN-CC-PVDZ
    Blend: JUN-CC-PVDZ
    Number of shells: 923
    Number of basis functions: 2019
    Number of Cartesian functions: 2122
    Spherical Harmonics?: true
    Max angular momentum: 2

   => Loading Basis Set <=

    Name: (JUN-CC-PVDZ AUX)
    Role: JKFIT
    Keyword: DF_BASIS_SCF
    atoms 1-2, 4-5, 10, 17-34, 41-53, 56-70, 73-89, 92-104, 109-119, 122-130 entry C          line   146 file /opt/software/pc2/EB-SW/software/PSI4/1.9-foss-2022a/share/psi4/basis/jun-cc-pvdz-jkfit.gbs 
    atoms 3, 6                                                               entry N          line   202 file /opt/software/pc2/EB-SW/software/PSI4/1.9-foss-2022a/share/psi4/basis/jun-cc-pvdz-jkfit.gbs 
    atoms 7-9, 11-16, 35-40, 54-55, 71-72, 90-91, 105-108, 120-121, 131-136  entry H          line    70 file /opt/software/pc2/EB-SW/software/PSI4/1.9-foss-2022a/share/psi4/basis/jun-cc-pvdz-jkfit.gbs 

  ==> Integral Setup <==

  ==> DiskDFJK: Density-Fitted J/K Matrices <==

    J tasked:                  Yes
    K tasked:                  Yes
    wK tasked:                  No
    OpenMP threads:             16
    Integrals threads:          16
    Memory [MiB]:            45776
    Algorithm:                Disk
    Integral Cache:           SAVE
    Schwarz Cutoff:          1E-12
    Fitting Condition:       1E-10

   => Auxiliary Basis Set <=

  Basis Set: (JUN-CC-PVDZ AUX)
    Blend: JUN-CC-PVDZ-JKFIT
    Number of shells: 3078
    Number of basis functions: 8896
    Number of Cartesian functions: 10198
    Spherical Harmonics?: true
    Max angular momentum: 3

  Minimum eigenvalue in the overlap matrix is 9.0497558023E-11.
  Reciprocal condition number of the overlap matrix is 3.9689442073E-12.
    Using canonical orthogonalization.
  Overall, 37 of 2019 possible MOs eliminated.


  ==> Pre-Iterations <==

  SCF Guess: Superposition of Atomic Densities via on-the-fly atomic UHF (no occupation information).

   -------------------------
    Irrep   Nso     Nmo    
   -------------------------
     A       2019    1982 
   -------------------------
    Total    2019    1982
   -------------------------

  ==> Iterations <==

                           Total Energy        Delta E     RMS |[F,P]|

   @DF-RHF iter SAD: -3967.13312985490757   -3.96713e+03   0.00000e+00 
   @DF-RHF iter   1: -3952.09357437140216    1.50396e+01   7.16297e-04 ADIIS/DIIS
   @DF-RHF iter   2: -3953.49114340529150   -1.39757e+00   2.33009e-04 ADIIS/DIIS
   @DF-RHF iter   3: -3953.61565917099688   -1.24516e-01   9.89183e-05 DIIS
   @DF-RHF iter   4: -3953.63773379679560   -2.20746e-02   4.09006e-05 DIIS
   @DF-RHF iter   5: -3953.64193792109290   -4.20412e-03   9.98692e-06 DIIS
   @DF-RHF iter   6: -3953.64235695532807   -4.19034e-04   4.57699e-06 DIIS
   @DF-RHF iter   7: -3953.64253718157033   -1.80226e-04   2.20118e-06 DIIS
   @DF-RHF iter   8: -3953.64259775830624   -6.05767e-05   1.11025e-06 DIIS
   @DF-RHF iter   9: -3953.64261504625711   -1.72880e-05   3.54493e-07 DIIS
   @DF-RHF iter  10: -3953.64261621752121   -1.17126e-06   1.45752e-07 DIIS
   @DF-RHF iter  11: -3953.64261636812671   -1.50606e-07   5.94395e-08 DIIS
   @DF-RHF iter  12: -3953.64261640010182   -3.19751e-08   2.95028e-08 DIIS
   @DF-RHF iter  13: -3953.64261640715722   -7.05541e-09   9.59418e-09 DIIS
  Energy and wave function converged.


  ==> Post-Iterations <==

    Orbital Energies [Eh]
    ---------------------

    Doubly Occupied:                                                      

       1A    -15.825886     2A    -15.825360     3A    -11.520665  
       4A    -11.451845     5A    -11.450291     6A    -11.440669  
       7A    -11.440559     8A    -11.312157     9A    -11.311754  
      10A    -11.311733    11A    -11.311156    12A    -11.311127  
      13A    -11.310976    14A    -11.310899    15A    -11.310812  
      16A    -11.310758    17A    -11.310332    18A    -11.310297  
      19A    -11.310247    20A    -11.309931    21A    -11.309928  
      22A    -11.309745    23A    -11.309728    24A    -11.309705  
      25A    -11.309534    26A    -11.309272    27A    -11.309154  
      28A    -11.309102    29A    -11.309006    30A    -11.308937  
      31A    -11.308901    32A    -11.308176    33A    -11.308168  
      34A    -11.308073    35A    -11.308051    36A    -11.308003  
      37A    -11.307952    38A    -11.307942    39A    -11.307894  
      40A    -11.307855    41A    -11.307839    42A    -11.307754  
      43A    -11.307734    44A    -11.307145    45A    -11.307138  
      46A    -11.307135    47A    -11.307125    48A    -11.306967  
      49A    -11.306960    50A    -11.306643    51A    -11.306636  
      52A    -11.306475    53A    -11.306470    54A    -11.306461  
      55A    -11.306458    56A    -11.306396    57A    -11.306386  
      58A    -11.306202    59A    -11.306201    60A    -11.306191  
      61A    -11.306189    62A    -11.305720    63A    -11.305713  
      64A    -11.305549    65A    -11.305541    66A    -11.305539  
      67A    -11.305533    68A    -11.305352    69A    -11.305346  
      70A    -11.305313    71A    -11.305309    72A    -11.305183  
      73A    -11.305164    74A    -11.304932    75A    -11.304929  
      76A    -11.304768    77A    -11.304766    78A    -11.304750  
      79A    -11.304750    80A    -11.298656    81A    -11.298638  
      82A    -11.298601    83A    -11.298599    84A    -11.298498  
      85A    -11.298482    86A    -11.298468    87A    -11.298442  
      88A    -11.298440    89A    -11.298424    90A    -11.298387  
      91A    -11.298344    92A    -11.298218    93A    -11.298205  
      94A    -11.297947    95A    -11.297938    96A    -11.297936  
      97A    -11.297933    98A    -11.296754    99A    -11.296741  
     100A    -11.296482   101A    -11.296472   102A    -11.296470  
     103A    -11.296467   104A     -1.569611   105A     -1.425127  
     106A     -1.301488   107A     -1.285770   108A     -1.285659  
     109A     -1.266658   110A     -1.266643   111A     -1.262227  
     112A     -1.246747   113A     -1.241575   114A     -1.234788  
     115A     -1.234685   116A     -1.230204   117A     -1.219332  
     118A     -1.219315   119A     -1.202046   120A     -1.202042  
     121A     -1.199189   122A     -1.190120   123A     -1.190113  
     124A     -1.180508   125A     -1.174533   126A     -1.161086  
     127A     -1.158874   128A     -1.158800   129A     -1.158490  
     130A     -1.156889   131A     -1.134320   132A     -1.134271  
     133A     -1.122223   134A     -1.122213   135A     -1.113768  
     136A     -1.113740   137A     -1.111298   138A     -1.110027  
     139A     -1.092510   140A     -1.092494   141A     -1.086157  
     142A     -1.083996   143A     -1.083970   144A     -1.071657  
     145A     -1.068210   146A     -1.068200   147A     -1.052913  
     148A     -1.052608   149A     -1.049466   150A     -1.046541  
     151A     -1.046527   152A     -1.036103   153A     -1.016894  
     154A     -1.016884   155A     -1.014085   156A     -1.001279  
     157A     -1.001264   158A     -0.988255   159A     -0.952243  
     160A     -0.952166   161A     -0.951188   162A     -0.950518  
     163A     -0.950456   164A     -0.939053   165A     -0.938956  
     166A     -0.936693   167A     -0.936602   168A     -0.935562  
     169A     -0.917434   170A     -0.913624   171A     -0.908303  
     172A     -0.896958   173A     -0.894080   174A     -0.893991  
     175A     -0.891849   176A     -0.889034   177A     -0.880155  
     178A     -0.880129   179A     -0.873074   180A     -0.873070  
     181A     -0.841830   182A     -0.830549   183A     -0.830457  
     184A     -0.828923   185A     -0.828880   186A     -0.828155  
     187A     -0.828019   188A     -0.827948   189A     -0.812798  
     190A     -0.807861   191A     -0.807215   192A     -0.804242  
     193A     -0.796518   194A     -0.781604   195A     -0.778539  
     196A     -0.777428   197A     -0.773551   198A     -0.772810  
     199A     -0.772723   200A     -0.770791   201A     -0.770281  
     202A     -0.770222   203A     -0.764660   204A     -0.759809  
     205A     -0.759765   206A     -0.744843   207A     -0.744830  
     208A     -0.732176   209A     -0.731284   210A     -0.731260  
     211A     -0.727698   212A     -0.727692   213A     -0.724368  
     214A     -0.720674   215A     -0.716799   216A     -0.708339  
     217A     -0.698761   218A     -0.696220   219A     -0.696189  
     220A     -0.695864   221A     -0.695783   222A     -0.694807  
     223A     -0.686827   224A     -0.686786   225A     -0.685507  
     226A     -0.684485   227A     -0.681751   228A     -0.681727  
     229A     -0.674710   230A     -0.665571   231A     -0.660307  
     232A     -0.660268   233A     -0.654265   234A     -0.654233  
     235A     -0.645991   236A     -0.645873   237A     -0.644593  
     238A     -0.644550   239A     -0.644198   240A     -0.644176  
     241A     -0.640412   242A     -0.640402   243A     -0.640366  
     244A     -0.640063   245A     -0.637345   246A     -0.637330  
     247A     -0.633680   248A     -0.622425   249A     -0.622381  
     250A     -0.621906   251A     -0.621884   252A     -0.618705  
     253A     -0.616433   254A     -0.614167   255A     -0.614149  
     256A     -0.612061   257A     -0.612002   258A     -0.605470  
     259A     -0.604468   260A     -0.604381   261A     -0.603257  
     262A     -0.599995   263A     -0.596227   264A     -0.591828  
     265A     -0.590238   266A     -0.587714   267A     -0.581713  
     268A     -0.581604   269A     -0.578872   270A     -0.578816  
     271A     -0.573951   272A     -0.573311   273A     -0.573296  
     274A     -0.562723   275A     -0.562593   276A     -0.560840  
     277A     -0.560820   278A     -0.554670   279A     -0.554664  
     280A     -0.543568   281A     -0.542106   282A     -0.542042  
     283A     -0.540242   284A     -0.540225   285A     -0.535994  
     286A     -0.526458   287A     -0.522686   288A     -0.522679  
     289A     -0.519293   290A     -0.515664   291A     -0.515529  
     292A     -0.512214   293A     -0.512181   294A     -0.504749  
     295A     -0.493218   296A     -0.493111   297A     -0.487455  
     298A     -0.487256   299A     -0.487117   300A     -0.479774  
     301A     -0.479067   302A     -0.453263   303A     -0.453207  
     304A     -0.432744   305A     -0.432712   306A     -0.430768  
     307A     -0.430758   308A     -0.430224   309A     -0.400091  
     310A     -0.400060   311A     -0.396421   312A     -0.385284  
     313A     -0.382964   314A     -0.382947   315A     -0.377797  
     316A     -0.377721   317A     -0.353629   318A     -0.348330  
     319A     -0.348311   320A     -0.346335   321A     -0.331739  
     322A     -0.300996   323A     -0.299787   324A     -0.299777  
     325A     -0.249844   326A     -0.249836  

    Virtual:                                                              

     327A     -0.059896   328A     -0.057090   329A     -0.056915  
     330A     -0.054613   331A     -0.046379   332A     -0.041590  
     333A     -0.023878   334A     -0.021077   335A     -0.019865  
     336A     -0.018063   337A     -0.011116   338A     -0.010996  
     339A     -0.004827   340A      0.002434   341A      0.004191  
     342A      0.005373   343A      0.005554   344A      0.007013  
     345A      0.008420   346A      0.008646   347A      0.010451  
     348A      0.010979   349A      0.013392   350A      0.013763  
     351A      0.018042   352A      0.018121   353A      0.020772  
     354A      0.021312   355A      0.023761   356A      0.023866  
     357A      0.024030   358A      0.024142   359A      0.028494  
     360A      0.029309   361A      0.033547   362A      0.033700  
     363A      0.034468   364A      0.035087   365A      0.035103  
     366A      0.037952   367A      0.038578   368A      0.040899  
     369A      0.042410   370A      0.042457   371A      0.043050  
     372A      0.044907   373A      0.045301   374A      0.046553  
     375A      0.046862   376A      0.050424   377A      0.053281  
     378A      0.057714   379A      0.059303   380A      0.059368  
     381A      0.060781   382A      0.061222   383A      0.061747  
     384A      0.062072   385A      0.063042   386A      0.065006  
     387A      0.066336   388A      0.068344   389A      0.068383  
     390A      0.069244   391A      0.069310   392A      0.069343  
     393A      0.074290   394A      0.074513   395A      0.075257  
     396A      0.076776   397A      0.077174   398A      0.078725  
     399A      0.078955   400A      0.079139   401A      0.083749  
     402A      0.085707   403A      0.088446   404A      0.089259  
     405A      0.089481   406A      0.090915   407A      0.091139  
     408A      0.093038   409A      0.094329   410A      0.095422  
     411A      0.099124   412A      0.099170   413A      0.100886  
     414A      0.101502   415A      0.102729   416A      0.104112  
     417A      0.106391   418A      0.107240   419A      0.110027  
     420A      0.110924   421A      0.111122   422A      0.111406  
     423A      0.111753   424A      0.113140   425A      0.113889  
     426A      0.116032   427A      0.116059   428A      0.118155  
     429A      0.119434   430A      0.119929   431A      0.124497  
     432A      0.125400   433A      0.125827   434A      0.125921  
     435A      0.126455   436A      0.128579   437A      0.130894  
     438A      0.133420   439A      0.133471   440A      0.135755  
     441A      0.136356   442A      0.136490   443A      0.136929  
     444A      0.136968   445A      0.138428   446A      0.142082  
     447A      0.143397   448A      0.143979   449A      0.145195  
     450A      0.146603   451A      0.146689   452A      0.147233  
     453A      0.147382   454A      0.148262   455A      0.150789  
     456A      0.156145   457A      0.157468   458A      0.157912  
     459A      0.159229   460A      0.159437   461A      0.160315  
     462A      0.160767   463A      0.161025   464A      0.161159  
     465A      0.163244   466A      0.163721   467A      0.164255  
     468A      0.164512   469A      0.164618   470A      0.165332  
     471A      0.166642   472A      0.166739   473A      0.166862  
     474A      0.169294   475A      0.170424   476A      0.170975  
     477A      0.171874   478A      0.172996   479A      0.173092  
     480A      0.174716   481A      0.177831   482A      0.178215  
     483A      0.178482   484A      0.179933   485A      0.180765  
     486A      0.181096   487A      0.181262   488A      0.183261  
     489A      0.185028   490A      0.185178   491A      0.186627  
     492A      0.187394   493A      0.188214   494A      0.189810  
     495A      0.190463   496A      0.192054   497A      0.193234  
     498A      0.193477   499A      0.193615   500A      0.195741  
     501A      0.196206   502A      0.196373   503A      0.198553  
     504A      0.198819   505A      0.199217   506A      0.199948  
     507A      0.200889   508A      0.202055   509A      0.202979  
     510A      0.203031   511A      0.205012   512A      0.207016  
     513A      0.208251   514A      0.211889   515A      0.212924  
     516A      0.215110   517A      0.215552   518A      0.215960  
     519A      0.216287   520A      0.216972   521A      0.217841  
     522A      0.219045   523A      0.219261   524A      0.219554  
     525A      0.222359   526A      0.222532   527A      0.223535  
     528A      0.223615   529A      0.225953   530A      0.226283  
     531A      0.228650   532A      0.231723   533A      0.232748  
     534A      0.233709   535A      0.233814   536A      0.233965  
     537A      0.235058   538A      0.235375   539A      0.235555  
     540A      0.236646   541A      0.237500   542A      0.238808  
     543A      0.238925   544A      0.241622   545A      0.241850  
     546A      0.243177   547A      0.243256   548A      0.246579  
     549A      0.247201   550A      0.247653   551A      0.250221  
     552A      0.251694   553A      0.251883   554A      0.254590  
     555A      0.256792   556A      0.257688   557A      0.257899  
     558A      0.258041   559A      0.258315   560A      0.261245  
     561A      0.262835   562A      0.263670   563A      0.264401  
     564A      0.264482   565A      0.264898   566A      0.266179  
     567A      0.269790   568A      0.270013   569A      0.270388  
     570A      0.272041   571A      0.272269   572A      0.273009  
     573A      0.273553   574A      0.273620   575A      0.274983  
     576A      0.276606   577A      0.276958   578A      0.277386  
     579A      0.277750   580A      0.278498   581A      0.278689  
     582A      0.280266   583A      0.280931   584A      0.282194  
     585A      0.282341   586A      0.283201   587A      0.283428  
     588A      0.284537   589A      0.286039   590A      0.287579  
     591A      0.288799   592A      0.289198   593A      0.290723  
     594A      0.291126   595A      0.291877   596A      0.295035  
     597A      0.295168   598A      0.297180   599A      0.297315  
     600A      0.298442   601A      0.299203   602A      0.300044  
     603A      0.300763   604A      0.302819   605A      0.303090  
     606A      0.304688   607A      0.305463   608A      0.305570  
     609A      0.305766   610A      0.305957   611A      0.307506  
     612A      0.310376   613A      0.311112   614A      0.311348  
     615A      0.315295   616A      0.316278   617A      0.318447  
     618A      0.318545   619A      0.320045   620A      0.320306  
     621A      0.322571   622A      0.324087   623A      0.324384  
     624A      0.325867   625A      0.326424   626A      0.327813  
     627A      0.329277   628A      0.331542   629A      0.332004  
     630A      0.333368   631A      0.333776   632A      0.335839  
     633A      0.336011   634A      0.336299   635A      0.336709  
     636A      0.338434   637A      0.338518   638A      0.338882  
     639A      0.339781   640A      0.340314   641A      0.342736  
     642A      0.343034   643A      0.347635   644A      0.348339  
     645A      0.348678   646A      0.350041   647A      0.351589  
     648A      0.351624   649A      0.351807   650A      0.352142  
     651A      0.352420   652A      0.352540   653A      0.353919  
     654A      0.354218   655A      0.354485   656A      0.355269  
     657A      0.356617   658A      0.357169   659A      0.357911  
     660A      0.359871   661A      0.359898   662A      0.360155  
     663A      0.360308   664A      0.362144   665A      0.363039  
     666A      0.363396   667A      0.365200   668A      0.365291  
     669A      0.366253   670A      0.368020   671A      0.368171  
     672A      0.369116   673A      0.370555   674A      0.370746  
     675A      0.371670   676A      0.371802   677A      0.372116  
     678A      0.373491   679A      0.373620   680A      0.377307  
     681A      0.378432   682A      0.378801   683A      0.382902  
     684A      0.383211   685A      0.384493   686A      0.384532  
     687A      0.385717   688A      0.385831   689A      0.388017  
     690A      0.388087   691A      0.388197   692A      0.388409  
     693A      0.388550   694A      0.389879   695A      0.390215  
     696A      0.391912   697A      0.391971   698A      0.395054  
     699A      0.395156   700A      0.396053   701A      0.396895  
     702A      0.398387   703A      0.405434   704A      0.405487  
     705A      0.405863   706A      0.407415   707A      0.407645  
     708A      0.408120   709A      0.408600   710A      0.410008  
     711A      0.410397   712A      0.410920   713A      0.411029  
     714A      0.411164   715A      0.412960   716A      0.414337  
     717A      0.416236   718A      0.416485   719A      0.418118  
     720A      0.418608   721A      0.420533   722A      0.421144  
     723A      0.422798   724A      0.423362   725A      0.423572  
     726A      0.424533   727A      0.425533   728A      0.426109  
     729A      0.430344   730A      0.430491   731A      0.430898  
     732A      0.431020   733A      0.432346   734A      0.433316  
     735A      0.434967   736A      0.435354   737A      0.435606  
     738A      0.435674   739A      0.438489   740A      0.439462  
     741A      0.440333   742A      0.440497   743A      0.440846  
     744A      0.441721   745A      0.446345   746A      0.446572  
     747A      0.446852   748A      0.447518   749A      0.448687  
     750A      0.449136   751A      0.449275   752A      0.451755  
     753A      0.451887   754A      0.455323   755A      0.458487  
     756A      0.458559   757A      0.459118   758A      0.459318  
     759A      0.460051   760A      0.460879   761A      0.462273  
     762A      0.462474   763A      0.463837   764A      0.469975  
     765A      0.470117   766A      0.472092   767A      0.473134  
     768A      0.473261   769A      0.473328   770A      0.473383  
     771A      0.474678   772A      0.476730   773A      0.478128  
     774A      0.479206   775A      0.479431   776A      0.485202  
     777A      0.488283   778A      0.489026   779A      0.489146  
     780A      0.491819   781A      0.493021   782A      0.493460  
     783A      0.494871   784A      0.494938   785A      0.499601  
     786A      0.500578   787A      0.500724   788A      0.505455  
     789A      0.507256   790A      0.513332   791A      0.514054  
     792A      0.514309   793A      0.516660   794A      0.517162  
     795A      0.517421   796A      0.522599   797A      0.522742  
     798A      0.523112   799A      0.527221   800A      0.528273  
     801A      0.528653   802A      0.529025   803A      0.529982  
     804A      0.530719   805A      0.532321   806A      0.533272  
     807A      0.533445   808A      0.533860   809A      0.535248  
     810A      0.537877   811A      0.542854   812A      0.543848  
     813A      0.544609   814A      0.544835   815A      0.544953  
     816A      0.549201   817A      0.549496   818A      0.552296  
     819A      0.553531   820A      0.553851   821A      0.556869  
     822A      0.557908   823A      0.559001   824A      0.559506  
     825A      0.560217   826A      0.568553   827A      0.569844  
     828A      0.572687   829A      0.574041   830A      0.574406  
     831A      0.575097   832A      0.575192   833A      0.577009  
     834A      0.580451   835A      0.585869   836A      0.586722  
     837A      0.586941   838A      0.587457   839A      0.594631  
     840A      0.594988   841A      0.601123   842A      0.610129  
     843A      0.610325   844A      0.611873   845A      0.612599  
     846A      0.614131   847A      0.614308   848A      0.614677  
     849A      0.614810   850A      0.621133   851A      0.622965  
     852A      0.623029   853A      0.627974   854A      0.633444  
     855A      0.634731   856A      0.639513   857A      0.639689  
     858A      0.643253   859A      0.643275   860A      0.644680  
     861A      0.645712   862A      0.646343   863A      0.646561  
     864A      0.647057   865A      0.654630   866A      0.655304  
     867A      0.656041   868A      0.656313   869A      0.656569  
     870A      0.657907   871A      0.662119   872A      0.662346  
     873A      0.665455   874A      0.668867   875A      0.674512  
     876A      0.675242   877A      0.680102   878A      0.683231  
     879A      0.685396   880A      0.687853   881A      0.691715  
     882A      0.694159   883A      0.695828   884A      0.696340  
     885A      0.699560   886A      0.699952   887A      0.700206  
     888A      0.701840   889A      0.704966   890A      0.705407  
     891A      0.706355   892A      0.708733   893A      0.717779  
     894A      0.726160   895A      0.726777   896A      0.737035  
     897A      0.738753   898A      0.743167   899A      0.743441  
     900A      0.743779   901A      0.747516   902A      0.749183  
     903A      0.749385   904A      0.750476   905A      0.755746  
     906A      0.756467   907A      0.756987   908A      0.758521  
     909A      0.759140   910A      0.761139   911A      0.762376  
     912A      0.765738   913A      0.768857   914A      0.769347  
     915A      0.770419   916A      0.771581   917A      0.772798  
     918A      0.773134   919A      0.781218   920A      0.782065  
     921A      0.782808   922A      0.784202   923A      0.787144  
     924A      0.788446   925A      0.789997   926A      0.790238  
     927A      0.791392   928A      0.791992   929A      0.792298  
     930A      0.795433   931A      0.795648   932A      0.798409  
     933A      0.800234   934A      0.801783   935A      0.805069  
     936A      0.808511   937A      0.809595   938A      0.811853  
     939A      0.813880   940A      0.815045   941A      0.815841  
     942A      0.817426   943A      0.818895   944A      0.820847  
     945A      0.822799   946A      0.823844   947A      0.823978  
     948A      0.824186   949A      0.824270   950A      0.825466  
     951A      0.826068   952A      0.829509   953A      0.830610  
     954A      0.832680   955A      0.833787   956A      0.835644  
     957A      0.835825   958A      0.841175   959A      0.841648  
     960A      0.842144   961A      0.844579   962A      0.844895  
     963A      0.845749   964A      0.847072   965A      0.849293  
     966A      0.853475   967A      0.854607   968A      0.855177  
     969A      0.856198   970A      0.859093   971A      0.861978  
     972A      0.862084   973A      0.867068   974A      0.870549  
     975A      0.871272   976A      0.871753   977A      0.872676  
     978A      0.875488   979A      0.876475   980A      0.876822  
     981A      0.876984   982A      0.877317   983A      0.880678  
     984A      0.882378   985A      0.883560   986A      0.885850  
     987A      0.887856   988A      0.888557   989A      0.889001  
     990A      0.890167   991A      0.892995   992A      0.893178  
     993A      0.893466   994A      0.898088   995A      0.899408  
     996A      0.903323   997A      0.904131   998A      0.905174  
     999A      0.905640  1000A      0.905870  1001A      0.907562  
    1002A      0.908197  1003A      0.908464  1004A      0.909087  
    1005A      0.911305  1006A      0.911827  1007A      0.911954  
    1008A      0.912611  1009A      0.914823  1010A      0.920460  
    1011A      0.921324  1012A      0.923070  1013A      0.923417  
    1014A      0.925979  1015A      0.928783  1016A      0.936465  
    1017A      0.937589  1018A      0.938088  1019A      0.945034  
    1020A      0.948286  1021A      0.948571  1022A      0.949081  
    1023A      0.949234  1024A      0.951942  1025A      0.954916  
    1026A      0.955380  1027A      0.957219  1028A      0.957907  
    1029A      0.959499  1030A      0.959786  1031A      0.960441  
    1032A      0.960950  1033A      0.964443  1034A      0.968312  
    1035A      0.969306  1036A      0.970557  1037A      0.973767  
    1038A      0.974146  1039A      0.974287  1040A      0.975698  
    1041A      0.975760  1042A      0.977790  1043A      0.982086  
    1044A      0.984799  1045A      0.985040  1046A      0.985467  
    1047A      0.988049  1048A      0.990608  1049A      0.990871  
    1050A      0.991780  1051A      0.999486  1052A      0.999595  
    1053A      1.001291  1054A      1.001354  1055A      1.001657  
    1056A      1.002205  1057A      1.002513  1058A      1.002818  
    1059A      1.006524  1060A      1.007177  1061A      1.007328  
    1062A      1.008643  1063A      1.008721  1064A      1.014625  
    1065A      1.014864  1066A      1.015156  1067A      1.016092  
    1068A      1.018501  1069A      1.018829  1070A      1.019839  
    1071A      1.021342  1072A      1.021621  1073A      1.021681  
    1074A      1.022311  1075A      1.023332  1076A      1.023590  
    1077A      1.024542  1078A      1.025156  1079A      1.026178  
    1080A      1.026451  1081A      1.026500  1082A      1.026906  
    1083A      1.026970  1084A      1.028639  1085A      1.029877  
    1086A      1.030088  1087A      1.030695  1088A      1.031337  
    1089A      1.031769  1090A      1.032105  1091A      1.033335  
    1092A      1.033758  1093A      1.034075  1094A      1.034500  
    1095A      1.034716  1096A      1.035350  1097A      1.035773  
    1098A      1.035891  1099A      1.036133  1100A      1.037523  
    1101A      1.038082  1102A      1.040077  1103A      1.040511  
    1104A      1.041970  1105A      1.043988  1106A      1.044160  
    1107A      1.051190  1108A      1.052010  1109A      1.052347  
    1110A      1.053607  1111A      1.054482  1112A      1.055638  
    1113A      1.055868  1114A      1.056648  1115A      1.056958  
    1116A      1.059756  1117A      1.064634  1118A      1.065702  
    1119A      1.067323  1120A      1.073246  1121A      1.073461  
    1122A      1.075064  1123A      1.075558  1124A      1.076639  
    1125A      1.082918  1126A      1.083033  1127A      1.084641  
    1128A      1.085862  1129A      1.088283  1130A      1.088476  
    1131A      1.089214  1132A      1.092142  1133A      1.092390  
    1134A      1.093533  1135A      1.096573  1136A      1.097272  
    1137A      1.100366  1138A      1.100584  1139A      1.101374  
    1140A      1.104377  1141A      1.104801  1142A      1.105638  
    1143A      1.106270  1144A      1.107105  1145A      1.111511  
    1146A      1.111852  1147A      1.111895  1148A      1.114577  
    1149A      1.117331  1150A      1.118180  1151A      1.122652  
    1152A      1.124260  1153A      1.125130  1154A      1.130501  
    1155A      1.130619  1156A      1.133934  1157A      1.135546  
    1158A      1.139159  1159A      1.139419  1160A      1.141211  
    1161A      1.142178  1162A      1.146625  1163A      1.147217  
    1164A      1.147437  1165A      1.147969  1166A      1.156951  
    1167A      1.157055  1168A      1.157198  1169A      1.157747  
    1170A      1.159650  1171A      1.159707  1172A      1.160883  
    1173A      1.165806  1174A      1.167804  1175A      1.169862  
    1176A      1.170389  1177A      1.171067  1178A      1.172511  
    1179A      1.173625  1180A      1.176622  1181A      1.177817  
    1182A      1.178110  1183A      1.182492  1184A      1.188326  
    1185A      1.188566  1186A      1.202591  1187A      1.202792  
    1188A      1.202939  1189A      1.206936  1190A      1.207808  
    1191A      1.209693  1192A      1.214187  1193A      1.216752  
    1194A      1.216992  1195A      1.219203  1196A      1.222534  
    1197A      1.223015  1198A      1.223808  1199A      1.225785  
    1200A      1.228821  1201A      1.239679  1202A      1.239788  
    1203A      1.242406  1204A      1.245020  1205A      1.245504  
    1206A      1.248513  1207A      1.249592  1208A      1.249627  
    1209A      1.251235  1210A      1.256279  1211A      1.257839  
    1212A      1.260375  1213A      1.260497  1214A      1.263266  
    1215A      1.263695  1216A      1.265398  1217A      1.268430  
    1218A      1.269018  1219A      1.269689  1220A      1.274494  
    1221A      1.274872  1222A      1.275037  1223A      1.275166  
    1224A      1.277128  1225A      1.280715  1226A      1.281195  
    1227A      1.281228  1228A      1.284081  1229A      1.285574  
    1230A      1.286306  1231A      1.290312  1232A      1.290322  
    1233A      1.294922  1234A      1.295103  1235A      1.296686  
    1236A      1.299939  1237A      1.300308  1238A      1.301732  
    1239A      1.310793  1240A      1.310946  1241A      1.311897  
    1242A      1.312838  1243A      1.315339  1244A      1.318006  
    1245A      1.318074  1246A      1.321711  1247A      1.322972  
    1248A      1.324973  1249A      1.326123  1250A      1.327029  
    1251A      1.327661  1252A      1.329195  1253A      1.341332  
    1254A      1.342206  1255A      1.344850  1256A      1.348538  
    1257A      1.349025  1258A      1.349730  1259A      1.349850  
    1260A      1.353537  1261A      1.354737  1262A      1.359225  
    1263A      1.359590  1264A      1.362466  1265A      1.362498  
    1266A      1.362788  1267A      1.366506  1268A      1.366988  
    1269A      1.367654  1270A      1.368900  1271A      1.375048  
    1272A      1.375431  1273A      1.377798  1274A      1.378361  
    1275A      1.380848  1276A      1.380975  1277A      1.381262  
    1278A      1.381350  1279A      1.384260  1280A      1.384559  
    1281A      1.388965  1282A      1.389325  1283A      1.390862  
    1284A      1.393180  1285A      1.393525  1286A      1.396447  
    1287A      1.402227  1288A      1.403279  1289A      1.403608  
    1290A      1.404814  1291A      1.406096  1292A      1.407792  
    1293A      1.408010  1294A      1.417809  1295A      1.417979  
    1296A      1.422992  1297A      1.423712  1298A      1.424646  
    1299A      1.425744  1300A      1.425785  1301A      1.430699  
    1302A      1.433080  1303A      1.438417  1304A      1.438717  
    1305A      1.439775  1306A      1.445686  1307A      1.450822  
    1308A      1.450909  1309A      1.452951  1310A      1.458355  
    1311A      1.460009  1312A      1.460029  1313A      1.470730  
    1314A      1.470933  1315A      1.472673  1316A      1.486191  
    1317A      1.493574  1318A      1.494780  1319A      1.494906  
    1320A      1.501811  1321A      1.507619  1322A      1.507694  
    1323A      1.511630  1324A      1.525321  1325A      1.537821  
    1326A      1.547565  1327A      1.547696  1328A      1.552720  
    1329A      1.556531  1330A      1.558210  1331A      1.559162  
    1332A      1.559695  1333A      1.561164  1334A      1.562025  
    1335A      1.564825  1336A      1.565208  1337A      1.565586  
    1338A      1.568739  1339A      1.569217  1340A      1.569562  
    1341A      1.570094  1342A      1.570937  1343A      1.571291  
    1344A      1.573874  1345A      1.574336  1346A      1.574842  
    1347A      1.576068  1348A      1.578149  1349A      1.580895  
    1350A      1.581069  1351A      1.585004  1352A      1.585688  
    1353A      1.588928  1354A      1.589534  1355A      1.589678  
    1356A      1.590355  1357A      1.592257  1358A      1.592876  
    1359A      1.593023  1360A      1.594028  1361A      1.594869  
    1362A      1.595098  1363A      1.597445  1364A      1.599526  
    1365A      1.606161  1366A      1.606287  1367A      1.606574  
    1368A      1.610607  1369A      1.610762  1370A      1.611110  
    1371A      1.612755  1372A      1.618778  1373A      1.619011  
    1374A      1.622220  1375A      1.622452  1376A      1.622694  
    1377A      1.623343  1378A      1.623427  1379A      1.625368  
    1380A      1.627325  1381A      1.630939  1382A      1.631446  
    1383A      1.632091  1384A      1.632743  1385A      1.642115  
    1386A      1.643319  1387A      1.647083  1388A      1.650054  
    1389A      1.650345  1390A      1.650730  1391A      1.651715  
    1392A      1.653721  1393A      1.663640  1394A      1.663846  
    1395A      1.664376  1396A      1.668989  1397A      1.669014  
    1398A      1.670373  1399A      1.670466  1400A      1.673455  
    1401A      1.675146  1402A      1.676554  1403A      1.676818  
    1404A      1.677692  1405A      1.678738  1406A      1.679646  
    1407A      1.688382  1408A      1.691030  1409A      1.692455  
    1410A      1.696435  1411A      1.700400  1412A      1.702261  
    1413A      1.702368  1414A      1.704244  1415A      1.704989  
    1416A      1.717983  1417A      1.719752  1418A      1.722682  
    1419A      1.734384  1420A      1.739778  1421A      1.740899  
    1422A      1.741714  1423A      1.742331  1424A      1.753757  
    1425A      1.756681  1426A      1.756772  1427A      1.756935  
    1428A      1.763425  1429A      1.764333  1430A      1.773013  
    1431A      1.776654  1432A      1.777946  1433A      1.781093  
    1434A      1.781987  1435A      1.782372  1436A      1.784557  
    1437A      1.785464  1438A      1.786806  1439A      1.787448  
    1440A      1.787659  1441A      1.790778  1442A      1.791231  
    1443A      1.791450  1444A      1.792145  1445A      1.798350  
    1446A      1.799884  1447A      1.810870  1448A      1.810960  
    1449A      1.813442  1450A      1.814708  1451A      1.814978  
    1452A      1.817004  1453A      1.817429  1454A      1.817599  
    1455A      1.819589  1456A      1.820131  1457A      1.824538  
    1458A      1.824739  1459A      1.825191  1460A      1.827339  
    1461A      1.827593  1462A      1.829899  1463A      1.836030  
    1464A      1.836738  1465A      1.837584  1466A      1.838261  
    1467A      1.838359  1468A      1.839063  1469A      1.839701  
    1470A      1.840532  1471A      1.843714  1472A      1.844334  
    1473A      1.851734  1474A      1.857632  1475A      1.857762  
    1476A      1.859657  1477A      1.860045  1478A      1.864224  
    1479A      1.865323  1480A      1.869558  1481A      1.869886  
    1482A      1.870883  1483A      1.875324  1484A      1.875564  
    1485A      1.876322  1486A      1.876668  1487A      1.878907  
    1488A      1.879314  1489A      1.880114  1490A      1.885795  
    1491A      1.891415  1492A      1.892028  1493A      1.892711  
    1494A      1.892901  1495A      1.893451  1496A      1.894241  
    1497A      1.896524  1498A      1.897973  1499A      1.898227  
    1500A      1.900131  1501A      1.901993  1502A      1.904845  
    1503A      1.905405  1504A      1.907570  1505A      1.908907  
    1506A      1.913115  1507A      1.913569  1508A      1.914712  
    1509A      1.915119  1510A      1.915241  1511A      1.921174  
    1512A      1.922608  1513A      1.924278  1514A      1.925277  
    1515A      1.926399  1516A      1.927571  1517A      1.934692  
    1518A      1.936123  1519A      1.939261  1520A      1.943051  
    1521A      1.945753  1522A      1.945980  1523A      1.947509  
    1524A      1.947981  1525A      1.949358  1526A      1.951691  
    1527A      1.960788  1528A      1.961057  1529A      1.964566  
    1530A      1.965812  1531A      1.966855  1532A      1.970169  
    1533A      1.970489  1534A      1.970965  1535A      1.971710  
    1536A      1.973537  1537A      1.973885  1538A      1.974157  
    1539A      1.974439  1540A      1.975296  1541A      1.978242  
    1542A      1.981937  1543A      1.984956  1544A      1.986863  
    1545A      1.987530  1546A      1.989450  1547A      1.993305  
    1548A      1.995697  1549A      1.996258  1550A      2.001376  
    1551A      2.003801  1552A      2.006444  1553A      2.007139  
    1554A      2.010242  1555A      2.010595  1556A      2.011566  
    1557A      2.012665  1558A      2.013094  1559A      2.014239  
    1560A      2.014542  1561A      2.020532  1562A      2.022738  
    1563A      2.022947  1564A      2.024622  1565A      2.029102  
    1566A      2.031907  1567A      2.033183  1568A      2.034516  
    1569A      2.034591  1570A      2.035884  1571A      2.036684  
    1572A      2.036975  1573A      2.037549  1574A      2.040524  
    1575A      2.042194  1576A      2.042733  1577A      2.043678  
    1578A      2.044947  1579A      2.045939  1580A      2.046064  
    1581A      2.047402  1582A      2.047606  1583A      2.048329  
    1584A      2.050305  1585A      2.050894  1586A      2.051610  
    1587A      2.051777  1588A      2.055119  1589A      2.055455  
    1590A      2.056367  1591A      2.060324  1592A      2.063832  
    1593A      2.065174  1594A      2.065965  1595A      2.066317  
    1596A      2.067273  1597A      2.068198  1598A      2.071042  
    1599A      2.072084  1600A      2.073641  1601A      2.074065  
    1602A      2.079266  1603A      2.080595  1604A      2.080911  
    1605A      2.081327  1606A      2.081654  1607A      2.082347  
    1608A      2.082542  1609A      2.084807  1610A      2.088707  
    1611A      2.089159  1612A      2.089220  1613A      2.090360  
    1614A      2.094054  1615A      2.096665  1616A      2.096766  
    1617A      2.098154  1618A      2.099079  1619A      2.099358  
    1620A      2.108425  1621A      2.108949  1622A      2.110797  
    1623A      2.111504  1624A      2.112270  1625A      2.113593  
    1626A      2.113942  1627A      2.114529  1628A      2.117772  
    1629A      2.118065  1630A      2.125693  1631A      2.125848  
    1632A      2.134022  1633A      2.135453  1634A      2.135595  
    1635A      2.136866  1636A      2.142588  1637A      2.142672  
    1638A      2.143332  1639A      2.144403  1640A      2.144824  
    1641A      2.146201  1642A      2.148315  1643A      2.148804  
    1644A      2.150557  1645A      2.151565  1646A      2.153292  
    1647A      2.153675  1648A      2.155270  1649A      2.155781  
    1650A      2.157334  1651A      2.158562  1652A      2.160402  
    1653A      2.163361  1654A      2.164797  1655A      2.168130  
    1656A      2.168373  1657A      2.174133  1658A      2.177643  
    1659A      2.177682  1660A      2.178409  1661A      2.178463  
    1662A      2.179419  1663A      2.183296  1664A      2.187033  
    1665A      2.188051  1666A      2.188646  1667A      2.191762  
    1668A      2.192575  1669A      2.192855  1670A      2.196182  
    1671A      2.200867  1672A      2.201826  1673A      2.203063  
    1674A      2.203745  1675A      2.206806  1676A      2.216157  
    1677A      2.217495  1678A      2.218636  1679A      2.220186  
    1680A      2.221673  1681A      2.225559  1682A      2.229082  
    1683A      2.230752  1684A      2.237626  1685A      2.238928  
    1686A      2.245232  1687A      2.246339  1688A      2.250539  
    1689A      2.251565  1690A      2.254371  1691A      2.258572  
    1692A      2.259002  1693A      2.263640  1694A      2.267319  
    1695A      2.278145  1696A      2.279583  1697A      2.279678  
    1698A      2.281521  1699A      2.283646  1700A      2.285341  
    1701A      2.285690  1702A      2.286806  1703A      2.288052  
    1704A      2.289242  1705A      2.293358  1706A      2.295835  
    1707A      2.296519  1708A      2.296820  1709A      2.299117  
    1710A      2.299907  1711A      2.300567  1712A      2.301185  
    1713A      2.302640  1714A      2.303087  1715A      2.320867  
    1716A      2.325239  1717A      2.325893  1718A      2.328265  
    1719A      2.338517  1720A      2.339865  1721A      2.342311  
    1722A      2.343881  1723A      2.345521  1724A      2.346464  
    1725A      2.350665  1726A      2.372913  1727A      2.373963  
    1728A      2.377587  1729A      2.382128  1730A      2.385852  
    1731A      2.395714  1732A      2.397642  1733A      2.405967  
    1734A      2.407226  1735A      2.418932  1736A      2.418992  
    1737A      2.422373  1738A      2.422616  1739A      2.426705  
    1740A      2.427012  1741A      2.446133  1742A      2.446503  
    1743A      2.447828  1744A      2.448413  1745A      2.457422  
    1746A      2.461373  1747A      2.462152  1748A      2.465105  
    1749A      2.466540  1750A      2.471403  1751A      2.493267  
    1752A      2.493506  1753A      2.494733  1754A      2.496856  
    1755A      2.497408  1756A      2.498800  1757A      2.502274  
    1758A      2.503064  1759A      2.503510  1760A      2.504517  
    1761A      2.505778  1762A      2.510137  1763A      2.510339  
    1764A      2.518529  1765A      2.525689  1766A      2.527049  
    1767A      2.535757  1768A      2.539566  1769A      2.539842  
    1770A      2.540067  1771A      2.541089  1772A      2.544321  
    1773A      2.544748  1774A      2.547877  1775A      2.549586  
    1776A      2.556256  1777A      2.556315  1778A      2.567397  
    1779A      2.567656  1780A      2.568012  1781A      2.568502  
    1782A      2.571706  1783A      2.571978  1784A      2.577145  
    1785A      2.586993  1786A      2.594945  1787A      2.595925  
    1788A      2.598272  1789A      2.599711  1790A      2.602150  
    1791A      2.603101  1792A      2.603484  1793A      2.608079  
    1794A      2.609073  1795A      2.610823  1796A      2.611136  
    1797A      2.619603  1798A      2.620103  1799A      2.622977  
    1800A      2.625799  1801A      2.625993  1802A      2.627335  
    1803A      2.632201  1804A      2.632980  1805A      2.638862  
    1806A      2.639620  1807A      2.639860  1808A      2.641349  
    1809A      2.645521  1810A      2.645638  1811A      2.645908  
    1812A      2.646820  1813A      2.650378  1814A      2.651669  
    1815A      2.657993  1816A      2.664920  1817A      2.675730  
    1818A      2.677151  1819A      2.681830  1820A      2.685229  
    1821A      2.685348  1822A      2.686040  1823A      2.686620  
    1824A      2.687146  1825A      2.691627  1826A      2.707148  
    1827A      2.709681  1828A      2.713844  1829A      2.714153  
    1830A      2.725212  1831A      2.729105  1832A      2.733354  
    1833A      2.733924  1834A      2.741207  1835A      2.751719  
    1836A      2.752563  1837A      2.753590  1838A      2.754833  
    1839A      2.755954  1840A      2.756079  1841A      2.761670  
    1842A      2.763985  1843A      2.768221  1844A      2.768697  
    1845A      2.769838  1846A      2.770128  1847A      2.781351  
    1848A      2.781599  1849A      2.792174  1850A      2.794059  
    1851A      2.794283  1852A      2.795795  1853A      2.796104  
    1854A      2.799660  1855A      2.813603  1856A      2.819095  
    1857A      2.819269  1858A      2.824839  1859A      2.825624  
    1860A      2.828362  1861A      2.848892  1862A      2.849798  
    1863A      2.865482  1864A      2.873103  1865A      2.873245  
    1866A      2.882970  1867A      2.884992  1868A      2.889806  
    1869A      2.889972  1870A      2.917838  1871A      2.919995  
    1872A      2.920468  1873A      2.921535  1874A      2.931134  
    1875A      2.946522  1876A      2.947132  1877A      2.980015  
    1878A      2.983647  1879A      2.984200  1880A      2.990478  
    1881A      2.993748  1882A      3.001208  1883A      3.001948  
    1884A      3.003314  1885A      3.011575  1886A      3.011698  
    1887A      3.019466  1888A      3.027274  1889A      3.049950  
    1890A      3.063957  1891A      3.068096  1892A      3.068329  
    1893A      3.068722  1894A      3.076900  1895A      3.081003  
    1896A      3.081770  1897A      3.086929  1898A      3.088464  
    1899A      3.096964  1900A      3.098212  1901A      3.102369  
    1902A      3.103010  1903A      3.104503  1904A      3.105221  
    1905A      3.108906  1906A      3.117689  1907A      3.121407  
    1908A      3.128526  1909A      3.130322  1910A      3.130380  
    1911A      3.148363  1912A      3.149430  1913A      3.175805  
    1914A      3.208103  1915A      3.214687  1916A      3.214898  
    1917A      3.215533  1918A      3.216580  1919A      3.218820  
    1920A      3.222768  1921A      3.226128  1922A      3.229736  
    1923A      3.229882  1924A      3.247415  1925A      3.248097  
    1926A      3.248535  1927A      3.256744  1928A      3.314739  
    1929A      3.315832  1930A      3.323377  1931A      3.368960  
    1932A      3.383161  1933A      3.385167  1934A      3.390556  
    1935A      3.397867  1936A      3.401388  1937A      3.413510  
    1938A      3.417765  1939A      3.418585  1940A      3.424306  
    1941A      3.427242  1942A      3.434109  1943A      3.439461  
    1944A      3.443456  1945A      3.446623  1946A      3.462678  
    1947A      3.493493  1948A      3.528046  1949A      3.529684  
    1950A      3.531528  1951A      3.537275  1952A      3.544285  
    1953A      3.590418  1954A      3.590926  1955A      3.618533  
    1956A      3.620755  1957A      3.658746  1958A      3.700620  
    1959A      3.703674  1960A      3.704493  1961A      3.716313  
    1962A      3.732280  1963A      3.733254  1964A      3.796501  
    1965A      3.797632  1966A      3.825947  1967A      3.828964  
    1968A      3.858725  1969A      3.866730  1970A      3.891027  
    1971A      3.893489  1972A      3.902437  1973A      3.903483  
    1974A      3.912137  1975A      3.917203  1976A      3.924055  
    1977A      3.978112  1978A      3.980753  1979A      4.023571  
    1980A      4.180899  1981A      4.253856  1982A      4.344771  

    Final Occupation by Irrep:
              A 
    DOCC [   326 ]
    NA   [   326 ]
    NB   [   326 ]

  @DF-RHF Final Energy: -3953.64261640715722

   => Energetics <=

    Nuclear Repulsion Energy =          17434.5595596046732680
    One-Electron Energy =              -40084.6988762940527522
    Two-Electron Energy =               18696.4967002822231734
    Total Energy =                      -3953.6426164071563107

Computation Completed


Properties will be evaluated at   0.000000,   0.000000,   0.000000 [a0]

Properties computed using the SCF density matrix


 Multipole Moments:

 ------------------------------------------------------------------------------------
     Multipole            Electronic (a.u.)      Nuclear  (a.u.)        Total (a.u.)
 ------------------------------------------------------------------------------------

 L = 1.  Multiply by 2.5417464519 to convert [e a0] to [Debye]
 Dipole X            :         -0.0019795            0.0004804           -0.0014990
 Dipole Y            :         -0.0488176            0.0561130            0.0072954
 Dipole Z            :         39.1901265          -53.9872251          -14.7970985
 Magnitude           :                                                   14.7971004

 ------------------------------------------------------------------------------------

*** tstop() called on n2cn0565 at Sat Jan 27 01:44:28 2024
Module time:
	user time   =   26804.47 seconds =     446.74 minutes
	system time =    2023.29 seconds =      33.72 minutes
	total time  =       5431 seconds =      90.52 minutes
Total time:
	user time   =   26804.47 seconds =     446.74 minutes
	system time =    2023.29 seconds =      33.72 minutes
	total time  =       5431 seconds =      90.52 minutes

  //>>>>>>>>>>>>>>>>>>>>>>>>>>>>>>>>>>>//
  //            Monomer A HF           //
  //<<<<<<<<<<<<<<<<<<<<<<<<<<<<<<<<<<<//

   => Libint2 <=

    Primary   basis highest AM E, G, H:  5, 4, 3
    Auxiliary basis highest AM E, G, H:  6, 5, 4
    Onebody   basis highest AM E, G, H:  6, 5, 4
    Solid Harmonics ordering:            gaussian

*** tstart() called on n2cn0565
*** at Sat Jan 27 01:44:29 2024

   => Loading Basis Set <=

    Name: JUN-CC-PVDZ
    Role: ORBITAL
    Keyword: BASIS
    atoms 1-2, 4-5, 10, 17-34, 41-53, 56-70, 73-89, 92-104, 109-119, 122-130 entry C          line   164 file /opt/software/pc2/EB-SW/software/PSI4/1.9-foss-2022a/share/psi4/basis/jun-cc-pvdz.gbs 
    atoms 3, 6                                                               entry N          line   198 file /opt/software/pc2/EB-SW/software/PSI4/1.9-foss-2022a/share/psi4/basis/jun-cc-pvdz.gbs 
    atoms 7-9, 11-16, 35-40, 54-55, 71-72, 90-91, 105-108, 120-121, 131-136  entry H          line    36 file /opt/software/pc2/EB-SW/software/PSI4/1.9-foss-2022a/share/psi4/basis/jun-cc-pvdz.gbs 


         ---------------------------------------------------------
                                   SCF
               by Justin Turney, Rob Parrish, Andy Simmonett
                          and Daniel G. A. Smith
                              RHF Reference
                       16 Threads,  61035 MiB Core
         ---------------------------------------------------------

  ==> Geometry <==

    Molecular point group: c1
    Full point group: C1

    Geometry (in Angstrom), charge = 1, multiplicity = 1:

       Center              X                  Y                   Z               Mass       
    ------------   -----------------  -----------------  -----------------  -----------------
         C            0.680062820275    -0.008027535675    -9.714505842413    12.000000000000
         C           -0.680508179725    -0.005999535675    -9.714121842413    12.000000000000
         N           -1.085639179725    -0.005001535675    -8.395797842413    14.003074004430
[...]
    1576A      2.158377  1577A      2.158810  1578A      2.159302  
    1579A      2.159761  1580A      2.160163  1581A      2.162434  
    1582A      2.162809  1583A      2.171154  1584A      2.171384  
    1585A      2.179601  1586A      2.180781  1587A      2.181104  
    1588A      2.182220  1589A      2.184990  1590A      2.188349  
    1591A      2.188571  1592A      2.190480  1593A      2.191427  
    1594A      2.192023  1595A      2.192590  1596A      2.194941  
    1597A      2.196730  1598A      2.197817  1599A      2.200038  
    1600A      2.200318  1601A      2.200711  1602A      2.201239  
    1603A      2.202933  1604A      2.204096  1605A      2.205455  
    1606A      2.209020  1607A      2.212108  1608A      2.213608  
    1609A      2.213885  1610A      2.220146  1611A      2.222139  
    1612A      2.222682  1613A      2.224050  1614A      2.224682  
    1615A      2.224746  1616A      2.228766  1617A      2.232001  
    1618A      2.232221  1619A      2.232909  1620A      2.233103  
    1621A      2.238681  1622A      2.238791  1623A      2.239443  
    1624A      2.241338  1625A      2.247370  1626A      2.247724  
    1627A      2.248185  1628A      2.248611  1629A      2.260265  
    1630A      2.261454  1631A      2.263292  1632A      2.264831  
    1633A      2.266443  1634A      2.267028  1635A      2.269493  
    1636A      2.274504  1637A      2.275203  1638A      2.282778  
    1639A      2.284243  1640A      2.290143  1641A      2.290971  
    1642A      2.295886  1643A      2.296270  1644A      2.296766  
    1645A      2.303707  1646A      2.304118  1647A      2.309032  
    1648A      2.312291  1649A      2.314391  1650A      2.324421  
    1651A      2.324847  1652A      2.325174  1653A      2.327074  
    1654A      2.329363  1655A      2.330544  1656A      2.331061  
    1657A      2.332916  1658A      2.334183  1659A      2.335026  
    1660A      2.337077  1661A      2.338224  1662A      2.339632  
    1663A      2.341352  1664A      2.342143  1665A      2.342320  
    1666A      2.344785  1667A      2.345780  1668A      2.346304  
    1669A      2.349056  1670A      2.349402  1671A      2.367891  
    1672A      2.372189  1673A      2.372835  1674A      2.383564  
    1675A      2.383810  1676A      2.387932  1677A      2.390157  
    1678A      2.391621  1679A      2.392710  1680A      2.396883  
    1681A      2.418294  1682A      2.419461  1683A      2.423411  
    1684A      2.427502  1685A      2.431883  1686A      2.441084  
    1687A      2.441361  1688A      2.443114  1689A      2.446291  
    1690A      2.451996  1691A      2.453064  1692A      2.454356  
    1693A      2.464278  1694A      2.464322  1695A      2.467687  
    1696A      2.467999  1697A      2.468130  1698A      2.471903  
    1699A      2.472163  1700A      2.475055  1701A      2.490941  
    1702A      2.491302  1703A      2.494398  1704A      2.502389  
    1705A      2.504814  1706A      2.506222  1707A      2.506872  
    1708A      2.511438  1709A      2.516160  1710A      2.539051  
    1711A      2.539142  1712A      2.539993  1713A      2.542032  
    1714A      2.542633  1715A      2.544777  1716A      2.547487  
    1717A      2.548388  1718A      2.549103  1719A      2.551035  
    1720A      2.556518  1721A      2.556671  1722A      2.564195  
    1723A      2.571077  1724A      2.571482  1725A      2.575161  
    1726A      2.579962  1727A      2.583632  1728A      2.584165  
    1729A      2.585019  1730A      2.586219  1731A      2.588442  
    1732A      2.588856  1733A      2.593201  1734A      2.593494  
    1735A      2.601313  1736A      2.601420  1737A      2.612616  
    1738A      2.612828  1739A      2.613161  1740A      2.613678  
    1741A      2.616888  1742A      2.617192  1743A      2.631798  
    1744A      2.632675  1745A      2.640499  1746A      2.641368  
    1747A      2.643320  1748A      2.643803  1749A      2.645378  
    1750A      2.647283  1751A      2.648552  1752A      2.649144  
    1753A      2.649467  1754A      2.652725  1755A      2.655656  
    1756A      2.656040  1757A      2.657646  1758A      2.665965  
    1759A      2.666046  1760A      2.667530  1761A      2.670351  
    1762A      2.670517  1763A      2.672639  1764A      2.673546  
    1765A      2.677059  1766A      2.677510  1767A      2.684251  
    1768A      2.685476  1769A      2.686986  1770A      2.691081  
    1771A      2.691198  1772A      2.691538  1773A      2.692299  
    1774A      2.696023  1775A      2.697249  1776A      2.703955  
    1777A      2.720631  1778A      2.730626  1779A      2.730689  
    1780A      2.730870  1781A      2.731240  1782A      2.731784  
    1783A      2.735711  1784A      2.746760  1785A      2.752485  
    1786A      2.760497  1787A      2.760845  1788A      2.766308  
    1789A      2.772138  1790A      2.775741  1791A      2.779429  
    1792A      2.779971  1793A      2.799002  1794A      2.799853  
    1795A      2.801337  1796A      2.802163  1797A      2.802210  
    1798A      2.802954  1799A      2.808416  1800A      2.810829  
    1801A      2.814743  1802A      2.815207  1803A      2.815628  
    1804A      2.815895  1805A      2.827916  1806A      2.828149  
    1807A      2.834393  1808A      2.840103  1809A      2.840145  
    1810A      2.841529  1811A      2.841828  1812A      2.845180  
    1813A      2.859662  1814A      2.865133  1815A      2.865324  
    1816A      2.870255  1817A      2.871097  1818A      2.872939  
    1819A      2.874125  1820A      2.888682  1821A      2.895895  
    1822A      2.896782  1823A      2.907631  1824A      2.912464  
    1825A      2.917596  1826A      2.917729  1827A      2.922398  
    1828A      2.927403  1829A      2.929507  1830A      2.934689  
    1831A      2.934748  1832A      2.944859  1833A      2.962976  
    1834A      2.964741  1835A      2.965219  1836A      2.969486  
    1837A      2.976093  1838A      2.991551  1839A      2.992275  
    1840A      2.992728  1841A      3.004952  1842A      3.029299  
    1843A      3.029854  1844A      3.035293  1845A      3.036532  
    1846A      3.038498  1847A      3.046763  1848A      3.047393  
    1849A      3.047961  1850A      3.057472  1851A      3.057539  
    1852A      3.063165  1853A      3.072833  1854A      3.108471  
    1855A      3.112748  1856A      3.113069  1857A      3.122245  
    1858A      3.126773  1859A      3.127385  1860A      3.132310  
    1861A      3.133933  1862A      3.139943  1863A      3.141853  
    1864A      3.142971  1865A      3.148072  1866A      3.148564  
    1867A      3.149351  1868A      3.150000  1869A      3.153470  
    1870A      3.162089  1871A      3.167877  1872A      3.173119  
    1873A      3.174894  1874A      3.175035  1875A      3.193042  
    1876A      3.194094  1877A      3.220210  1878A      3.253321  
    1879A      3.259363  1880A      3.260749  1881A      3.261291  
    1882A      3.261911  1883A      3.264186  1884A      3.268028  
    1885A      3.271205  1886A      3.274987  1887A      3.275252  
    1888A      3.284616  1889A      3.292878  1890A      3.293802  
    1891A      3.294336  1892A      3.302029  1893A      3.303867  
    1894A      3.316406  1895A      3.360959  1896A      3.362009  
    1897A      3.369644  1898A      3.393625  1899A      3.415324  
    1900A      3.429524  1901A      3.431949  1902A      3.438681  
    1903A      3.445009  1904A      3.448661  1905A      3.460563  
    1906A      3.464361  1907A      3.465040  1908A      3.470706  
    1909A      3.473660  1910A      3.480519  1911A      3.486516  
    1912A      3.493261  1913A      3.509080  1914A      3.522105  
    1915A      3.540320  1916A      3.565590  1917A      3.574254  
    1918A      3.575931  1919A      3.583414  1920A      3.589849  
    1921A      3.636754  1922A      3.637203  1923A      3.643294  
    1924A      3.664514  1925A      3.666655  1926A      3.704925  
    1927A      3.747294  1928A      3.749101  1929A      3.750350  
    1930A      3.756070  1931A      3.763145  1932A      3.778579  
    1933A      3.779120  1934A      3.814224  1935A      3.841836  
    1936A      3.843267  1937A      3.866418  1938A      3.871426  
    1939A      3.874568  1940A      3.904519  1941A      3.912821  
    1942A      3.937863  1943A      3.940518  1944A      3.948179  
    1945A      3.949110  1946A      3.956940  1947A      3.958379  
    1948A      3.964413  1949A      3.970692  1950A      4.024606  
    1951A      4.027421  1952A      4.070692  1953A      4.203211  
    1954A      4.206471  1955A      4.228722  1956A      4.301903  
    1957A      4.338578  1958A      4.358255  1959A      4.392716  
    1960A      4.481810  1961A      4.732833  1962A      4.771004  
    1963A      4.827383  1964A      4.844305  1965A      4.933827  
    1966A      5.047907  1967A      5.054714  1968A      5.064044  
    1969A      5.108686  1970A      5.125603  1971A      5.389446  
    1972A      5.419377  1973A      5.730233  1974A      5.750939  
    1975A      6.065599  1976A     18.197120  1977A     18.451444  
    1978A     18.468807  1979A     18.556636  1980A     18.829259  
    1981A     25.337285  1982A     25.373232  

    Final Occupation by Irrep:
              A 
    DOCC [   300 ]
    NA   [   300 ]
    NB   [   300 ]

  @DF-RHF Final Energy: -3650.33783881696900

   => Energetics <=

    Nuclear Repulsion Energy =          15611.4211649754306563
    One-Electron Energy =              -36072.0819459014237509
    Two-Electron Energy =               16810.3229421090254618
    Total Energy =                      -3650.3378388169694517

Computation Completed


Properties will be evaluated at   0.000000,   0.000000,   0.000000 [a0]

Properties computed using the SCF density matrix


 Multipole Moments:

 ------------------------------------------------------------------------------------
     Multipole            Electronic (a.u.)      Nuclear  (a.u.)        Total (a.u.)
 ------------------------------------------------------------------------------------

 L = 1.  Multiply by 2.5417464519 to convert [e a0] to [Debye]
 Dipole X            :         -0.0010884            0.0002112           -0.0008773
 Dipole Y            :          0.0011011           -0.0013774           -0.0002763
 Dipole Z            :       -795.3022736          795.3019914           -0.0002822
 Magnitude           :                                                    0.0009620

 ------------------------------------------------------------------------------------

*** tstop() called on n2cn0565 at Sat Jan 27 03:13:28 2024
Module time:
	user time   =   19770.21 seconds =     329.50 minutes
	system time =    1743.79 seconds =      29.06 minutes
	total time  =       3441 seconds =      57.35 minutes
Total time:
	user time   =   52447.86 seconds =     874.13 minutes
	system time =    4303.90 seconds =      71.73 minutes
	total time  =      10771 seconds =     179.52 minutes
  Constructing Basis Sets for SAPT...

   => Loading Basis Set <=

    Name: (JUN-CC-PVDZ AUX)
    Role: RIFIT
    Keyword: DF_BASIS_SAPT
    atoms 1-2, 4-5, 10, 17-34, 41-53, 56-70, 73-89, 92-104, 109-119, 122-130 entry C          line   100 file /opt/software/pc2/EB-SW/software/PSI4/1.9-foss-2022a/share/psi4/basis/jun-cc-pvdz-ri.gbs 
    atoms 3, 6                                                               entry N          line   144 file /opt/software/pc2/EB-SW/software/PSI4/1.9-foss-2022a/share/psi4/basis/jun-cc-pvdz-ri.gbs 
    atoms 7-9, 11-16, 35-40, 54-55, 71-72, 90-91, 105-108, 120-121, 131-136  entry H          line    30 file /opt/software/pc2/EB-SW/software/PSI4/1.9-foss-2022a/share/psi4/basis/jun-cc-pvdz-ri.gbs 

   => Loading Basis Set <=

    Name: (JUN-CC-PVDZ AUX)
    Role: JKFIT
    Keyword: DF_BASIS_ELST
    atoms 1-2, 4-5, 10, 17-34, 41-53, 56-70, 73-89, 92-104, 109-119, 122-130 entry C          line   146 file /opt/software/pc2/EB-SW/software/PSI4/1.9-foss-2022a/share/psi4/basis/jun-cc-pvdz-jkfit.gbs 
    atoms 3, 6                                                               entry N          line   202 file /opt/software/pc2/EB-SW/software/PSI4/1.9-foss-2022a/share/psi4/basis/jun-cc-pvdz-jkfit.gbs 
    atoms 7-9, 11-16, 35-40, 54-55, 71-72, 90-91, 105-108, 120-121, 131-136  entry H          line    70 file /opt/software/pc2/EB-SW/software/PSI4/1.9-foss-2022a/share/psi4/basis/jun-cc-pvdz-jkfit.gbs 


  //>>>>>>>>>>>>>>>>>>>>>>>>>>>>>>>>>>>//
  //               SSAPT0              //
  //<<<<<<<<<<<<<<<<<<<<<<<<<<<<<<<<<<<//


*** tstart() called on n2cn0565
*** at Sat Jan 27 03:13:30 2024

        SAPT0  
    Ed Hohenstein
     6 June 2009

      Orbital Information
  --------------------------
    NSO        =      2019
    NMO        =      1982
    NRI        =      7157
    NRI (Elst) =      8896
    NOCC A     =        26
    NOCC B     =       300
    FOCC A     =         7
    FOCC B     =        96
    NVIR A     =      1956
    NVIR B     =      1682

    Elst10,r            =    -0.006075526368 [Eh]
    Exch10              =    -0.000000048669 [Eh]
    Exch10 (S^2)        =    -0.000000048669 [Eh]

    Iter     Energy [mEh]          dE [mEh]         Residual      Time [s]
       1      -0.00819071       0.008190709       0.859195335           333
       2      -0.00774559      -0.000445123       0.221766466           765
       3      -0.00851894       0.000773351       0.059908961          1192
       4      -0.00856323       0.000044293       0.027464355          1478
       5      -0.00852730      -0.000035933       0.007901450          1735
       6      -0.00852823       0.000000935       0.002713199          2027
       7      -0.00853100       0.000002769       0.000728033          2374
       8      -0.00853116       0.000000163       0.000239848          2764
       9      -0.00853105      -0.000000120       0.000073718          3147
      10      -0.00853101      -0.000000033       0.000022492          3418
      11      -0.00853102       0.000000004       0.000006007          3737
      12      -0.00853102       0.000000004       0.000001707          4018
      13      -0.00853102      -0.000000000       0.000000648          4393

    CHF Iterations converged


    Iter     Energy [mEh]          dE [mEh]         Residual      Time [s]
       1      -2.27680548       2.276805480      26.217973458           341
       2      -1.47776256      -0.799042917       2.964242022           697
       3      -1.47454580      -0.003216765       1.050436010          1148
       4      -1.50244947       0.027903671       0.311554981          1550
       5      -1.50562142       0.003171953       0.104998531          1853
       6      -1.50529639      -0.000325036       0.067522722          2179
       7      -1.50455564      -0.000740743       0.032560654          2692
       8      -1.50465091       0.000095265       0.020001043          3064
       9      -1.50484924       0.000198334       0.011493304          3385
      10      -1.50478503      -0.000064213       0.008762183          3711
      11      -1.50475558      -0.000029449       0.003872581          4075
      12      -1.50476051       0.000004927       0.001982694          4355
      13      -1.50476859       0.000008080       0.000963253          4627
      14      -1.50477013       0.000001547       0.000614103          4876
      15      -1.50476806      -0.000002074       0.000396996          5127
      16      -1.50476678      -0.000001281       0.000144317          5377
      17      -1.50476762       0.000000841       0.000045403          5644
      18      -1.50476771       0.000000084       0.000016167          5924
      19      -1.50476765      -0.000000055       0.000008433          6252
      20      -1.50476762      -0.000000027       0.000003289          6560
      21      -1.50476763       0.000000006       0.000001527          6912
      22      -1.50476763       0.000000005       0.000000802          7262

    CHF Iterations converged

    Ind20,r (A<-B)      =    -0.000008531019 [Eh]
    Ind20,r (B<-A)      =    -0.001504767635 [Eh]
    Ind20,r             =    -0.001513298654 [Eh]
    Exch-Ind20,r (A<-B) =     0.000000004032 [Eh]
    Exch-Ind20,r (B<-A) =     0.000000020203 [Eh]
    Exch-Ind20,r        =     0.000000024235 [Eh]
    Disp20              =    -0.000491178853 [Eh]
    Disp20 (SS)         =    -0.000245589427 [Eh]
    Disp20 (OS)         =    -0.000245589427 [Eh]
    Exch-Disp20         =     0.000000008799 [Eh]
    Exch-Disp20 (SS)    =     0.000000006552 [Eh]
    Exch-Disp20 (OS)    =     0.000000002247 [Eh]

    SAPT Results 
  --------------------------------------------------------------------------------------------------------
    Electrostatics                 -6.07552637 [mEh]      -3.81245035 [kcal/mol]     -15.95129228 [kJ/mol]
      Elst10,r                     -6.07552637 [mEh]      -3.81245035 [kcal/mol]     -15.95129228 [kJ/mol]

    Exchange                       -0.00004867 [mEh]      -0.00003054 [kcal/mol]      -0.00012778 [kJ/mol]
      Exch10                       -0.00004867 [mEh]      -0.00003054 [kcal/mol]      -0.00012778 [kJ/mol]
      Exch10(S^2)                  -0.00004867 [mEh]      -0.00003054 [kcal/mol]      -0.00012778 [kJ/mol]

    Induction                      -1.52714780 [mEh]      -0.95829971 [kcal/mol]      -4.00952600 [kJ/mol]
      Ind20,r                      -1.51329865 [mEh]      -0.94960924 [kcal/mol]      -3.97316507 [kJ/mol]
      Exch-Ind20,r                  0.00002423 [mEh]       0.00001521 [kcal/mol]       0.00006363 [kJ/mol]
      delta HF,r (2)               -0.01387338 [mEh]      -0.00870568 [kcal/mol]      -0.03642456 [kJ/mol]

    Dispersion                     -0.49117005 [mEh]      -0.30821386 [kcal/mol]      -1.28956680 [kJ/mol]
      Disp20                       -0.49117885 [mEh]      -0.30821938 [kcal/mol]      -1.28958990 [kJ/mol]
      Exch-Disp20                   0.00000880 [mEh]       0.00000552 [kcal/mol]       0.00002310 [kJ/mol]
      Disp20 (SS)                  -0.24558943 [mEh]      -0.15410969 [kcal/mol]      -0.64479495 [kJ/mol]
      Disp20 (OS)                  -0.24558943 [mEh]      -0.15410969 [kcal/mol]      -0.64479495 [kJ/mol]
      Exch-Disp20 (SS)              0.00000655 [mEh]       0.00000411 [kcal/mol]       0.00001720 [kJ/mol]
      Exch-Disp20 (OS)              0.00000225 [mEh]       0.00000141 [kcal/mol]       0.00000590 [kJ/mol]

  Total HF                         -7.60272284 [mEh]      -4.77078061 [kcal/mol]     -19.96094606 [kJ/mol]
  Total SAPT0                      -8.09389289 [mEh]      -5.07899447 [kcal/mol]     -21.25051286 [kJ/mol]

  Special recipe for scaled SAPT0 (see Manual):
    Electrostatics sSAPT0          -6.07552637 [mEh]      -3.81245035 [kcal/mol]     -15.95129228 [kJ/mol]
    Exchange sSAPT0                -0.00004867 [mEh]      -0.00003054 [kcal/mol]      -0.00012778 [kJ/mol]
    Induction sSAPT0               -1.52714780 [mEh]      -0.95829971 [kcal/mol]      -4.00952600 [kJ/mol]
    Dispersion sSAPT0              -0.49117005 [mEh]      -0.30821386 [kcal/mol]      -1.28956680 [kJ/mol]
  Total sSAPT0                     -8.09389289 [mEh]      -5.07899447 [kcal/mol]     -21.25051286 [kJ/mol]
  --------------------------------------------------------------------------------------------------------

*** tstop() called on n2cn0565 at Sat Jan 27 12:42:06 2024
Module time:
	user time   =   85018.72 seconds =    1416.98 minutes
	system time =    4212.76 seconds =      70.21 minutes
	total time  =      34116 seconds =     568.60 minutes
Total time:
	user time   =  137468.08 seconds =    2291.13 minutes
	system time =    8516.67 seconds =     141.94 minutes
	total time  =      44889 seconds =     748.15 minutes

    Psi4 stopped on: Saturday, 27 January 2024 12:42PM
    Psi4 wall time for execution: 12:28:10.36

*** Psi4 exiting successfully. Buy a developer a beer!
