
    -----------------------------------------------------------------------
          Psi4: An Open-Source Ab Initio Electronic Structure Package
                               Psi4 1.9 release

                         Git: Rev {} zzzzzzz 


    D. G. A. Smith, L. A. Burns, A. C. Simmonett, R. M. Parrish,
    M. C. Schieber, R. Galvelis, P. Kraus, H. Kruse, R. Di Remigio,
    A. Alenaizan, A. M. James, S. Lehtola, J. P. Misiewicz, M. Scheurer,
    R. A. Shaw, J. B. Schriber, Y. Xie, Z. L. Glick, D. A. Sirianni,
    J. S. O'Brien, J. M. Waldrop, A. Kumar, E. G. Hohenstein,
    B. P. Pritchard, B. R. Brooks, H. F. Schaefer III, A. Yu. Sokolov,
    K. Patkowski, A. E. DePrince III, U. Bozkaya, R. A. King,
    F. A. Evangelista, J. M. Turney, T. D. Crawford, C. D. Sherrill,
    J. Chem. Phys. 152(18) 184108 (2020). https://doi.org/10.1063/5.0006002

                            Additional Code Authors
    E. T. Seidl, C. L. Janssen, E. F. Valeev, M. L. Leininger,
    J. F. Gonthier, R. M. Richard, H. R. McAlexander, M. Saitow, X. Wang,
    P. Verma, M. H. Lechner, A. Jiang, S. Behnle, A. G. Heide,
    M. F. Herbst, and D. L. Poole

             Previous Authors, Complete List of Code Contributors,
                       and Citations for Specific Modules
    https://github.com/psi4/psi4/blob/master/codemeta.json
    https://github.com/psi4/psi4/graphs/contributors
    http://psicode.org/psi4manual/master/introduction.html#citing-psifour

    -----------------------------------------------------------------------


    Psi4 started on: Saturday, 10 February 2024 12:44PM

    Process ID: 2189575
    Host:       n2cn1191
    PSIDATADIR: /opt/software/pc2/EB-SW/software/PSI4/1.9-foss-2022a/share/psi4
    Memory:     500.0 MiB
    Threads:    16
    
  ==> Input File <==

--------------------------------------------------------------------------
memory 48 GB # how much memory is available ! Depends on the nodes/cores !

molecule dimer {
# monomer A
+1 1    # Charge and multiplicity
C  0.680067 -0.008042 -4.915929
C -0.680504 -0.006014 -4.915545
N -1.085635 -0.005016 -3.597221
C  0.000108 -0.001740 -2.815820
C -2.477365  0.044390 -3.129242
N  1.085222 -0.005016 -3.597221
H  1.385146 -0.015870 -5.733368
H -1.385302 -0.006204 -5.733214
H -0.000009  0.000007 -1.734731
C  2.478117 -0.021908 -3.132123
H  2.490592  0.005437 -2.041870
H  2.967028 -0.935354 -3.479299
H  3.001428  0.853575 -3.523595
H -2.857359  1.066461 -3.209201
H -3.082679 -0.625694 -3.742306
H -2.518128 -0.282594 -2.089294
--
# monomer B
0 1     # Charge and multiplicity
C   1.22531237526482      0.70753866091955      0.00613762728373
C   1.22532433589282     -0.70753852257020     -0.00619318228664
C   -0.00000567409046      1.41496628609039     -0.00672680580738
C   2.45644923379077      1.41832825917820      0.00902448468363
C   0.00001130712078     -1.41497612663474      0.00347275151708
C   -1.22530046906674      0.70754574598412      0.00838914760619
C   2.45643823516184     -1.41832293188077     -0.00843833914343
C   -0.00000085313587      2.83680140328112     -0.00913035594137
C   3.68182717731192      0.70931832800114     -0.00808954934571
C   2.45512052870677      2.83422403348893     -0.00819210630633
C   3.68182158506039     -0.70933346742900      0.00798293467272
C   -1.22531311884624     -0.70752714354401     -0.00512042085974
C   1.22670006104402      3.54346985599427      0.00816696660346
C   0.00000526469929     -2.83678176723568      0.00832091913869
C   -2.45643555300670      1.41831729028492      0.00842454345199
C   2.45512389762097     -2.83422965658853      0.00783102630520
C   -1.22671388474763      3.54346943575023      0.00827029982280
C   4.91451777504333      1.42717324448953     -0.00160886631602
C   3.69315067131765      3.54279566454522     -0.00155906667985
C   -2.45643712022637     -1.41831290883911     -0.00846337726810
C   1.22670532178455     -3.54347386990643     -0.00780316414624
C   -2.45512491866593      2.83421703463423     -0.00818572995999
C   4.91452486062398     -1.42718653794377      0.00136387641845
C   1.22142509354026      4.97013443726031      0.00150231067809
C   4.89300870916237      2.82518837202648     -0.00039219795739
C   -1.22669652864725     -3.54347062507680     -0.00753595973677
C   -3.68181849668397      0.70932533873199     -0.00807686886569
C   3.69314758099218     -3.54280096939050      0.00148176697923
C   -1.22143177215231      4.97012866986289      0.00168580605083
C   6.13477145276790      0.68054831910577     -0.00083909176631
C   3.65678936045204      4.97295361556775     -0.00065042889723
C   -2.45512642789169     -2.83421472106065      0.00758666850712
C   -3.68181869921921     -0.70932533146830      0.00810055625144
C   4.89301309775526     -2.82519973363176      0.00021895393805
C   -0.00000059327114      5.65044773803267      0.00045449734393
C   6.13477559217374     -0.68055448207492      0.00042622874941
C   2.47813196269732      5.65357712333155      0.00063835075260
C   1.22142288457925     -4.97012668293268     -0.00129718634452
C   -3.69316190412301      3.54279732619245     -0.00139355922051
C   -1.22142804110313     -4.97011793159564     -0.00140994817719
C   -4.91452132810043      1.42717581899491     -0.00153192130862
C   3.65678749952045     -4.97295485423912      0.00080007163680
C   -2.47813805026426      5.65357479452875      0.00092287576113
C   -3.69314125872231     -3.54278984697859      0.00136564082345
C   -4.91451200321153     -1.42718062802730      0.00139857359209
C   -0.00000552908399     -5.65043791501335      0.00005899322272
C   -4.89302000425900      2.82518897091939     -0.00040227981744
C   2.47812647313991     -5.65357317188818     -0.00029052915548
C   -3.65679823041642      4.97295655404175     -0.00047374852278
C   -4.89299899901461     -2.82519139505969      0.00006491824035
C   -2.47812801824129     -5.65356579800621     -0.00056571680280
C   -6.13477002348955      0.68054913825639     -0.00086464346868
C   -3.65678835334731     -4.97294365097028      0.00058578382008
C   -6.13476456307132     -0.68055354348201      0.00040575295444
H   5.83528897565761      3.36927626695423      0.00396712770529
H   7.07385965258860      1.22821762089947     -0.00037744837300
H   4.60066374401555      5.51238117445323     -0.00014522814529
H   5.83528386714679     -3.36930568472863     -0.00423551337640
H   -0.00001167146422      6.73853104613662     -0.00389474766392
H   7.07386165167227     -1.22822657074368     -0.00008250934481
H   2.47331421164041      6.74068466339473      0.00017162982210
H   4.60066897122302     -5.51237575717576      0.00039007446835
H   -2.47331820069565      6.74068209160650      0.00047297644710
H   -0.00000978838621     -6.73852780445195      0.00458867820736
H   -5.83530143450167      3.36927132229595      0.00410314985360
H   2.47330840367253     -6.74068500242887      0.00027980126949
H   -4.60067436136587      5.51237839860371      0.00002010017831
H   -5.83527902699321     -3.36928859177951     -0.00451481925734
H   -2.47329986759855     -6.74067870613986     -0.00016951527498
H   -7.07385728692578      1.22822084484047     -0.00046143985387
H   -4.60067330624313     -5.51236229778631      0.00021776644566
H   -7.07385645456741     -1.22822025997701     -0.00017736581114

    units angstrom      # Angstroms are the default
    no_reorient         # Geometry fixed, default
    symmetry c1         # C1 symmetry, default
}

set {
    scf_type DF         # Density fitting, faster than exact integrals
    freeze_core True    # Freeze core electrons
    basis jun-cc-pVDZ   # Jun-cc-pVDZ basis set, recommended for sSAPT0 in https://doi.org/10.1063/1.4867135
}

energy('ssapt0')        # Compute sSAPT0 energy, includes also SAPT0
--------------------------------------------------------------------------

  Memory set to  44.703 GiB by Python driver.

Scratch directory: /tmp/
   => Loading Basis Set <=

    Name: JUN-CC-PVDZ
    Role: ORBITAL
    Keyword: BASIS
    atoms 1-2, 4-5, 10, 17-70 entry C          line   164 file /opt/software/pc2/EB-SW/software/PSI4/1.9-foss-2022a/share/psi4/basis/jun-cc-pvdz.gbs 
    atoms 3, 6                entry N          line   198 file /opt/software/pc2/EB-SW/software/PSI4/1.9-foss-2022a/share/psi4/basis/jun-cc-pvdz.gbs 
    atoms 7-9, 11-16, 71-88   entry H          line    36 file /opt/software/pc2/EB-SW/software/PSI4/1.9-foss-2022a/share/psi4/basis/jun-cc-pvdz.gbs 

   => Loading Basis Set <=

    Name: JUN-CC-PVDZ
    Role: ORBITAL
    Keyword: BASIS
    atoms 1-2, 4-5, 10, 17-70 entry C          line   164 file /opt/software/pc2/EB-SW/software/PSI4/1.9-foss-2022a/share/psi4/basis/jun-cc-pvdz.gbs 
    atoms 3, 6                entry N          line   198 file /opt/software/pc2/EB-SW/software/PSI4/1.9-foss-2022a/share/psi4/basis/jun-cc-pvdz.gbs 
    atoms 7-9, 11-16, 71-88   entry H          line    36 file /opt/software/pc2/EB-SW/software/PSI4/1.9-foss-2022a/share/psi4/basis/jun-cc-pvdz.gbs 


  //>>>>>>>>>>>>>>>>>>>>>>>>>>>>>>>>>>>//
  //              Dimer HF             //
  //<<<<<<<<<<<<<<<<<<<<<<<<<<<<<<<<<<<//

   => Libint2 <=

    Primary   basis highest AM E, G, H:  5, 4, 3
    Auxiliary basis highest AM E, G, H:  6, 5, 4
    Onebody   basis highest AM E, G, H:  6, 5, 4
    Solid Harmonics ordering:            gaussian

*** tstart() called on n2cn1191
*** at Sat Feb 10 12:44:50 2024

   => Loading Basis Set <=

    Name: JUN-CC-PVDZ
    Role: ORBITAL
    Keyword: BASIS
    atoms 1-2, 4-5, 10, 17-70 entry C          line   164 file /opt/software/pc2/EB-SW/software/PSI4/1.9-foss-2022a/share/psi4/basis/jun-cc-pvdz.gbs 
    atoms 3, 6                entry N          line   198 file /opt/software/pc2/EB-SW/software/PSI4/1.9-foss-2022a/share/psi4/basis/jun-cc-pvdz.gbs 
    atoms 7-9, 11-16, 71-88   entry H          line    36 file /opt/software/pc2/EB-SW/software/PSI4/1.9-foss-2022a/share/psi4/basis/jun-cc-pvdz.gbs 


         ---------------------------------------------------------
                                   SCF
               by Justin Turney, Rob Parrish, Andy Simmonett
                          and Daniel G. A. Smith
                              RHF Reference
                       16 Threads,  45776 MiB Core
         ---------------------------------------------------------

  ==> Geometry <==

    Molecular point group: c1
    Full point group: C1

    Geometry (in Angstrom), charge = 1, multiplicity = 1:

       Center              X                  Y                   Z               Mass       
    ------------   -----------------  -----------------  -----------------  -----------------
         C            0.680066520158    -0.008042372515    -4.445313972050    12.000000000000
         C           -0.680504479842    -0.006014372515    -4.444929972050    12.000000000000
         N           -1.085635479842    -0.005016372515    -3.126605972050    14.003074004430
         C            0.000107520158    -0.001740372515    -2.345204972050    12.000000000000
         C           -2.477365479842     0.044389627485    -2.658626972050    12.000000000000
         N            1.085221520158    -0.005016372515    -3.126605972050    14.003074004430
         H            1.385145520158    -0.015870372515    -5.262752972050     1.007825032230
         H           -1.385302479842    -0.006204372515    -5.262598972050     1.007825032230
         H           -0.000009479842     0.000006627485    -1.264115972050     1.007825032230
         C            2.478116520158    -0.021908372515    -2.661507972050    12.000000000000
         H            2.490591520158     0.005436627485    -1.571254972050     1.007825032230
         H            2.967027520158    -0.935354372515    -3.008683972050     1.007825032230
         H            3.001427520158     0.853574627485    -3.052979972050     1.007825032230
         H           -2.857359479842     1.066460627485    -2.738585972050     1.007825032230
         H           -3.082679479842    -0.625694372515    -3.271690972050     1.007825032230
         H           -2.518128479842    -0.282594372515    -1.618678972050     1.007825032230
         C            1.225311895423     0.707538288405     0.476752655233    12.000000000000
         C            1.225323856051    -0.707538895085     0.464421845663    12.000000000000
         C           -0.000006153932     1.414965913575     0.463888222142    12.000000000000
         C            2.456448753949     1.418327886663     0.479639512633    12.000000000000
         C            0.000010827279    -1.414976499150     0.474087779467    12.000000000000
         C           -1.225300948908     0.707545373469     0.479004175556    12.000000000000
         C            2.456437755320    -1.418323304396     0.462176688806    12.000000000000
         C           -0.000001332978     2.836801030766     0.461484672008    12.000000000000
         C            3.681826697470     0.709317955486     0.462525478604    12.000000000000
         C            2.455120048865     2.834223660974     0.462422921643    12.000000000000
         C            3.681821105219    -0.709333839944     0.478597962622    12.000000000000
         C           -1.225313598688    -0.707527516059     0.465494607090    12.000000000000
         C            1.226699581202     3.543469483479     0.478781994553    12.000000000000
         C            0.000004784858    -2.836782139751     0.478935947088    12.000000000000
         C           -2.456436032848     1.418316917770     0.479039571402    12.000000000000
         C            2.455123417779    -2.834230029103     0.478446054255    12.000000000000
         C           -1.226714364589     3.543469063235     0.478885327773    12.000000000000
         C            4.914517295202     1.427172871975     0.469006161634    12.000000000000
         C            3.693150191476     3.542795292030     0.469055961270    12.000000000000
         C           -2.456437600068    -1.418313281354     0.462151650682    12.000000000000
         C            1.226704841943    -3.543474242421     0.462811863803    12.000000000000
         C           -2.455125398508     2.834216662119     0.462429297990    12.000000000000
         C            4.914524380782    -1.427186910459     0.471978904368    12.000000000000
         C            1.221424613699     4.970134064745     0.472117338628    12.000000000000
         C            4.893008229321     2.825187999512     0.470222829992    12.000000000000
         C           -1.226697008489    -3.543470997592     0.463079068213    12.000000000000
         C           -3.681818976526     0.709324966217     0.462538159084    12.000000000000
         C            3.693147101150    -3.542801341905     0.472096794929    12.000000000000
         C           -1.221432251994     4.970128297348     0.472300834001    12.000000000000
         C            6.134770972926     0.680547946591     0.469775936183    12.000000000000
         C            3.656788880610     4.972953243053     0.469964599052    12.000000000000
         C           -2.455126907733    -2.834215093576     0.478201696457    12.000000000000
         C           -3.681819179061    -0.709325703983     0.478715584201    12.000000000000
         C            4.893012617914    -2.825200106147     0.470833981888    12.000000000000
         C           -0.000001073113     5.650447365518     0.471069525294    12.000000000000
         C            6.134775112332    -0.680554854590     0.471041256699    12.000000000000
         C            2.478131482856     5.653576750817     0.471253378702    12.000000000000
         C            1.221422404738    -4.970127055448     0.469317841605    12.000000000000
         C           -3.693162383965     3.542796953677     0.469221468729    12.000000000000
         C           -1.221428520945    -4.970118304111     0.469205079773    12.000000000000
         C           -4.914521807942     1.427175446480     0.469083106641    12.000000000000
         C            3.656787019679    -4.972955226754     0.471415099587    12.000000000000
         C           -2.478138530106     5.653574422014     0.471537903711    12.000000000000
         C           -3.693141738564    -3.542790219494     0.471980668773    12.000000000000
         C           -4.914512483053    -1.427181000542     0.472013601542    12.000000000000
         C           -0.000006008926    -5.650438287528     0.470674021172    12.000000000000
         C           -4.893020484101     2.825188598404     0.470212748132    12.000000000000
         C            2.478125993298    -5.653573544403     0.470324498794    12.000000000000
         C           -3.656798710258     4.972956181527     0.470141279427    12.000000000000
         C           -4.892999478856    -2.825191767575     0.470679946190    12.000000000000
         C           -2.478128498083    -5.653566170521     0.470049311147    12.000000000000
         C           -6.134770503331     0.680548765741     0.469750384481    12.000000000000
         C           -3.656788833189    -4.972944023485     0.471200811770    12.000000000000
         C           -6.134765042913    -0.680553915997     0.471020780904    12.000000000000
         H            5.835288495816     3.369275894439     0.474582155655     1.007825032230
         H            7.073859172747     1.228217248385     0.470237579577     1.007825032230
         H            4.600663264174     5.512380801938     0.470469799804     1.007825032230
         H            5.835283387305    -3.369306057244     0.466379514573     1.007825032230
         H           -0.000012151306     6.738530673622     0.466720280286     1.007825032230
         H            7.073861171831    -1.228226943259     0.470532518605     1.007825032230
         H            2.473313731799     6.740684290880     0.470786657772     1.007825032230
         H            4.600668491381    -5.512376129691     0.471005102418     1.007825032230
         H           -2.473318680537     6.740681719092     0.471088004397     1.007825032230
         H           -0.000010268228    -6.738528176967     0.475203706157     1.007825032230
         H           -5.835301914343     3.369270949781     0.474718177803     1.007825032230
         H            2.473307923831    -6.740685374944     0.470894829219     1.007825032230
         H           -4.600674841208     5.512378026089     0.470635128128     1.007825032230
         H           -5.835279506835    -3.369288964294     0.466100208692     1.007825032230
         H           -2.473300347440    -6.740679078655     0.470445512675     1.007825032230
         H           -7.073857766768     1.228220472326     0.470153588096     1.007825032230
         H           -4.600673786085    -5.512362670301     0.470832794395     1.007825032230
         H           -7.073856934409    -1.228220632492     0.470437662139     1.007825032230

  Running in c1 symmetry.

  Rotational constants: A =      0.00191  B =      0.00186  C =      0.00109 [cm^-1]
  Rotational constants: A =     57.19481  B =     55.68665  C =     32.71081 [MHz]
  Nuclear repulsion = 8417.261022608132407

  Charge       = 1
  Multiplicity = 1
  Electrons    = 394
  Nalpha       = 197
  Nbeta        = 197

  ==> Algorithm <==

  SCF Algorithm Type is DF.
  DIIS enabled.
  MOM disabled.
  Fractional occupation disabled.
  Guess Type is SAD.
  Energy threshold   = 1.00e-08
  Density threshold  = 1.00e-08
  Integral threshold = 1.00e-12

  ==> Primary Basis <==

  Basis Set: JUN-CC-PVDZ
    Blend: JUN-CC-PVDZ
    Number of shells: 569
    Number of basis functions: 1233
    Number of Cartesian functions: 1294
    Spherical Harmonics?: true
    Max angular momentum: 2

   => Loading Basis Set <=

    Name: (JUN-CC-PVDZ AUX)
    Role: JKFIT
    Keyword: DF_BASIS_SCF
    atoms 1-2, 4-5, 10, 17-70 entry C          line   146 file /opt/software/pc2/EB-SW/software/PSI4/1.9-foss-2022a/share/psi4/basis/jun-cc-pvdz-jkfit.gbs 
    atoms 3, 6                entry N          line   202 file /opt/software/pc2/EB-SW/software/PSI4/1.9-foss-2022a/share/psi4/basis/jun-cc-pvdz-jkfit.gbs 
    atoms 7-9, 11-16, 71-88   entry H          line    70 file /opt/software/pc2/EB-SW/software/PSI4/1.9-foss-2022a/share/psi4/basis/jun-cc-pvdz-jkfit.gbs 

  ==> Integral Setup <==

  ==> DiskDFJK: Density-Fitted J/K Matrices <==

    J tasked:                  Yes
    K tasked:                  Yes
    wK tasked:                  No
    OpenMP threads:             16
    Integrals threads:          16
    Memory [MiB]:            34332
    Algorithm:                Core
    Integral Cache:           SAVE
    Schwarz Cutoff:          1E-12
    Fitting Condition:       1E-10

   => Auxiliary Basis Set <=

  Basis Set: (JUN-CC-PVDZ AUX)
    Blend: JUN-CC-PVDZ-JKFIT
    Number of shells: 1890
    Number of basis functions: 5440
    Number of Cartesian functions: 6226
    Spherical Harmonics?: true
    Max angular momentum: 3

  Minimum eigenvalue in the overlap matrix is 3.2755893196E-10.
  Reciprocal condition number of the overlap matrix is 1.2809512637E-11.
    Using canonical orthogonalization.
  Overall, 14 of 1233 possible MOs eliminated.


  ==> Pre-Iterations <==

  SCF Guess: Superposition of Atomic Densities via on-the-fly atomic UHF (no occupation information).

   -------------------------
    Irrep   Nso     Nmo    
   -------------------------
     A       1233    1219 
   -------------------------
    Total    1233    1219
   -------------------------

  ==> Iterations <==

                           Total Energy        Delta E     RMS |[F,P]|

   @DF-RHF iter SAD: -2366.36142853726142   -2.36636e+03   0.00000e+00 
   @DF-RHF iter   1: -2358.19492888378045    8.16650e+00   9.39963e-04 DIIS/ADIIS
   @DF-RHF iter   2: -2359.08196922773914   -8.87040e-01   3.14283e-04 DIIS/ADIIS
   @DF-RHF iter   3: -2359.16814053679900   -8.61713e-02   1.20817e-04 DIIS/ADIIS
   @DF-RHF iter   4: -2359.18123454593388   -1.30940e-02   4.60573e-05 DIIS
   @DF-RHF iter   5: -2359.18319694674892   -1.96240e-03   1.07454e-05 DIIS
   @DF-RHF iter   6: -2359.18338866082740   -1.91714e-04   5.86622e-06 DIIS
   @DF-RHF iter   7: -2359.18346815790983   -7.94971e-05   2.56358e-06 DIIS
   @DF-RHF iter   8: -2359.18349231951333   -2.41616e-05   1.20036e-06 DIIS
   @DF-RHF iter   9: -2359.18349835302479   -6.03351e-06   2.99650e-07 DIIS
   @DF-RHF iter  10: -2359.18349862125478   -2.68230e-07   1.14883e-07 DIIS
   @DF-RHF iter  11: -2359.18349864407492   -2.28201e-08   4.62416e-08 DIIS
   @DF-RHF iter  12: -2359.18349864880838   -4.73347e-09   2.31588e-08 DIIS
   @DF-RHF iter  13: -2359.18349864996617   -1.15779e-09   6.22506e-09 DIIS
  Energy and wave function converged.


  ==> Post-Iterations <==

    Orbital Energies [Eh]
    ---------------------

    Doubly Occupied:                                                      

       1A    -15.782042     2A    -15.781639     3A    -11.470284  
       4A    -11.414700     5A    -11.413146     6A    -11.397747  
       7A    -11.397728     8A    -11.357182     9A    -11.356819  
      10A    -11.356532    11A    -11.355696    12A    -11.355347  
      13A    -11.354945    14A    -11.349118    15A    -11.349086  
      16A    -11.348988    17A    -11.348960    18A    -11.347333  
      19A    -11.347160    20A    -11.345941    21A    -11.345941  
      22A    -11.344958    23A    -11.344909    24A    -11.344723  
      25A    -11.344462    26A    -11.344451    27A    -11.344315  
      28A    -11.343102    29A    -11.342998    30A    -11.342956  
      31A    -11.342869    32A    -11.342272    33A    -11.342255  
      34A    -11.342214    35A    -11.342197    36A    -11.341420  
      37A    -11.341402    38A    -11.341363    39A    -11.341342  
      40A    -11.340088    41A    -11.339999    42A    -11.339964  
      43A    -11.339873    44A    -11.334895    45A    -11.334705  
      46A    -11.334638    47A    -11.334590    48A    -11.333105  
      49A    -11.332978    50A    -11.331689    51A    -11.331676  
      52A    -11.330251    53A    -11.330239    54A    -11.329933  
      55A    -11.329931    56A    -11.329930    57A    -11.329878  
      58A    -11.328459    59A    -11.328456    60A    -11.328437  
      61A    -11.328389    62A     -1.527537    63A     -1.383181  
      64A     -1.338466    65A     -1.308973    66A     -1.306532  
      67A     -1.275194    68A     -1.274630    69A     -1.272232  
      70A     -1.240666    71A     -1.233527    72A     -1.225184  
      73A     -1.223112    74A     -1.195985    75A     -1.195946  
      76A     -1.190617    77A     -1.170036    78A     -1.168699  
      79A     -1.166648    80A     -1.148212    81A     -1.148194  
      82A     -1.138866    83A     -1.123462    84A     -1.112040  
      85A     -1.112019    86A     -1.110581    87A     -1.100080  
      88A     -1.094625    89A     -1.072712    90A     -1.072542  
      91A     -1.070442    92A     -1.045153    93A     -1.044926  
      94A     -0.979766    95A     -0.979519    96A     -0.978841  
      97A     -0.973757    98A     -0.972673    99A     -0.972430  
     100A     -0.967315   101A     -0.967129   102A     -0.949201  
     103A     -0.945019   104A     -0.917695   105A     -0.903325  
     106A     -0.901538   107A     -0.898582   108A     -0.897693  
     109A     -0.877029   110A     -0.876640   111A     -0.870071  
     112A     -0.833550   113A     -0.831120   114A     -0.820041  
     115A     -0.819513   116A     -0.814490   117A     -0.814480  
     118A     -0.802660   119A     -0.801426   120A     -0.782565  
     121A     -0.781699   122A     -0.778431   123A     -0.777591  
     124A     -0.772595   125A     -0.771381   126A     -0.743191  
     127A     -0.742771   128A     -0.739290   129A     -0.738598  
     130A     -0.737930   131A     -0.737262   132A     -0.732250  
     133A     -0.732159   134A     -0.722120   135A     -0.721506  
     136A     -0.714499   137A     -0.712709   138A     -0.712641  
     139A     -0.710620   140A     -0.693076   141A     -0.686663  
     142A     -0.683790   143A     -0.682494   144A     -0.681619  
     145A     -0.678660   146A     -0.678027   147A     -0.677966  
     148A     -0.670347   149A     -0.665735   150A     -0.664985  
     151A     -0.662716   152A     -0.652672   153A     -0.651982  
     154A     -0.650120   155A     -0.648046   156A     -0.647956  
     157A     -0.643890   158A     -0.636519   159A     -0.636112  
     160A     -0.623105   161A     -0.621080   162A     -0.620344  
     163A     -0.620179   164A     -0.613087   165A     -0.608682  
     166A     -0.606028   167A     -0.605287   168A     -0.581513  
     169A     -0.577762   170A     -0.575193   171A     -0.571778  
     172A     -0.569451   173A     -0.565390   174A     -0.565150  
     175A     -0.560136   176A     -0.557403   177A     -0.548466  
     178A     -0.537944   179A     -0.537400   180A     -0.520926  
     181A     -0.520831   182A     -0.491468   183A     -0.489784  
     184A     -0.488178   185A     -0.478162   186A     -0.456402  
     187A     -0.456115   188A     -0.434734   189A     -0.430724  
     190A     -0.428712   191A     -0.428067   192A     -0.393195  
     193A     -0.377369   194A     -0.372236   195A     -0.371966  
     196A     -0.310024   197A     -0.309167  

    Virtual:                                                              

     198A     -0.070843   199A     -0.070437   200A     -0.033510  
     201A     -0.026938   202A     -0.025166   203A     -0.022848  
     204A     -0.020778   205A     -0.016336   206A     -0.010651  
     207A     -0.010535   208A     -0.009585   209A     -0.007093  
     210A     -0.005128   211A     -0.000851   212A     -0.000737  
     213A      0.000019   214A      0.001672   215A      0.003411  
     216A      0.004305   217A      0.007775   218A      0.008565  
     219A      0.008937   220A      0.013885   221A      0.015102  
     222A      0.016389   223A      0.016476   224A      0.019831  
     225A      0.021767   226A      0.026511   227A      0.031929  
     228A      0.031962   229A      0.034678   230A      0.035976  
     231A      0.036534   232A      0.037445   233A      0.040666  
     234A      0.041257   235A      0.041343   236A      0.044377  
     237A      0.045099   238A      0.048080   239A      0.048265  
     240A      0.051603   241A      0.051981   242A      0.058108  
     243A      0.059915   244A      0.065198   245A      0.066699  
     246A      0.068568   247A      0.070724   248A      0.073558  
     249A      0.074010   250A      0.074385   251A      0.075235  
     252A      0.077112   253A      0.082409   254A      0.083178  
     255A      0.083797   256A      0.084385   257A      0.085603  
     258A      0.088719   259A      0.095771   260A      0.096944  
     261A      0.097942   262A      0.100748   263A      0.101129  
     264A      0.101715   265A      0.103323   266A      0.104620  
     267A      0.106386   268A      0.107513   269A      0.112665  
     270A      0.113420   271A      0.114855   272A      0.118350  
     273A      0.118588   274A      0.118789   275A      0.120675  
     276A      0.123586   277A      0.124443   278A      0.126499  
     279A      0.130523   280A      0.136289   281A      0.137599  
     282A      0.140360   283A      0.141402   284A      0.142193  
     285A      0.144574   286A      0.145532   287A      0.146485  
     288A      0.146909   289A      0.147863   290A      0.148241  
     291A      0.149227   292A      0.150048   293A      0.150901  
     294A      0.153221   295A      0.154068   296A      0.155113  
     297A      0.156861   298A      0.159504   299A      0.159697  
     300A      0.161975   301A      0.162883   302A      0.164785  
     303A      0.165252   304A      0.166035   305A      0.167606  
     306A      0.168055   307A      0.172756   308A      0.175169  
     309A      0.176584   310A      0.178763   311A      0.178918  
     312A      0.180608   313A      0.183413   314A      0.185259  
     315A      0.185720   316A      0.187300   317A      0.188242  
     318A      0.189661   319A      0.189953   320A      0.191612  
     321A      0.193671   322A      0.193742   323A      0.195556  
     324A      0.195803   325A      0.198232   326A      0.199430  
     327A      0.200985   328A      0.204007   329A      0.204270  
     330A      0.204787   331A      0.207080   332A      0.209238  
     333A      0.210452   334A      0.214428   335A      0.215394  
     336A      0.217393   337A      0.220049   338A      0.223611  
     339A      0.227493   340A      0.229748   341A      0.230328  
     342A      0.232175   343A      0.235509   344A      0.236363  
     345A      0.236902   346A      0.238539   347A      0.238954  
     348A      0.239503   349A      0.240550   350A      0.241269  
     351A      0.242034   352A      0.242145   353A      0.242222  
     354A      0.244312   355A      0.245275   356A      0.246180  
     357A      0.246426   358A      0.248537   359A      0.250715  
     360A      0.251670   361A      0.253687   362A      0.256659  
     363A      0.257482   364A      0.258417   365A      0.260234  
     366A      0.261705   367A      0.262297   368A      0.264727  
     369A      0.264828   370A      0.267076   371A      0.269006  
     372A      0.271380   373A      0.272891   374A      0.274945  
     375A      0.275826   376A      0.277853   377A      0.280519  
     378A      0.280696   379A      0.282081   380A      0.283381  
     381A      0.286338   382A      0.286922   383A      0.287943  
     384A      0.290743   385A      0.291940   386A      0.292330  
     387A      0.294290   388A      0.294612   389A      0.295419  
     390A      0.299534   391A      0.301548   392A      0.303437  
     393A      0.304430   394A      0.305278   395A      0.306842  
     396A      0.307800   397A      0.309106   398A      0.309902  
     399A      0.312870   400A      0.313951   401A      0.314979  
     402A      0.315660   403A      0.315859   404A      0.319252  
     405A      0.320265   406A      0.322511   407A      0.323690  
     408A      0.325210   409A      0.327474   410A      0.328623  
     411A      0.330692   412A      0.331320   413A      0.332440  
     414A      0.333920   415A      0.335036   416A      0.335557  
     417A      0.336254   418A      0.336623   419A      0.338530  
     420A      0.339381   421A      0.339665   422A      0.340204  
     423A      0.342365   424A      0.345855   425A      0.346438  
     426A      0.349779   427A      0.350597   428A      0.351496  
     429A      0.354908   430A      0.357744   431A      0.359006  
     432A      0.359411   433A      0.362673   434A      0.363818  
     435A      0.365672   436A      0.367952   437A      0.368929  
     438A      0.369596   439A      0.370059   440A      0.372375  
     441A      0.373134   442A      0.375641   443A      0.377588  
     444A      0.380206   445A      0.380637   446A      0.381606  
     447A      0.382497   448A      0.383116   449A      0.384160  
     450A      0.385228   451A      0.385779   452A      0.386747  
     453A      0.392061   454A      0.392873   455A      0.394945  
     456A      0.397181   457A      0.399320   458A      0.403064  
     459A      0.404209   460A      0.405688   461A      0.407303  
     462A      0.409617   463A      0.415040   464A      0.415895  
     465A      0.416754   466A      0.417456   467A      0.418057  
     468A      0.418267   469A      0.418836   470A      0.422077  
     471A      0.422336   472A      0.423632   473A      0.429789  
     474A      0.431877   475A      0.433279   476A      0.435215  
     477A      0.437372   478A      0.442356   479A      0.443035  
     480A      0.444107   481A      0.444677   482A      0.447296  
     483A      0.450021   484A      0.456919   485A      0.459310  
     486A      0.463275   487A      0.464278   488A      0.466743  
     489A      0.468922   490A      0.469577   491A      0.471859  
     492A      0.472449   493A      0.472950   494A      0.475088  
     495A      0.476922   496A      0.477293   497A      0.479936  
     498A      0.483146   499A      0.483665   500A      0.486573  
     501A      0.488283   502A      0.489940   503A      0.492688  
     504A      0.495829   505A      0.498846   506A      0.507355  
     507A      0.509327   508A      0.512284   509A      0.514840  
     510A      0.517285   511A      0.518280   512A      0.522713  
     513A      0.534666   514A      0.536656   515A      0.537408  
     516A      0.538565   517A      0.539242   518A      0.544617  
     519A      0.546093   520A      0.556246   521A      0.560530  
     522A      0.570374   523A      0.573266   524A      0.577680  
     525A      0.580132   526A      0.581106   527A      0.588222  
     528A      0.588900   529A      0.595253   530A      0.595685  
     531A      0.596989   532A      0.607581   533A      0.633104  
     534A      0.633374   535A      0.659885   536A      0.660457  
     537A      0.662122   538A      0.663412   539A      0.663484  
     540A      0.664215   541A      0.674895   542A      0.676093  
     543A      0.687462   544A      0.689178   545A      0.709044  
     546A      0.715397   547A      0.717841   548A      0.718891  
     549A      0.730139   550A      0.733551   551A      0.737614  
     552A      0.741403   553A      0.743988   554A      0.744986  
     555A      0.746659   556A      0.750332   557A      0.751205  
     558A      0.754077   559A      0.760236   560A      0.767781  
     561A      0.769486   562A      0.772574   563A      0.774882  
     564A      0.777877   565A      0.780534   566A      0.783447  
     567A      0.784865   568A      0.791252   569A      0.794795  
     570A      0.796153   571A      0.799202   572A      0.800939  
     573A      0.801797   574A      0.807746   575A      0.809533  
     576A      0.811404   577A      0.814905   578A      0.817106  
     579A      0.818693   580A      0.820256   581A      0.823162  
     582A      0.829326   583A      0.830905   584A      0.831301  
     585A      0.832925   586A      0.835016   587A      0.837864  
     588A      0.838742   589A      0.839594   590A      0.843280  
     591A      0.843750   592A      0.844963   593A      0.846165  
     594A      0.848926   595A      0.851077   596A      0.852211  
     597A      0.854954   598A      0.858001   599A      0.860377  
     600A      0.862431   601A      0.866525   602A      0.867276  
     603A      0.872788   604A      0.873369   605A      0.878041  
     606A      0.879302   607A      0.880330   608A      0.882048  
     609A      0.884694   610A      0.888267   611A      0.889011  
     612A      0.890816   613A      0.891765   614A      0.893693  
     615A      0.895018   616A      0.897161   617A      0.899651  
     618A      0.900589   619A      0.901782   620A      0.904979  
     621A      0.906707   622A      0.911749   623A      0.916301  
     624A      0.917442   625A      0.919424   626A      0.922511  
     627A      0.922960   628A      0.927506   629A      0.933037  
     630A      0.935313   631A      0.938688   632A      0.939471  
     633A      0.942063   634A      0.944620   635A      0.946730  
     636A      0.947913   637A      0.949665   638A      0.950473  
     639A      0.951535   640A      0.954718   641A      0.957413  
     642A      0.961015   643A      0.962621   644A      0.962963  
     645A      0.964235   646A      0.965446   647A      0.967255  
     648A      0.969078   649A      0.971062   650A      0.972983  
     651A      0.975181   652A      0.976761   653A      0.977642  
     654A      0.978591   655A      0.979996   656A      0.981436  
     657A      0.985670   658A      0.986913   659A      0.989354  
     660A      0.991547   661A      0.993144   662A      1.000631  
     663A      1.002723   664A      1.004156   665A      1.007835  
     666A      1.008889   667A      1.009534   668A      1.014190  
     669A      1.015751   670A      1.017741   671A      1.018503  
     672A      1.019809   673A      1.021431   674A      1.024048  
     675A      1.025256   676A      1.028240   677A      1.031682  
     678A      1.032367   679A      1.035650   680A      1.036209  
     681A      1.037623   682A      1.040283   683A      1.042419  
     684A      1.042729   685A      1.044810   686A      1.046509  
     687A      1.049931   688A      1.051732   689A      1.055415  
     690A      1.056696   691A      1.061889   692A      1.065243  
     693A      1.066618   694A      1.073771   695A      1.076054  
     696A      1.080786   697A      1.084460   698A      1.087439  
     699A      1.088025   700A      1.089042   701A      1.091701  
     702A      1.093613   703A      1.096414   704A      1.100965  
     705A      1.105057   706A      1.108658   707A      1.115654  
     708A      1.117245   709A      1.120815   710A      1.123786  
     711A      1.128231   712A      1.129310   713A      1.131679  
     714A      1.136915   715A      1.139509   716A      1.142646  
     717A      1.142945   718A      1.144643   719A      1.145602  
     720A      1.147639   721A      1.151404   722A      1.158414  
     723A      1.161833   724A      1.164149   725A      1.164359  
     726A      1.167191   727A      1.174614   728A      1.177586  
     729A      1.180506   730A      1.180925   731A      1.181558  
     732A      1.182199   733A      1.184156   734A      1.185890  
     735A      1.189905   736A      1.193532   737A      1.195355  
     738A      1.198203   739A      1.206717   740A      1.208931  
     741A      1.210858   742A      1.215083   743A      1.215672  
     744A      1.219025   745A      1.222326   746A      1.224239  
     747A      1.233374   748A      1.235252   749A      1.235845  
     750A      1.239679   751A      1.242495   752A      1.243709  
     753A      1.245776   754A      1.246485   755A      1.250912  
     756A      1.254527   757A      1.257399   758A      1.258900  
     759A      1.262687   760A      1.263895   761A      1.267613  
     762A      1.267912   763A      1.270829   764A      1.273195  
     765A      1.276547   766A      1.279546   767A      1.289131  
     768A      1.293583   769A      1.295577   770A      1.297897  
     771A      1.299849   772A      1.302343   773A      1.308363  
     774A      1.308889   775A      1.311673   776A      1.320603  
     777A      1.322938   778A      1.323825   779A      1.326897  
     780A      1.327212   781A      1.336908   782A      1.338882  
     783A      1.341178   784A      1.344616   785A      1.347944  
     786A      1.348769   787A      1.349741   788A      1.355868  
     789A      1.358514   790A      1.365317   791A      1.368025  
     792A      1.368338   793A      1.369431   794A      1.370079  
     795A      1.371209   796A      1.375576   797A      1.378359  
     798A      1.383449   799A      1.387741   800A      1.393764  
     801A      1.398599   802A      1.408882   803A      1.421046  
     804A      1.436292   805A      1.437790   806A      1.438959  
     807A      1.447763   808A      1.450433   809A      1.456332  
     810A      1.463404   811A      1.467616   812A      1.485665  
     813A      1.498537   814A      1.503066   815A      1.507773  
     816A      1.516350   817A      1.517937   818A      1.520051  
     819A      1.525519   820A      1.528226   821A      1.532122  
     822A      1.533900   823A      1.537197   824A      1.539870  
     825A      1.543851   826A      1.549440   827A      1.553879  
     828A      1.558663   829A      1.563237   830A      1.563939  
     831A      1.566689   832A      1.569639   833A      1.570989  
     834A      1.574491   835A      1.577015   836A      1.578100  
     837A      1.580546   838A      1.583270   839A      1.585602  
     840A      1.587606   841A      1.591291   842A      1.593869  
     843A      1.597554   844A      1.599013   845A      1.602948  
     846A      1.607719   847A      1.608006   848A      1.612648  
     849A      1.615703   850A      1.616206   851A      1.618161  
     852A      1.623778   853A      1.625727   854A      1.626448  
     855A      1.635448   856A      1.636763   857A      1.642458  
     858A      1.645374   859A      1.650885   860A      1.657515  
     861A      1.665875   862A      1.672534   863A      1.679967  
     864A      1.683135   865A      1.683593   866A      1.685542  
     867A      1.688911   868A      1.694109   869A      1.696609  
     870A      1.706105   871A      1.710716   872A      1.717354  
     873A      1.721745   874A      1.723459   875A      1.728454  
     876A      1.735430   877A      1.737853   878A      1.741873  
     879A      1.743350   880A      1.752761   881A      1.755145  
     882A      1.758575   883A      1.762163   884A      1.767789  
     885A      1.768199   886A      1.774932   887A      1.776926  
     888A      1.779729   889A      1.782403   890A      1.786408  
     891A      1.787123   892A      1.792042   893A      1.793677  
     894A      1.799704   895A      1.802152   896A      1.804768  
     897A      1.813981   898A      1.817583   899A      1.819183  
     900A      1.820845   901A      1.824905   902A      1.826261  
     903A      1.827253   904A      1.830376   905A      1.832050  
     906A      1.834169   907A      1.835734   908A      1.838403  
     909A      1.840547   910A      1.843866   911A      1.847689  
     912A      1.853732   913A      1.857622   914A      1.863933  
     915A      1.864897   916A      1.865790   917A      1.870418  
     918A      1.871519   919A      1.871680   920A      1.874685  
     921A      1.876266   922A      1.880618   923A      1.881971  
     924A      1.887058   925A      1.890974   926A      1.894609  
     927A      1.902051   928A      1.908247   929A      1.912623  
     930A      1.913578   931A      1.915892   932A      1.917477  
     933A      1.919018   934A      1.924062   935A      1.925385  
     936A      1.927936   937A      1.929144   938A      1.931595  
     939A      1.933262   940A      1.937327   941A      1.939534  
     942A      1.945050   943A      1.947291   944A      1.949354  
     945A      1.950238   946A      1.955676   947A      1.958697  
     948A      1.960606   949A      1.963623   950A      1.964953  
     951A      1.969779   952A      1.970728   953A      1.977013  
     954A      1.981618   955A      1.984598   956A      1.986403  
     957A      1.987441   958A      1.990056   959A      1.992216  
     960A      1.993893   961A      1.998265   962A      1.999272  
     963A      2.004707   964A      2.006960   965A      2.009720  
     966A      2.012137   967A      2.013379   968A      2.017048  
     969A      2.018204   970A      2.022512   971A      2.023877  
     972A      2.025247   973A      2.026537   974A      2.029201  
     975A      2.031138   976A      2.033353   977A      2.033973  
     978A      2.036310   979A      2.038951   980A      2.041171  
     981A      2.042197   982A      2.044587   983A      2.047418  
     984A      2.048267   985A      2.051220   986A      2.053003  
     987A      2.056419   988A      2.057729   989A      2.060569  
     990A      2.060652   991A      2.064353   992A      2.069520  
     993A      2.070958   994A      2.080338   995A      2.080399  
     996A      2.082790   997A      2.082977   998A      2.086014  
     999A      2.089329  1000A      2.099875  1001A      2.100329  
    1002A      2.105419  1003A      2.108063  1004A      2.113245  
    1005A      2.113430  1006A      2.118759  1007A      2.120070  
    1008A      2.127016  1009A      2.130838  1010A      2.133707  
    1011A      2.135291  1012A      2.136823  1013A      2.138407  
    1014A      2.141936  1015A      2.148565  1016A      2.155109  
    1017A      2.164939  1018A      2.165159  1019A      2.167346  
    1020A      2.168672  1021A      2.169583  1022A      2.172889  
    1023A      2.176062  1024A      2.179009  1025A      2.184442  
    1026A      2.186143  1027A      2.189371  1028A      2.192078  
    1029A      2.193753  1030A      2.195861  1031A      2.201247  
    1032A      2.203239  1033A      2.205901  1034A      2.210162  
    1035A      2.221735  1036A      2.225632  1037A      2.229872  
    1038A      2.233903  1039A      2.240777  1040A      2.244112  
    1041A      2.247414  1042A      2.257283  1043A      2.259303  
    1044A      2.262873  1045A      2.266413  1046A      2.271575  
    1047A      2.273102  1048A      2.277836  1049A      2.282088  
    1050A      2.283845  1051A      2.289119  1052A      2.294117  
    1053A      2.301727  1054A      2.303613  1055A      2.314537  
    1056A      2.334825  1057A      2.335583  1058A      2.339437  
    1059A      2.340586  1060A      2.341191  1061A      2.353794  
    1062A      2.355674  1063A      2.361991  1064A      2.373903  
    1065A      2.388520  1066A      2.391516  1067A      2.397963  
    1068A      2.407012  1069A      2.410909  1070A      2.418592  
    1071A      2.422574  1072A      2.433314  1073A      2.436144  
    1074A      2.444486  1075A      2.447084  1076A      2.455214  
    1077A      2.466170  1078A      2.468456  1079A      2.469307  
    1080A      2.472890  1081A      2.476435  1082A      2.477325  
    1083A      2.478230  1084A      2.480749  1085A      2.482386  
    1086A      2.485989  1087A      2.490170  1088A      2.491057  
    1089A      2.499677  1090A      2.501220  1091A      2.508837  
    1092A      2.510991  1093A      2.514712  1094A      2.522436  
    1095A      2.524049  1096A      2.531745  1097A      2.544072  
    1098A      2.550008  1099A      2.551025  1100A      2.557891  
    1101A      2.559831  1102A      2.565334  1103A      2.566376  
    1104A      2.572723  1105A      2.576644  1106A      2.589409  
    1107A      2.598353  1108A      2.605151  1109A      2.605493  
    1110A      2.612481  1111A      2.614452  1112A      2.620809  
    1113A      2.625999  1114A      2.627424  1115A      2.628084  
    1116A      2.629830  1117A      2.633452  1118A      2.634490  
    1119A      2.638958  1120A      2.645359  1121A      2.652399  
    1122A      2.674404  1123A      2.679048  1124A      2.687027  
    1125A      2.699237  1126A      2.711561  1127A      2.716215  
    1128A      2.718233  1129A      2.736355  1130A      2.744410  
    1131A      2.747260  1132A      2.751189  1133A      2.765065  
    1134A      2.766620  1135A      2.768750  1136A      2.770155  
    1137A      2.775458  1138A      2.778533  1139A      2.783871  
    1140A      2.795231  1141A      2.814961  1142A      2.817984  
    1143A      2.828034  1144A      2.838073  1145A      2.841080  
    1146A      2.843391  1147A      2.852974  1148A      2.853778  
    1149A      2.861953  1150A      2.868679  1151A      2.878055  
    1152A      2.881501  1153A      2.885331  1154A      2.917909  
    1155A      2.930934  1156A      2.937727  1157A      2.943580  
    1158A      2.972081  1159A      2.977216  1160A      2.977552  
    1161A      2.982381  1162A      2.991948  1163A      3.004529  
    1164A      3.004790  1165A      3.041903  1166A      3.042282  
    1167A      3.053806  1168A      3.055290  1169A      3.058056  
    1170A      3.063278  1171A      3.067737  1172A      3.068774  
    1173A      3.070527  1174A      3.072307  1175A      3.076724  
    1176A      3.080470  1177A      3.088823  1178A      3.090357  
    1179A      3.091913  1180A      3.111759  1181A      3.114060  
    1182A      3.124113  1183A      3.133705  1184A      3.156408  
    1185A      3.162335  1186A      3.181649  1187A      3.190382  
    1188A      3.199193  1189A      3.203157  1190A      3.207657  
    1191A      3.216944  1192A      3.225061  1193A      3.336220  
    1194A      3.336395  1195A      3.358617  1196A      3.406200  
    1197A      3.409892  1198A      3.477574  1199A      3.507687  
    1200A      3.508165  1201A      3.551221  1202A      3.553254  
    1203A      3.567539  1204A      3.569171  1205A      3.603308  
    1206A      3.620674  1207A      3.623408  1208A      3.709868  
    1209A      3.714009  1210A      3.738847  1211A      3.790338  
    1212A      3.791491  1213A      3.832510  1214A      3.832876  
    1215A      3.899527  1216A      3.924661  1217A      4.009866  
    1218A      4.029945  1219A      4.146277  

    Final Occupation by Irrep:
              A 
    DOCC [   197 ]
    NA   [   197 ]
    NB   [   197 ]

  @DF-RHF Final Energy: -2359.18349864996617

   => Energetics <=

    Nuclear Repulsion Energy =           8417.2610226081324072
    One-Electron Energy =              -19932.6734676198684610
    Two-Electron Energy =                9156.2289463617707952
    Total Energy =                      -2359.1834986499652587

Computation Completed


Properties will be evaluated at   0.000000,   0.000000,   0.000000 [a0]

Properties computed using the SCF density matrix


 Multipole Moments:

 ------------------------------------------------------------------------------------
     Multipole            Electronic (a.u.)      Nuclear  (a.u.)        Total (a.u.)
 ------------------------------------------------------------------------------------

 L = 1.  Multiply by 2.5417464519 to convert [e a0] to [Debye]
 Dipole X            :         -0.0033656            0.0006313           -0.0027343
 Dipole Y            :         -0.0587070            0.0560211           -0.0026859
 Dipole Z            :         13.6667786          -17.4001324           -3.7333538
 Magnitude           :                                                    3.7333558

 ------------------------------------------------------------------------------------

*** tstop() called on n2cn1191 at Sat Feb 10 12:52:55 2024
Module time:
	user time   =    5942.53 seconds =      99.04 minutes
	system time =     246.09 seconds =       4.10 minutes
	total time  =        485 seconds =       8.08 minutes
Total time:
	user time   =    5942.53 seconds =      99.04 minutes
	system time =     246.09 seconds =       4.10 minutes
	total time  =        485 seconds =       8.08 minutes

  //>>>>>>>>>>>>>>>>>>>>>>>>>>>>>>>>>>>//
  //            Monomer A HF           //
  //<<<<<<<<<<<<<<<<<<<<<<<<<<<<<<<<<<<//

   => Libint2 <=

    Primary   basis highest AM E, G, H:  5, 4, 3
    Auxiliary basis highest AM E, G, H:  6, 5, 4
    Onebody   basis highest AM E, G, H:  6, 5, 4
    Solid Harmonics ordering:            gaussian

*** tstart() called on n2cn1191
*** at Sat Feb 10 12:52:55 2024

   => Loading Basis Set <=

    Name: JUN-CC-PVDZ
    Role: ORBITAL
    Keyword: BASIS
    atoms 1-2, 4-5, 10, 17-70 entry C          line   164 file /opt/software/pc2/EB-SW/software/PSI4/1.9-foss-2022a/share/psi4/basis/jun-cc-pvdz.gbs 
    atoms 3, 6                entry N          line   198 file /opt/software/pc2/EB-SW/software/PSI4/1.9-foss-2022a/share/psi4/basis/jun-cc-pvdz.gbs 
    atoms 7-9, 11-16, 71-88   entry H          line    36 file /opt/software/pc2/EB-SW/software/PSI4/1.9-foss-2022a/share/psi4/basis/jun-cc-pvdz.gbs 


         ---------------------------------------------------------
                                   SCF
               by Justin Turney, Rob Parrish, Andy Simmonett
                          and Daniel G. A. Smith
                              RHF Reference
                       16 Threads,  45776 MiB Core
         ---------------------------------------------------------

  ==> Geometry <==

    Molecular point group: c1
    Full point group: C1

    Geometry (in Angstrom), charge = 1, multiplicity = 1:

       Center              X                  Y                   Z               Mass       
    ------------   -----------------  -----------------  -----------------  -----------------
         C            0.680066520158    -0.008042372515    -4.445313972050    12.000000000000
         C           -0.680504479842    -0.006014372515    -4.444929972050    12.000000000000
         N           -1.085635479842    -0.005016372515    -3.126605972050    14.003074004430
         C            0.000107520158    -0.001740372515    -2.345204972050    12.000000000000
         C           -2.477365479842     0.044389627485    -2.658626972050    12.000000000000
         N            1.085221520158    -0.005016372515    -3.126605972050    14.003074004430
         H            1.385145520158    -0.015870372515    -5.262752972050     1.007825032230
         H           -1.385302479842    -0.006204372515    -5.262598972050     1.007825032230
         H           -0.000009479842     0.000006627485    -1.264115972050     1.007825032230
         C            2.478116520158    -0.021908372515    -2.661507972050    12.000000000000
         H            2.490591520158     0.005436627485    -1.571254972050     1.007825032230
         H            2.967027520158    -0.935354372515    -3.008683972050     1.007825032230
         H            3.001427520158     0.853574627485    -3.052979972050     1.007825032230
         H           -2.857359479842     1.066460627485    -2.738585972050     1.007825032230
         H           -3.082679479842    -0.625694372515    -3.271690972050     1.007825032230
         H           -2.518128479842    -0.282594372515    -1.618678972050     1.007825032230
      Gh(C)           1.225311895423     0.707538288405     0.476752655233    12.000000000000
      Gh(C)           1.225323856051    -0.707538895085     0.464421845663    12.000000000000
      Gh(C)          -0.000006153932     1.414965913575     0.463888222142    12.000000000000
      Gh(C)           2.456448753949     1.418327886663     0.479639512633    12.000000000000
      Gh(C)           0.000010827279    -1.414976499150     0.474087779467    12.000000000000
      Gh(C)          -1.225300948908     0.707545373469     0.479004175556    12.000000000000
      Gh(C)           2.456437755320    -1.418323304396     0.462176688806    12.000000000000
      Gh(C)          -0.000001332978     2.836801030766     0.461484672008    12.000000000000
      Gh(C)           3.681826697470     0.709317955486     0.462525478604    12.000000000000
      Gh(C)           2.455120048865     2.834223660974     0.462422921643    12.000000000000
      Gh(C)           3.681821105219    -0.709333839944     0.478597962622    12.000000000000
      Gh(C)          -1.225313598688    -0.707527516059     0.465494607090    12.000000000000
      Gh(C)           1.226699581202     3.543469483479     0.478781994553    12.000000000000
      Gh(C)           0.000004784858    -2.836782139751     0.478935947088    12.000000000000
      Gh(C)          -2.456436032848     1.418316917770     0.479039571402    12.000000000000
      Gh(C)           2.455123417779    -2.834230029103     0.478446054255    12.000000000000
      Gh(C)          -1.226714364589     3.543469063235     0.478885327773    12.000000000000
      Gh(C)           4.914517295202     1.427172871975     0.469006161634    12.000000000000
      Gh(C)           3.693150191476     3.542795292030     0.469055961270    12.000000000000
      Gh(C)          -2.456437600068    -1.418313281354     0.462151650682    12.000000000000
      Gh(C)           1.226704841943    -3.543474242421     0.462811863803    12.000000000000
      Gh(C)          -2.455125398508     2.834216662119     0.462429297990    12.000000000000
      Gh(C)           4.914524380782    -1.427186910459     0.471978904368    12.000000000000
      Gh(C)           1.221424613699     4.970134064745     0.472117338628    12.000000000000
      Gh(C)           4.893008229321     2.825187999512     0.470222829992    12.000000000000
      Gh(C)          -1.226697008489    -3.543470997592     0.463079068213    12.000000000000
      Gh(C)          -3.681818976526     0.709324966217     0.462538159084    12.000000000000
      Gh(C)           3.693147101150    -3.542801341905     0.472096794929    12.000000000000
      Gh(C)          -1.221432251994     4.970128297348     0.472300834001    12.000000000000
      Gh(C)           6.134770972926     0.680547946591     0.469775936183    12.000000000000
      Gh(C)           3.656788880610     4.972953243053     0.469964599052    12.000000000000
      Gh(C)          -2.455126907733    -2.834215093576     0.478201696457    12.000000000000
      Gh(C)          -3.681819179061    -0.709325703983     0.478715584201    12.000000000000
      Gh(C)           4.893012617914    -2.825200106147     0.470833981888    12.000000000000
      Gh(C)          -0.000001073113     5.650447365518     0.471069525294    12.000000000000
      Gh(C)           6.134775112332    -0.680554854590     0.471041256699    12.000000000000
      Gh(C)           2.478131482856     5.653576750817     0.471253378702    12.000000000000
      Gh(C)           1.221422404738    -4.970127055448     0.469317841605    12.000000000000
      Gh(C)          -3.693162383965     3.542796953677     0.469221468729    12.000000000000
      Gh(C)          -1.221428520945    -4.970118304111     0.469205079773    12.000000000000
      Gh(C)          -4.914521807942     1.427175446480     0.469083106641    12.000000000000
      Gh(C)           3.656787019679    -4.972955226754     0.471415099587    12.000000000000
      Gh(C)          -2.478138530106     5.653574422014     0.471537903711    12.000000000000
      Gh(C)          -3.693141738564    -3.542790219494     0.471980668773    12.000000000000
      Gh(C)          -4.914512483053    -1.427181000542     0.472013601542    12.000000000000
      Gh(C)          -0.000006008926    -5.650438287528     0.470674021172    12.000000000000
      Gh(C)          -4.893020484101     2.825188598404     0.470212748132    12.000000000000
      Gh(C)           2.478125993298    -5.653573544403     0.470324498794    12.000000000000
      Gh(C)          -3.656798710258     4.972956181527     0.470141279427    12.000000000000
      Gh(C)          -4.892999478856    -2.825191767575     0.470679946190    12.000000000000
      Gh(C)          -2.478128498083    -5.653566170521     0.470049311147    12.000000000000
      Gh(C)          -6.134770503331     0.680548765741     0.469750384481    12.000000000000
      Gh(C)          -3.656788833189    -4.972944023485     0.471200811770    12.000000000000
      Gh(C)          -6.134765042913    -0.680553915997     0.471020780904    12.000000000000
      Gh(H)           5.835288495816     3.369275894439     0.474582155655     1.007825032230
      Gh(H)           7.073859172747     1.228217248385     0.470237579577     1.007825032230
      Gh(H)           4.600663264174     5.512380801938     0.470469799804     1.007825032230
      Gh(H)           5.835283387305    -3.369306057244     0.466379514573     1.007825032230
      Gh(H)          -0.000012151306     6.738530673622     0.466720280286     1.007825032230
      Gh(H)           7.073861171831    -1.228226943259     0.470532518605     1.007825032230
      Gh(H)           2.473313731799     6.740684290880     0.470786657772     1.007825032230
      Gh(H)           4.600668491381    -5.512376129691     0.471005102418     1.007825032230
      Gh(H)          -2.473318680537     6.740681719092     0.471088004397     1.007825032230
      Gh(H)          -0.000010268228    -6.738528176967     0.475203706157     1.007825032230
      Gh(H)          -5.835301914343     3.369270949781     0.474718177803     1.007825032230
      Gh(H)           2.473307923831    -6.740685374944     0.470894829219     1.007825032230
      Gh(H)          -4.600674841208     5.512378026089     0.470635128128     1.007825032230
      Gh(H)          -5.835279506835    -3.369288964294     0.466100208692     1.007825032230
      Gh(H)          -2.473300347440    -6.740679078655     0.470445512675     1.007825032230
      Gh(H)          -7.073857766768     1.228220472326     0.470153588096     1.007825032230
      Gh(H)          -4.600673786085    -5.512362670301     0.470832794395     1.007825032230
      Gh(H)          -7.073856934409    -1.228220632492     0.470437662139     1.007825032230

  Running in c1 symmetry.

  Rotational constants: A =      0.00191  B =      0.00186  C =      0.00109 [cm^-1]
  Rotational constants: A =     57.19481  B =     55.68665  C =     32.71081 [MHz]
  Nuclear repulsion =  306.774908447733026

  Charge       = 1
  Multiplicity = 1
  Electrons    = 52
  Nalpha       = 26
  Nbeta        = 26

  ==> Algorithm <==

  SCF Algorithm Type is DF.
  DIIS enabled.
  MOM disabled.
  Fractional occupation disabled.
  Guess Type is SAD.
  Energy threshold   = 1.00e-08
  Density threshold  = 1.00e-08
  Integral threshold = 1.00e-12

  ==> Primary Basis <==

  Basis Set: JUN-CC-PVDZ
    Blend: JUN-CC-PVDZ
    Number of shells: 569
    Number of basis functions: 1233
    Number of Cartesian functions: 1294
    Spherical Harmonics?: true
    Max angular momentum: 2

   => Loading Basis Set <=

    Name: (JUN-CC-PVDZ AUX)
    Role: JKFIT
    Keyword: DF_BASIS_SCF
    atoms 1-2, 4-5, 10, 17-70 entry C          line   146 file /opt/software/pc2/EB-SW/software/PSI4/1.9-foss-2022a/share/psi4/basis/jun-cc-pvdz-jkfit.gbs 
    atoms 3, 6                entry N          line   202 file /opt/software/pc2/EB-SW/software/PSI4/1.9-foss-2022a/share/psi4/basis/jun-cc-pvdz-jkfit.gbs 
    atoms 7-9, 11-16, 71-88   entry H          line    70 file /opt/software/pc2/EB-SW/software/PSI4/1.9-foss-2022a/share/psi4/basis/jun-cc-pvdz-jkfit.gbs 

  ==> Integral Setup <==

  ==> DiskDFJK: Density-Fitted J/K Matrices <==

    J tasked:                  Yes
    K tasked:                  Yes
    wK tasked:                  No
    OpenMP threads:             16
    Integrals threads:          16
    Memory [MiB]:            34332
    Algorithm:                Core
    Integral Cache:           LOAD
    Schwarz Cutoff:          1E-12
    Fitting Condition:       1E-10

   => Auxiliary Basis Set <=

  Basis Set: (JUN-CC-PVDZ AUX)
    Blend: JUN-CC-PVDZ-JKFIT
    Number of shells: 1890
    Number of basis functions: 5440
    Number of Cartesian functions: 6226
    Spherical Harmonics?: true
    Max angular momentum: 3

  Minimum eigenvalue in the overlap matrix is 3.2755893196E-10.
  Reciprocal condition number of the overlap matrix is 1.2809512637E-11.
    Using canonical orthogonalization.
  Overall, 14 of 1233 possible MOs eliminated.


  ==> Pre-Iterations <==

  SCF Guess: Superposition of Atomic Densities via on-the-fly atomic UHF (no occupation information).

   -------------------------
    Irrep   Nso     Nmo    
   -------------------------
     A       1233    1219 
   -------------------------
    Total    1233    1219
   -------------------------

  ==> Iterations <==

                           Total Energy        Delta E     RMS |[F,P]|

   @DF-RHF iter SAD:  -303.36537574650646   -3.03365e+02   0.00000e+00 
   @DF-RHF iter   1:  -303.17062330078738    1.94752e-01   3.45063e-04 DIIS/ADIIS
   @DF-RHF iter   2:  -303.28512251462041   -1.14499e-01   1.16143e-04 DIIS/ADIIS
   @DF-RHF iter   3:  -303.29665326900783   -1.15308e-02   4.55513e-05 DIIS
   @DF-RHF iter   4:  -303.29858290477364   -1.92964e-03   1.00109e-05 DIIS
   @DF-RHF iter   5:  -303.29869188256419   -1.08978e-04   2.44839e-06 DIIS
   @DF-RHF iter   6:  -303.29870150135832   -9.61879e-06   6.60736e-07 DIIS
   @DF-RHF iter   7:  -303.29870260765779   -1.10630e-06   3.37758e-07 DIIS
   @DF-RHF iter   8:  -303.29870287184326   -2.64185e-07   1.36142e-07 DIIS
   @DF-RHF iter   9:  -303.29870292272824   -5.08850e-08   3.38561e-08 DIIS
   @DF-RHF iter  10:  -303.29870292557285   -2.84462e-09   1.25554e-08 DIIS
   @DF-RHF iter  11:  -303.29870292581234   -2.39481e-10   2.95130e-09 DIIS
  Energy and wave function converged.


  ==> Post-Iterations <==

    Orbital Energies [Eh]
    ---------------------

    Doubly Occupied:                                                      

       1A    -15.834503     2A    -15.833955     3A    -11.529114  
       4A    -11.459628     5A    -11.458073     6A    -11.449531  
       7A    -11.449403     8A     -1.577646     9A     -1.433290  
      10A     -1.238159    11A     -1.188934    12A     -1.118564  
      13A     -1.022037    14A     -0.996502    15A     -0.916642  
      16A     -0.850143    17A     -0.815846    18A     -0.812720  
      19A     -0.789709    20A     -0.785965    21A     -0.781362  
      22A     -0.729448    23A     -0.725527    24A     -0.716970  
      25A     -0.595873    26A     -0.523492  

    Virtual:                                                              

      27A     -0.080534    28A     -0.073824    29A     -0.063021  
      30A     -0.055898    31A     -0.044176    32A     -0.040849  
      33A     -0.040455    34A     -0.039114    35A     -0.038841  
      36A     -0.026998    37A     -0.026770    38A     -0.022503  
      39A     -0.021955    40A     -0.016231    41A     -0.014911  
      42A     -0.013964    43A     -0.009185    44A     -0.007068  
      45A     -0.000519    46A      0.002771    47A      0.004798  
      48A      0.005224    49A      0.005816    50A      0.006327  
      51A      0.011657    52A      0.012184    53A      0.012535  
      54A      0.019236    55A      0.021906    56A      0.023348  
      57A      0.024287    58A      0.027280    59A      0.028665  
      60A      0.029931    61A      0.036921    62A      0.038248  
      63A      0.041011    64A      0.041632    65A      0.042000  
      66A      0.046909    67A      0.047777    68A      0.052150  
      69A      0.052307    70A      0.053694    71A      0.054262  
      72A      0.057058    73A      0.059500    74A      0.060726  
      75A      0.061200    76A      0.061650    77A      0.063046  
      78A      0.066767    79A      0.067093    80A      0.070447  
      81A      0.071592    82A      0.071756    83A      0.072006  
      84A      0.075854    85A      0.079462    86A      0.080302  
      87A      0.081194    88A      0.083216    89A      0.086403  
      90A      0.087119    91A      0.087572    92A      0.087801  
      93A      0.090406    94A      0.090710    95A      0.099573  
      96A      0.099952    97A      0.100744    98A      0.102987  
      99A      0.103927   100A      0.105020   101A      0.105497  
     102A      0.107726   103A      0.110585   104A      0.110826  
     105A      0.111022   106A      0.111754   107A      0.112258  
     108A      0.114155   109A      0.116847   110A      0.117253  
     111A      0.119057   112A      0.119737   113A      0.121116  
     114A      0.121367   115A      0.124586   116A      0.126237  
     117A      0.127208   118A      0.128488   119A      0.130728  
     120A      0.133848   121A      0.136283   122A      0.139764  
     123A      0.140162   124A      0.140831   125A      0.141577  
     126A      0.142450   127A      0.146043   128A      0.148212  
     129A      0.149185   130A      0.150001   131A      0.150612  
     132A      0.153527   133A      0.153763   134A      0.156784  
     135A      0.156876   136A      0.159469   137A      0.160029  
     138A      0.162065   139A      0.165485   140A      0.166171  
     141A      0.167195   142A      0.169353   143A      0.169840  
     144A      0.170763   145A      0.173116   146A      0.174426  
     147A      0.174920   148A      0.175939   149A      0.176748  
     150A      0.177665   151A      0.178036   152A      0.182833  
     153A      0.183406   154A      0.184067   155A      0.189320  
     156A      0.191442   157A      0.193413   158A      0.196358  
     159A      0.200197   160A      0.201654   161A      0.201817  
     162A      0.203023   163A      0.203849   164A      0.204487  
     165A      0.207734   166A      0.208717   167A      0.209986  
     168A      0.210782   169A      0.211800   170A      0.212550  
     171A      0.212947   172A      0.218095   173A      0.218938  
     174A      0.219442   175A      0.220998   176A      0.221658  
     177A      0.224451   178A      0.225473   179A      0.226608  
     180A      0.227424   181A      0.228427   182A      0.229758  
     183A      0.234396   184A      0.235120   185A      0.237004  
     186A      0.238834   187A      0.242843   188A      0.243819  
     189A      0.245544   190A      0.253213   191A      0.255234  
     192A      0.257289   193A      0.259628   194A      0.259912  
     195A      0.261673   196A      0.261960   197A      0.264758  
     198A      0.265920   199A      0.266863   200A      0.267320  
     201A      0.271301   202A      0.273775   203A      0.274702  
     204A      0.275350   205A      0.275992   206A      0.280513  
     207A      0.281725   208A      0.282405   209A      0.283393  
     210A      0.284233   211A      0.285591   212A      0.286243  
     213A      0.288186   214A      0.289547   215A      0.290283  
     216A      0.292455   217A      0.296058   218A      0.297706  
     219A      0.300245   220A      0.303844   221A      0.304936  
     222A      0.307501   223A      0.311055   224A      0.311332  
     225A      0.312654   226A      0.318644   227A      0.319025  
     228A      0.321738   229A      0.323144   230A      0.325623  
     231A      0.329031   232A      0.330906   233A      0.333877  
     234A      0.336050   235A      0.339265   236A      0.340100  
     237A      0.342628   238A      0.345035   239A      0.345835  
     240A      0.346139   241A      0.348985   242A      0.350057  
     243A      0.352544   244A      0.355518   245A      0.357068  
     246A      0.359201   247A      0.359930   248A      0.361997  
     249A      0.363638   250A      0.366220   251A      0.367503  
     252A      0.371499   253A      0.374014   254A      0.374881  
     255A      0.377017   256A      0.377438   257A      0.378595  
     258A      0.379906   259A      0.380493   260A      0.383492  
     261A      0.384066   262A      0.386889   263A      0.387196  
     264A      0.389345   265A      0.391114   266A      0.391974  
     267A      0.394114   268A      0.395457   269A      0.399392  
     270A      0.399449   271A      0.400317   272A      0.402074  
     273A      0.402956   274A      0.409490   275A      0.411035  
     276A      0.414855   277A      0.415140   278A      0.419930  
     279A      0.420606   280A      0.421345   281A      0.425090  
     282A      0.427597   283A      0.431406   284A      0.433959  
     285A      0.436941   286A      0.438870   287A      0.439382  
     288A      0.441412   289A      0.442952   290A      0.445458  
     291A      0.446599   292A      0.447587   293A      0.449557  
     294A      0.452577   295A      0.454061   296A      0.456178  
     297A      0.458753   298A      0.459293   299A      0.461121  
     300A      0.463969   301A      0.465636   302A      0.467035  
     303A      0.467756   304A      0.471416   305A      0.472050  
     306A      0.477678   307A      0.481972   308A      0.484397  
     309A      0.485261   310A      0.489939   311A      0.491016  
     312A      0.493237   313A      0.496013   314A      0.497612  
     315A      0.498315   316A      0.500448   317A      0.501093  
     318A      0.502327   319A      0.503490   320A      0.505031  
     321A      0.506192   322A      0.512603   323A      0.515267  
     324A      0.517787   325A      0.519089   326A      0.522517  
     327A      0.525843   328A      0.528645   329A      0.531025  
     330A      0.534040   331A      0.534341   332A      0.535243  
     333A      0.539514   334A      0.541585   335A      0.544756  
     336A      0.546830   337A      0.549697   338A      0.550540  
     339A      0.552133   340A      0.554049   341A      0.556609  
     342A      0.558309   343A      0.561085   344A      0.562238  
     345A      0.563650   346A      0.568214   347A      0.568953  
     348A      0.571632   349A      0.573697   350A      0.574937  
     351A      0.579736   352A      0.585461   353A      0.589494  
     354A      0.591444   355A      0.592185   356A      0.596695  
     357A      0.598937   358A      0.599593   359A      0.600100  
     360A      0.601705   361A      0.602213   362A      0.603656  
     363A      0.608776   364A      0.610373   365A      0.611962  
     366A      0.612849   367A      0.615961   368A      0.617606  
     369A      0.618470   370A      0.620402   371A      0.620848  
     372A      0.623412   373A      0.640586   374A      0.641570  
     375A      0.645713   376A      0.649010   377A      0.650188  
     378A      0.654591   379A      0.657382   380A      0.666047  
     381A      0.666979   382A      0.670724   383A      0.673816  
     384A      0.675175   385A      0.676453   386A      0.677160  
     387A      0.678708   388A      0.679504   389A      0.680640  
     390A      0.681172   391A      0.682155   392A      0.684370  
     393A      0.684456   394A      0.686185   395A      0.690378  
     396A      0.695725   397A      0.700720   398A      0.702114  
     399A      0.706945   400A      0.708861   401A      0.709829  
     402A      0.710713   403A      0.715968   404A      0.719691  
     405A      0.723337   406A      0.723900   407A      0.725202  
     408A      0.742884   409A      0.746951   410A      0.751250  
     411A      0.755956   412A      0.764445   413A      0.765889  
     414A      0.768967   415A      0.770392   416A      0.775193  
     417A      0.780990   418A      0.784375   419A      0.787539  
     420A      0.788860   421A      0.793696   422A      0.795320  
     423A      0.797739   424A      0.799577   425A      0.802421  
     426A      0.804992   427A      0.808421   428A      0.812786  
     429A      0.814581   430A      0.818718   431A      0.819172  
     432A      0.822664   433A      0.827332   434A      0.831683  
     435A      0.838488   436A      0.844794   437A      0.852487  
     438A      0.859740   439A      0.865630   440A      0.874263  
     441A      0.876103   442A      0.881232   443A      0.882143  
     444A      0.888537   445A      0.892359   446A      0.892389  
     447A      0.912051   448A      0.913980   449A      0.915614  
     450A      0.919360   451A      0.922146   452A      0.922493  
     453A      0.925522   454A      0.926592   455A      0.930672  
     456A      0.936194   457A      0.944479   458A      0.946813  
     459A      0.972897   460A      0.973250   461A      0.976615  
     462A      0.979697   463A      0.980977   464A      0.982045  
     465A      0.985341   466A      0.997582   467A      1.011673  
     468A      1.015337   469A      1.019210   470A      1.021151  
     471A      1.022490   472A      1.033355   473A      1.047941  
     474A      1.055969   475A      1.057696   476A      1.067226  
     477A      1.071016   478A      1.074923   479A      1.077780  
     480A      1.082102   481A      1.090952   482A      1.092804  
     483A      1.097986   484A      1.098180   485A      1.100492  
     486A      1.106291   487A      1.108670   488A      1.110505  
     489A      1.120112   490A      1.126659   491A      1.132524  
     492A      1.135541   493A      1.143983   494A      1.151816  
     495A      1.163102   496A      1.165233   497A      1.174600  
     498A      1.176065   499A      1.198932   500A      1.208391  
     501A      1.210606   502A      1.214634   503A      1.215540  
     504A      1.216809   505A      1.220066   506A      1.221964  
     507A      1.236445   508A      1.237695   509A      1.238724  
     510A      1.240109   511A      1.276444   512A      1.279834  
     513A      1.295081   514A      1.347603   515A      1.352620  
     516A      1.354267   517A      1.355192   518A      1.364919  
     519A      1.368444   520A      1.368998   521A      1.371934  
     522A      1.382587   523A      1.395822   524A      1.400764  
     525A      1.406233   526A      1.429953   527A      1.446134  
     528A      1.454791   529A      1.463652   530A      1.466655  
     531A      1.470824   532A      1.478838   533A      1.483944  
     534A      1.485639   535A      1.494326   536A      1.507863  
     537A      1.510723   538A      1.521452   539A      1.534486  
     540A      1.540022   541A      1.554217   542A      1.561813  
     543A      1.564687   544A      1.568026   545A      1.580089  
     546A      1.586157   547A      1.590359   548A      1.596209  
     549A      1.599437   550A      1.604300   551A      1.608095  
     552A      1.619147   553A      1.626041   554A      1.632385  
     555A      1.644498   556A      1.656503   557A      1.661326  
     558A      1.664748   559A      1.667471   560A      1.670043  
     561A      1.671723   562A      1.679703   563A      1.680553  
     564A      1.683730   565A      1.688816   566A      1.690627  
     567A      1.695476   568A      1.697676   569A      1.699571  
     570A      1.705594   571A      1.713142   572A      1.715436  
     573A      1.719766   574A      1.720161   575A      1.729288  
     576A      1.736800   577A      1.738036   578A      1.740380  
     579A      1.740675   580A      1.741709   581A      1.744475  
     582A      1.745121   583A      1.746229   584A      1.754594  
     585A      1.757653   586A      1.764562   587A      1.769029  
     588A      1.770252   589A      1.775910   590A      1.777040  
     591A      1.780591   592A      1.782771   593A      1.784783  
     594A      1.787208   595A      1.792068   596A      1.795471  
     597A      1.796438   598A      1.799174   599A      1.799954  
     600A      1.802044   601A      1.803784   602A      1.806431  
     603A      1.809447   604A      1.813670   605A      1.814659  
     606A      1.815562   607A      1.819739   608A      1.822202  
     609A      1.828947   610A      1.832377   611A      1.833351  
[...]
     814A      1.754390   815A      1.760267   816A      1.763119  
     817A      1.764137   818A      1.765503   819A      1.777108  
     820A      1.778110   821A      1.791278   822A      1.791976  
     823A      1.797745   824A      1.803662   825A      1.813437  
     826A      1.813644   827A      1.817792   828A      1.819239  
     829A      1.821110   830A      1.823141   831A      1.823791  
     832A      1.829557   833A      1.834267   834A      1.835701  
     835A      1.839485   836A      1.844099   837A      1.849904  
     838A      1.855710   839A      1.857386   840A      1.862792  
     841A      1.864490   842A      1.866048   843A      1.870272  
     844A      1.872967   845A      1.875938   846A      1.876953  
     847A      1.878469   848A      1.890957   849A      1.891769  
     850A      1.898904   851A      1.903395   852A      1.904155  
     853A      1.906173   854A      1.906309   855A      1.907957  
     856A      1.915317   857A      1.916913   858A      1.918888  
     859A      1.919248   860A      1.921560   861A      1.929966  
     862A      1.930988   863A      1.934774   864A      1.937536  
     865A      1.941386   866A      1.944107   867A      1.944939  
     868A      1.946346   869A      1.948584   870A      1.953801  
     871A      1.956544   872A      1.957350   873A      1.958522  
     874A      1.961079   875A      1.973550   876A      1.977255  
     877A      1.981991   878A      1.988599   879A      1.989046  
     880A      1.991893   881A      1.995268   882A      1.999373  
     883A      2.001170   884A      2.005435   885A      2.007368  
     886A      2.010736   887A      2.013628   888A      2.016832  
     889A      2.017234   890A      2.027334   891A      2.029237  
     892A      2.031707   893A      2.033106   894A      2.034127  
     895A      2.036049   896A      2.036767   897A      2.040221  
     898A      2.048890   899A      2.051084   900A      2.053066  
     901A      2.055496   902A      2.060626   903A      2.063227  
     904A      2.064836   905A      2.067904   906A      2.071734  
     907A      2.072777   908A      2.073907   909A      2.075903  
     910A      2.077724   911A      2.084004   912A      2.086351  
     913A      2.088383   914A      2.090420   915A      2.094333  
     916A      2.095694   917A      2.096028   918A      2.097906  
     919A      2.100667   920A      2.103967   921A      2.104236  
     922A      2.108612   923A      2.108899   924A      2.110234  
     925A      2.115052   926A      2.115247   927A      2.116013  
     928A      2.118542   929A      2.120219   930A      2.122530  
     931A      2.124733   932A      2.125358   933A      2.128505  
     934A      2.130917   935A      2.132512   936A      2.134847  
     937A      2.136143   938A      2.139759   939A      2.141777  
     940A      2.143336   941A      2.144049   942A      2.147192  
     943A      2.149550   944A      2.153581   945A      2.157938  
     946A      2.162842   947A      2.167256   948A      2.169809  
     949A      2.172953   950A      2.175904   951A      2.181544  
     952A      2.183722   953A      2.185126   954A      2.186655  
     955A      2.191775   956A      2.194571   957A      2.195825  
     958A      2.198712   959A      2.204862   960A      2.216762  
     961A      2.219257   962A      2.219663   963A      2.221702  
     964A      2.224970   965A      2.226776   966A      2.231476  
     967A      2.233236   968A      2.237197   969A      2.241285  
     970A      2.242602   971A      2.244096   972A      2.245714  
     973A      2.246287   974A      2.250424   975A      2.258364  
     976A      2.260018   977A      2.264188   978A      2.266449  
     979A      2.268204   980A      2.271290   981A      2.272657  
     982A      2.273321   983A      2.276032   984A      2.282330  
     985A      2.284623   986A      2.285195   987A      2.300320  
     988A      2.304031   989A      2.307360   990A      2.311312  
     991A      2.318677   992A      2.323506   993A      2.328330  
     994A      2.332589   995A      2.335277   996A      2.342449  
     997A      2.346127   998A      2.350880   999A      2.354102  
    1000A      2.355423  1001A      2.359335  1002A      2.361323  
    1003A      2.364638  1004A      2.374234  1005A      2.377931  
    1006A      2.382097  1007A      2.393912  1008A      2.399284  
    1009A      2.404477  1010A      2.416943  1011A      2.421289  
    1012A      2.424701  1013A      2.425424  1014A      2.426261  
    1015A      2.436735  1016A      2.441222  1017A      2.452278  
    1018A      2.459235  1019A      2.462383  1020A      2.468656  
    1021A      2.476010  1022A      2.483642  1023A      2.485912  
    1024A      2.492444  1025A      2.493910  1026A      2.499149  
    1027A      2.504025  1028A      2.510402  1029A      2.518230  
    1030A      2.530048  1031A      2.533395  1032A      2.535479  
    1033A      2.544244  1034A      2.547835  1035A      2.555278  
    1036A      2.555829  1037A      2.556895  1038A      2.559817  
    1039A      2.560008  1040A      2.560467  1041A      2.566048  
    1042A      2.566230  1043A      2.573253  1044A      2.574279  
    1045A      2.575144  1046A      2.579431  1047A      2.580932  
    1048A      2.589214  1049A      2.591777  1050A      2.600283  
    1051A      2.603228  1052A      2.606436  1053A      2.612396  
    1054A      2.617580  1055A      2.620848  1056A      2.632619  
    1057A      2.636031  1058A      2.639532  1059A      2.645653  
    1060A      2.651605  1061A      2.654039  1062A      2.654562  
    1063A      2.656697  1064A      2.659988  1065A      2.663607  
    1066A      2.683973  1067A      2.684797  1068A      2.690268  
    1069A      2.694578  1070A      2.699726  1071A      2.700982  
    1072A      2.702968  1073A      2.706153  1074A      2.712623  
    1075A      2.713724  1076A      2.714731  1077A      2.718645  
    1078A      2.722371  1079A      2.724727  1080A      2.727596  
    1081A      2.740667  1082A      2.759783  1083A      2.761156  
    1084A      2.764264  1085A      2.778762  1086A      2.781479  
    1087A      2.789873  1088A      2.795084  1089A      2.800887  
    1090A      2.809627  1091A      2.823157  1092A      2.826970  
    1093A      2.833614  1094A      2.839487  1095A      2.843650  
    1096A      2.854137  1097A      2.855929  1098A      2.857406  
    1099A      2.858949  1100A      2.861163  1101A      2.871897  
    1102A      2.882538  1103A      2.893446  1104A      2.920415  
    1105A      2.922216  1106A      2.928826  1107A      2.940836  
    1108A      2.943415  1109A      2.947374  1110A      2.952102  
    1111A      2.965048  1112A      2.977810  1113A      2.983759  
    1114A      3.007122  1115A      3.013999  1116A      3.017257  
    1117A      3.021346  1118A      3.030227  1119A      3.040437  
    1120A      3.050671  1121A      3.055233  1122A      3.065167  
    1123A      3.067984  1124A      3.069068  1125A      3.081347  
    1126A      3.089336  1127A      3.111444  1128A      3.121490  
    1129A      3.125370  1130A      3.131203  1131A      3.133398  
    1132A      3.139157  1133A      3.142879  1134A      3.145394  
    1135A      3.148427  1136A      3.150063  1137A      3.150908  
    1138A      3.153586  1139A      3.157872  1140A      3.166637  
    1141A      3.173217  1142A      3.176545  1143A      3.182338  
    1144A      3.190659  1145A      3.198304  1146A      3.202495  
    1147A      3.212419  1148A      3.227306  1149A      3.233232  
    1150A      3.251756  1151A      3.275725  1152A      3.283260  
    1153A      3.289659  1154A      3.293466  1155A      3.300210  
    1156A      3.303342  1157A      3.324065  1158A      3.383764  
    1159A      3.423963  1160A      3.424341  1161A      3.442164  
    1162A      3.477464  1163A      3.495337  1164A      3.499691  
    1165A      3.540088  1166A      3.570704  1167A      3.582582  
    1168A      3.596762  1169A      3.615246  1170A      3.635219  
    1171A      3.640415  1172A      3.658367  1173A      3.676591  
    1174A      3.684115  1175A      3.686989  1176A      3.693541  
    1177A      3.768945  1178A      3.798703  1179A      3.805392  
    1180A      3.828486  1181A      3.854467  1182A      3.872277  
    1183A      3.875295  1184A      3.896565  1185A      3.916315  
    1186A      3.917386  1187A      3.988420  1188A      4.012488  
    1189A      4.039894  1190A      4.104846  1191A      4.130672  
    1192A      4.223872  1193A      4.252792  1194A      4.282847  
    1195A      4.463708  1196A      4.466093  1197A      4.540258  
    1198A      4.830586  1199A      4.868780  1200A      4.915970  
    1201A      4.937085  1202A      4.988394  1203A      5.095372  
    1204A      5.103443  1205A      5.125495  1206A      5.154091  
    1207A      5.261070  1208A      5.424062  1209A      5.450641  
    1210A      5.792499  1211A      5.815577  1212A      6.091782  
    1213A     18.209891  1214A     18.495244  1215A     18.516114  
    1216A     18.622869  1217A     18.865440  1218A     25.360712  
    1219A     25.398467  

    Final Occupation by Irrep:
              A 
    DOCC [   171 ]
    NA   [   171 ]
    NB   [   171 ]

  @DF-RHF Final Energy: -2055.89587639880483

   => Energetics <=

    Nuclear Repulsion Energy =           6452.5568002797781446
    One-Electron Energy =              -15636.5375036197874579
    Two-Electron Energy =                7128.0848269412053924
    Total Energy =                      -2055.8958763988048304

Computation Completed


Properties will be evaluated at   0.000000,   0.000000,   0.000000 [a0]

Properties computed using the SCF density matrix


 Multipole Moments:

 ------------------------------------------------------------------------------------
     Multipole            Electronic (a.u.)      Nuclear  (a.u.)        Total (a.u.)
 ------------------------------------------------------------------------------------

 L = 1.  Multiply by 2.5417464519 to convert [e a0] to [Debye]
 Dipole X            :         -0.0003034           -0.0000085           -0.0003119
 Dipole Y            :          0.0007607            0.0000167            0.0007774
 Dipole Z            :       -304.1508846          304.1506186           -0.0002660
 Magnitude           :                                                    0.0008789

 ------------------------------------------------------------------------------------

*** tstop() called on n2cn1191 at Sat Feb 10 13:00:12 2024
Module time:
	user time   =    3721.38 seconds =      62.02 minutes
	system time =     133.96 seconds =       2.23 minutes
	total time  =        271 seconds =       4.52 minutes
Total time:
	user time   =   11741.83 seconds =     195.70 minutes
	system time =     415.58 seconds =       6.93 minutes
	total time  =        922 seconds =      15.37 minutes
  Constructing Basis Sets for SAPT...

   => Loading Basis Set <=

    Name: (JUN-CC-PVDZ AUX)
    Role: RIFIT
    Keyword: DF_BASIS_SAPT
    atoms 1-2, 4-5, 10, 17-70 entry C          line   100 file /opt/software/pc2/EB-SW/software/PSI4/1.9-foss-2022a/share/psi4/basis/jun-cc-pvdz-ri.gbs 
    atoms 3, 6                entry N          line   144 file /opt/software/pc2/EB-SW/software/PSI4/1.9-foss-2022a/share/psi4/basis/jun-cc-pvdz-ri.gbs 
    atoms 7-9, 11-16, 71-88   entry H          line    30 file /opt/software/pc2/EB-SW/software/PSI4/1.9-foss-2022a/share/psi4/basis/jun-cc-pvdz-ri.gbs 

   => Loading Basis Set <=

    Name: (JUN-CC-PVDZ AUX)
    Role: JKFIT
    Keyword: DF_BASIS_ELST
    atoms 1-2, 4-5, 10, 17-70 entry C          line   146 file /opt/software/pc2/EB-SW/software/PSI4/1.9-foss-2022a/share/psi4/basis/jun-cc-pvdz-jkfit.gbs 
    atoms 3, 6                entry N          line   202 file /opt/software/pc2/EB-SW/software/PSI4/1.9-foss-2022a/share/psi4/basis/jun-cc-pvdz-jkfit.gbs 
    atoms 7-9, 11-16, 71-88   entry H          line    70 file /opt/software/pc2/EB-SW/software/PSI4/1.9-foss-2022a/share/psi4/basis/jun-cc-pvdz-jkfit.gbs 


  //>>>>>>>>>>>>>>>>>>>>>>>>>>>>>>>>>>>//
  //               SSAPT0              //
  //<<<<<<<<<<<<<<<<<<<<<<<<<<<<<<<<<<<//


*** tstart() called on n2cn1191
*** at Sat Feb 10 13:00:13 2024

        SAPT0  
    Ed Hohenstein
     6 June 2009

      Orbital Information
  --------------------------
    NSO        =      1233
    NMO        =      1219
    NRI        =      4343
    NRI (Elst) =      5440
    NOCC A     =        26
    NOCC B     =       171
    FOCC A     =         7
    FOCC B     =        54
    NVIR A     =      1193
    NVIR B     =      1048

    Elst10,r            =    -0.032592148005 [Eh]
    Exch10              =     0.074201328033 [Eh]
    Exch10 (S^2)        =     0.072790348399 [Eh]

    Iter     Energy [mEh]          dE [mEh]         Residual      Time [s]
       1      -8.41195509       8.411955090      14.802149972            21
       2     -10.37631134       1.964356252       4.779943891            37
       3     -10.58980818       0.213496841       0.892515815            51
       4     -10.57495819      -0.014849996       0.302245689            66
       5     -10.56702286      -0.007935326       0.067478971            83
       6     -10.56893118       0.001908314       0.030672732            98
       7     -10.56888912      -0.000042058       0.015579525           115
       8     -10.56864797      -0.000241149       0.003574172           130
       9     -10.56864870       0.000000730       0.001105761           145
      10     -10.56865945       0.000010748       0.000289876           161
      11     -10.56865947       0.000000020       0.000069041           176
      12     -10.56865898      -0.000000490       0.000023230           189
      13     -10.56865892      -0.000000059       0.000006694           205
      14     -10.56865898       0.000000061       0.000001996           220
      15     -10.56865898      -0.000000005       0.000000618           234

    CHF Iterations converged


    Iter     Energy [mEh]          dE [mEh]         Residual      Time [s]
       1     -37.73609011      37.736090111      90.826793602            21
       2     -29.21872000      -8.517370110      14.753925590            37
       3     -30.28832517       1.069605167       6.561997194            53
       4     -31.23588384       0.947558671       1.280896182            70
       5     -31.25765024       0.021766397       0.487858559            88
       6     -31.22441194      -0.033238298       0.219079696           104
       7     -31.22061402      -0.003797921       0.100397158           121
       8     -31.22548488       0.004870862       0.043334326           137
       9     -31.22633633       0.000851450       0.016654058           153
      10     -31.22583152      -0.000504808       0.007813057           170
      11     -31.22570599      -0.000125527       0.003789189           185
      12     -31.22577008       0.000064084       0.001808842           199
      13     -31.22581462       0.000044547       0.000720078           213
      14     -31.22580158      -0.000013044       0.000392669           228
      15     -31.22579398      -0.000007603       0.000185785           242
      16     -31.22579614       0.000002158       0.000111233           256
      17     -31.22579851       0.000002373       0.000050059           271
      18     -31.22579818      -0.000000329       0.000025385           285
      19     -31.22579771      -0.000000467       0.000014016           300
      20     -31.22579769      -0.000000019       0.000007766           315
      21     -31.22579785       0.000000157       0.000003890           331
      22     -31.22579786       0.000000009       0.000002169           346
      23     -31.22579783      -0.000000031       0.000001270           361
      24     -31.22579782      -0.000000012       0.000000697           376

    CHF Iterations converged

    Ind20,r (A<-B)      =    -0.010568658976 [Eh]
    Ind20,r (B<-A)      =    -0.031225797816 [Eh]
    Ind20,r             =    -0.041794456792 [Eh]
    Exch-Ind20,r (A<-B) =     0.009881766160 [Eh]
    Exch-Ind20,r (B<-A) =     0.010813307200 [Eh]
    Exch-Ind20,r        =     0.020695073360 [Eh]
    Disp20              =    -0.051451310307 [Eh]
    Disp20 (SS)         =    -0.025725655154 [Eh]
    Disp20 (OS)         =    -0.025725655154 [Eh]
    Exch-Disp20         =     0.005636441049 [Eh]
    Exch-Disp20 (SS)    =     0.003317377650 [Eh]
    Exch-Disp20 (OS)    =     0.002319063399 [Eh]

    SAPT Results 
  --------------------------------------------------------------------------------------------------------
    Electrostatics                -32.59214800 [mEh]     -20.45188164 [kcal/mol]     -85.57067280 [kJ/mol]
      Elst10,r                    -32.59214800 [mEh]     -20.45188164 [kcal/mol]     -85.57067280 [kJ/mol]

    Exchange                       74.20132803 [mEh]      46.56203631 [kcal/mol]     194.81555991 [kJ/mol]
      Exch10                       74.20132803 [mEh]      46.56203631 [kcal/mol]     194.81555991 [kJ/mol]
      Exch10(S^2)                  72.79034840 [mEh]      45.67663322 [kcal/mol]     191.11103339 [kJ/mol]

    Induction                     -30.52850538 [mEh]     -19.15692634 [kcal/mol]     -80.15257983 [kJ/mol]
      Ind20,r                     -41.79445679 [mEh]     -26.22641759 [kcal/mol]    -109.73133119 [kJ/mol]
      Exch-Ind20,r                 20.69507336 [mEh]      12.98635459 [kcal/mol]      54.33490762 [kJ/mol]
      delta HF,r (2)               -9.42912195 [mEh]      -5.91686335 [kcal/mol]     -24.75615626 [kJ/mol]

    Dispersion                    -45.81486926 [mEh]     -28.74926450 [kcal/mol]    -120.28692267 [kJ/mol]
      Disp20                      -51.45131031 [mEh]     -32.28618466 [kcal/mol]    -135.08539660 [kJ/mol]
      Exch-Disp20                   5.63644105 [mEh]       3.53692016 [kcal/mol]      14.79847394 [kJ/mol]
      Disp20 (SS)                 -25.72565515 [mEh]     -16.14309233 [kcal/mol]     -67.54269830 [kJ/mol]
      Disp20 (OS)                 -25.72565515 [mEh]     -16.14309233 [kcal/mol]     -67.54269830 [kJ/mol]
      Exch-Disp20 (SS)              3.31737765 [mEh]       2.08168590 [kcal/mol]       8.70977382 [kJ/mol]
      Exch-Disp20 (OS)              2.31906340 [mEh]       1.45523425 [kcal/mol]       6.08870012 [kJ/mol]

  Total HF                         11.08067465 [mEh]       6.95322832 [kcal/mol]      29.09230729 [kJ/mol]
  Total SAPT0                     -34.73419461 [mEh]     -21.79603618 [kcal/mol]     -91.19461538 [kJ/mol]

  Special recipe for scaled SAPT0 (see Manual):
    Electrostatics sSAPT0         -32.59214800 [mEh]     -20.45188164 [kcal/mol]     -85.57067280 [kJ/mol]
    Exchange sSAPT0                74.20132803 [mEh]      46.56203631 [kcal/mol]     194.81555991 [kJ/mol]
    Induction sSAPT0              -29.30155666 [mEh]     -18.38700440 [kcal/mol]     -76.93122642 [kJ/mol]
    Dispersion sSAPT0             -45.48070161 [mEh]     -28.53957113 [kcal/mol]    -119.40956561 [kJ/mol]
  Total sSAPT0                    -33.17307824 [mEh]     -20.81642087 [kcal/mol]     -87.09590492 [kJ/mol]
  --------------------------------------------------------------------------------------------------------

*** tstop() called on n2cn1191 at Sat Feb 10 13:28:56 2024
Module time:
	user time   =   12979.10 seconds =     216.32 minutes
	system time =     726.32 seconds =      12.11 minutes
	total time  =       1723 seconds =      28.72 minutes
Total time:
	user time   =   24721.81 seconds =     412.03 minutes
	system time =    1141.91 seconds =      19.03 minutes
	total time  =       2646 seconds =      44.10 minutes

    Psi4 stopped on: Saturday, 10 February 2024 01:28PM
    Psi4 wall time for execution: 0:44:06.63

*** Psi4 exiting successfully. Buy a developer a beer!
