
    -----------------------------------------------------------------------
          Psi4: An Open-Source Ab Initio Electronic Structure Package
                               Psi4 1.9 release

                         Git: Rev {} zzzzzzz 


    D. G. A. Smith, L. A. Burns, A. C. Simmonett, R. M. Parrish,
    M. C. Schieber, R. Galvelis, P. Kraus, H. Kruse, R. Di Remigio,
    A. Alenaizan, A. M. James, S. Lehtola, J. P. Misiewicz, M. Scheurer,
    R. A. Shaw, J. B. Schriber, Y. Xie, Z. L. Glick, D. A. Sirianni,
    J. S. O'Brien, J. M. Waldrop, A. Kumar, E. G. Hohenstein,
    B. P. Pritchard, B. R. Brooks, H. F. Schaefer III, A. Yu. Sokolov,
    K. Patkowski, A. E. DePrince III, U. Bozkaya, R. A. King,
    F. A. Evangelista, J. M. Turney, T. D. Crawford, C. D. Sherrill,
    J. Chem. Phys. 152(18) 184108 (2020). https://doi.org/10.1063/5.0006002

                            Additional Code Authors
    E. T. Seidl, C. L. Janssen, E. F. Valeev, M. L. Leininger,
    J. F. Gonthier, R. M. Richard, H. R. McAlexander, M. Saitow, X. Wang,
    P. Verma, M. H. Lechner, A. Jiang, S. Behnle, A. G. Heide,
    M. F. Herbst, and D. L. Poole

             Previous Authors, Complete List of Code Contributors,
                       and Citations for Specific Modules
    https://github.com/psi4/psi4/blob/master/codemeta.json
    https://github.com/psi4/psi4/graphs/contributors
    http://psicode.org/psi4manual/master/introduction.html#citing-psifour

    -----------------------------------------------------------------------


    Psi4 started on: Friday, 26 January 2024 11:20PM

    Process ID: 329307
    Host:       n2cn0431
    PSIDATADIR: /opt/software/pc2/EB-SW/software/PSI4/1.9-foss-2022a/share/psi4
    Memory:     500.0 MiB
    Threads:    16
    
  ==> Input File <==

--------------------------------------------------------------------------
memory 64 GB # how much memory is available ! Depends on the nodes/cores !

molecule dimer {
# monomer A
+1 1    # Charge and multiplicity
C  0.680067 -1.215929 3.608042
C -0.680504 -1.215545 3.606014
N -1.085635  0.102779 3.605016
C  0.000108  0.884180 3.601740
C -2.477365  0.570758 3.555610
N  1.085222  0.102779 3.605016
H  1.385146 -2.033368 3.615870
H -1.385302 -2.033214 3.606204
H -0.000009  1.965269 3.599993
C  2.478117  0.567877 3.621908
H  2.490592  1.658130 3.594563
H  2.967028  0.220701 4.535354
H  3.001428  0.176405 2.746425
H -2.857359  0.490799 2.533539
H -3.082679 -0.042306 4.225694
H -2.518128  1.610706 3.882594
--
# monomer B
0 1     # Charge and multiplicity
C   -3.66844126402057      7.80375217008252      0.00190004133558
C   -4.84759871934653      7.13124183134024     -0.00046653359696
C   -4.89495929917518      5.69633040353158     -0.00103944469517
C   -3.65374067877320      4.98073034095895      0.00662099703436
C   -2.40942512149445      7.11398103667468      0.00209438359570
C   -2.42547734410473      5.68112195090346     -0.00491050527438
C   -1.19474401643570      7.78614419430947      0.00356656413763
C   0.03795902893699      7.09942164575698      0.00139585983271
C   0.03033258741920      5.66948955970466     -0.00408752508301
C   -1.20098450790502      4.96927034791531      0.00488220885047
C   1.27795782581485      7.77285944319479      0.00277170839332
C   2.48535808472416      7.08769688523756      0.00049722048857
C   2.48612868491717      5.65477081024076     -0.00644052849921
C   1.25408291964399      4.95607811366431      0.00518741308898
C   3.75171459140595      7.76391215098033      0.00062407186893
C   4.92356605618520      7.07878077698995     -0.00143240883900
C   4.95560727132542      5.64344746336949     -0.00159282164606
C   3.70680153420475      4.94121020833308      0.00349873852374
H   -3.65852113775815      8.89082741913536      0.00358502958574
H   -1.18921332975660      8.87412108735996      0.00753844057883
H   1.28429423888630      8.86083343548850      0.00693053253426
H   3.75354208679975      8.85103527897216      0.00214659618464
H   5.86995870320703      7.61379483465560     -0.00235777588134
H   -5.78823170750226      7.67630221293400     -0.00202638095293
C   -6.09197395869619      4.99326001364347     -0.00291168518608
C   -6.12866148031747      3.58258016879823     -0.00171050815740
C   -3.66457974004527      3.56418217974434     -0.00463560277484
C   -4.89429820469869      2.86108077590057      0.00453338221034
C   -2.43733499489796      2.84761165708481      0.00719617576166
C   -1.20922785759670      3.54788693497833     -0.00648285103018
C   1.24714157216223      3.53468075142962     -0.00729145743546
C   0.01517603956900      2.83311183930540      0.00439272578912
C   2.46764517244071      2.82128997725533      0.00449278391269
C   3.70254947457969      3.52466015442405     -0.00899517692985
C   6.14498038638375      4.92757236613191     -0.00282626685777
C   6.16658835886151      3.51658447594213     -0.00065971342101
C   4.92460995845939      2.80840792535402      0.00587903281610
H   7.08990550964105      5.46688776622306     -0.00658814770723
H   -7.03104175110130      5.54268795285765     -0.00714490013730
C   -7.33969804112295      2.85841153457957     -0.00333767559888
C   -7.36488195805880      1.47032337158330     -0.00157213747140
C   -4.90350460894690      1.44442681216000     -0.00628840166334
C   -6.13225715261081      0.73993935705394      0.00600164231964
C   -3.67687480051673      0.72669714267312      0.00433931473643
C   -2.44565658606518      1.42964113326212     -0.00597039546461
C   -1.22360068130162      0.71532450163492      0.00545886906656
C   0.00763786931376      1.41738314923765      0.00392452278437
C   1.23121980774686      0.70211669058719     -0.01490206287210
C   2.46082110053113      1.40329203612573      0.00460244601878
C   3.68443025419614      0.68719842821222      0.00377365974158
C   4.91870890153864      1.39173456118907     -0.00862816189375
C   7.36980207796101      2.77948220318441     -0.00242013321349
C   7.38016266612146      1.39121750785509     -0.00087345036788
C   6.13979953912259      0.67411862320065      0.00545489144369
H   -8.27919079934664      3.40711804112415     -0.00763522772059
H   8.31511347147953      3.31811809662368     -0.00663070901292
C   -8.59175593758115      0.72483255304480     -0.00123170985383
C   -8.59902460370342     -0.63263980622873      0.00089141472904
C   -6.13981313911873     -0.67413663715361     -0.00609792660607
C   -7.38018411213749     -1.39126618958160      0.00131813493501
C   -4.91868448025621     -1.39175501803000      0.00624257154343
C   -3.68443829568458     -0.68723731573599     -0.00478966852105
C   -2.46081704024768     -1.40334517882457      0.00575341766833
C   -1.23116201232071     -0.70217386488055     -0.00636696112346
C   -0.00756962538737     -1.41741884941102      0.00108956317991
C   1.22364771588843     -0.71527537726392      0.01109518512883
C   2.44567064933149     -1.42964328900682     -0.00065482763106
C   3.67686670284649     -0.72670743155550     -0.00479541202602
C   6.13224884641929     -0.73997883984993     -0.00632338623858
C   4.90351914550401     -1.44445752054090      0.00751768830159
C   8.59901484869081      0.63260386666793     -0.00101133422380
C   8.59174548810050     -0.72485086719319      0.00072504603735
C   7.36486276438985     -1.47033266560598      0.00049486934466
H   -9.52830597181814      1.27684744919284     -0.00270163681798
H   9.54141097460619      1.17457248844457     -0.00206336648518
C   -7.36983790976868     -2.77954514593389      0.00312634335708
C   -4.92459910905015     -2.80843725734101     -0.00460528907921
C   -6.16662249566744     -3.51665219282533      0.00169655107992
C   -3.70251035970491     -3.52468154912026      0.00571878010666
C   -2.46764698511392     -2.82132596280400     -0.00632585824990
C   -0.01513347410770     -2.83314164539971     -0.00604426974092
C   -1.24712184122656     -3.53473217556300      0.00551968366725
C   1.20924506964357     -3.54791467864352      0.00805871345849
C   2.43733602215464     -2.84764173817541     -0.00608104485234
C   4.89430234377080     -2.86112296828604     -0.00526030478103
C   3.66461525504104     -3.56421984553201      0.00761911515957
C   6.12863901474565     -3.58258405771778      0.00096495711699
C   7.33967266469532     -2.85841330737039      0.00248018319869
H   -9.54144911125902     -1.17456346666430      0.00226083090216
H   9.52826186807155     -1.27691907390448      0.00197485379837
H   -8.31516504384864     -3.31814985321231      0.00729857188773
H   8.27915514249207     -3.40714078989363      0.00681973918158
C   -6.14499418870218     -4.92764727278338      0.00302254913999
C   -3.70678334799751     -4.94126171411716     -0.00679841894792
C   -4.95559005800169     -5.64349397349412      0.00116871569699
C   -2.48612132622665     -5.65478557440947      0.00614125209662
C   -1.25405833548005     -4.95612205000132     -0.00503435388927
C   1.20101257386816     -4.96928038819302     -0.00385322963129
C   -0.03033667441341     -5.66952030313900      0.00398997003238
C   3.65375010132847     -4.98074377541453     -0.00309522988330
C   2.42549269587528     -5.68117463552727      0.00628170066869
C   6.09196561781097     -4.99325796338655      0.00325918379042
C   4.89497644461045     -5.69634842095790      0.00202298796027
H   -7.08989238804069     -5.46699984223871      0.00742531082125
H   7.03105520920009     -5.54265853633254      0.00683896355417
C   -4.92354532219813     -7.07882109967734      0.00061394679214
C   -2.48534208823777     -7.08772807792913     -0.00189594564379
C   -3.75168589177895     -7.76394715763627     -0.00170126671874
C   -0.03794895698805     -7.09946487446944     -0.00168022049625
C   -1.27795610040136     -7.77290438466689     -0.00366491325785
C   2.40944432072629     -7.11402201200282     -0.00081701968533
C   1.19474993715296     -7.78618536556242     -0.00296931056689
C   4.84762105249800     -7.13126211057943      0.00168979497423
C   3.66847160587561     -7.80378799294376     -0.00065863938960
H   -5.86994035041618     -7.61383059804164      0.00215798365757
H   5.78824962538815     -7.67633218931421      0.00281691445618
H   -3.75352693944918     -8.85107156923607     -0.00353718114765
H   -1.28430440589466     -8.86087539249706     -0.00809229711623
H   1.18922157469537     -8.87416062058945     -0.00706194725726
H   3.65854661482387     -8.89086063405326     -0.00231318081200

    units angstrom      # Angstroms are the default
    no_reorient         # Geometry fixed, default
    symmetry c1         # C1 symmetry, default
}

set {
    scf_type DF         # Density fitting, faster than exact integrals
    freeze_core True    # Freeze core electrons
    basis jun-cc-pVDZ   # Jun-cc-pVDZ basis set, recommended for sSAPT0 in https://doi.org/10.1063/1.4867135
}

energy('ssapt0')        # Compute sSAPT0 energy, includes also SAPT0
--------------------------------------------------------------------------

  Memory set to  59.605 GiB by Python driver.

Scratch directory: /tmp/
   => Loading Basis Set <=

    Name: JUN-CC-PVDZ
    Role: ORBITAL
    Keyword: BASIS
    atoms 1-2, 4-5, 10, 17-34, 41-53, 56-70, 73-89, 92-104, 109-119, 122-130 entry C          line   164 file /opt/software/pc2/EB-SW/software/PSI4/1.9-foss-2022a/share/psi4/basis/jun-cc-pvdz.gbs 
    atoms 3, 6                                                               entry N          line   198 file /opt/software/pc2/EB-SW/software/PSI4/1.9-foss-2022a/share/psi4/basis/jun-cc-pvdz.gbs 
    atoms 7-9, 11-16, 35-40, 54-55, 71-72, 90-91, 105-108, 120-121, 131-136  entry H          line    36 file /opt/software/pc2/EB-SW/software/PSI4/1.9-foss-2022a/share/psi4/basis/jun-cc-pvdz.gbs 

   => Loading Basis Set <=

    Name: JUN-CC-PVDZ
    Role: ORBITAL
    Keyword: BASIS
    atoms 1-2, 4-5, 10, 17-34, 41-53, 56-70, 73-89, 92-104, 109-119, 122-130 entry C          line   164 file /opt/software/pc2/EB-SW/software/PSI4/1.9-foss-2022a/share/psi4/basis/jun-cc-pvdz.gbs 
    atoms 3, 6                                                               entry N          line   198 file /opt/software/pc2/EB-SW/software/PSI4/1.9-foss-2022a/share/psi4/basis/jun-cc-pvdz.gbs 
    atoms 7-9, 11-16, 35-40, 54-55, 71-72, 90-91, 105-108, 120-121, 131-136  entry H          line    36 file /opt/software/pc2/EB-SW/software/PSI4/1.9-foss-2022a/share/psi4/basis/jun-cc-pvdz.gbs 


  //>>>>>>>>>>>>>>>>>>>>>>>>>>>>>>>>>>>//
  //              Dimer HF             //
  //<<<<<<<<<<<<<<<<<<<<<<<<<<<<<<<<<<<//

   => Libint2 <=

    Primary   basis highest AM E, G, H:  5, 4, 3
    Auxiliary basis highest AM E, G, H:  6, 5, 4
    Onebody   basis highest AM E, G, H:  6, 5, 4
    Solid Harmonics ordering:            gaussian

*** tstart() called on n2cn0431
*** at Fri Jan 26 23:20:41 2024

   => Loading Basis Set <=

    Name: JUN-CC-PVDZ
    Role: ORBITAL
    Keyword: BASIS
    atoms 1-2, 4-5, 10, 17-34, 41-53, 56-70, 73-89, 92-104, 109-119, 122-130 entry C          line   164 file /opt/software/pc2/EB-SW/software/PSI4/1.9-foss-2022a/share/psi4/basis/jun-cc-pvdz.gbs 
    atoms 3, 6                                                               entry N          line   198 file /opt/software/pc2/EB-SW/software/PSI4/1.9-foss-2022a/share/psi4/basis/jun-cc-pvdz.gbs 
    atoms 7-9, 11-16, 35-40, 54-55, 71-72, 90-91, 105-108, 120-121, 131-136  entry H          line    36 file /opt/software/pc2/EB-SW/software/PSI4/1.9-foss-2022a/share/psi4/basis/jun-cc-pvdz.gbs 


         ---------------------------------------------------------
                                   SCF
               by Justin Turney, Rob Parrish, Andy Simmonett
                          and Daniel G. A. Smith
                              RHF Reference
                       16 Threads,  61035 MiB Core
         ---------------------------------------------------------

  ==> Geometry <==

    Molecular point group: c1
    Full point group: C1

    Geometry (in Angstrom), charge = 1, multiplicity = 1:

       Center              X                  Y                   Z               Mass       
    ------------   -----------------  -----------------  -----------------  -----------------
         C            0.680062820275    -1.215917226251     3.333566696842    12.000000000000
         C           -0.680508179725    -1.215533226251     3.331538696842    12.000000000000
         N           -1.085639179725     0.102790773749     3.330540696842    14.003074004430
         C            0.000103820275     0.884191773749     3.327264696842    12.000000000000
         C           -2.477369179725     0.570769773749     3.281134696842    12.000000000000
         N            1.085217820275     0.102790773749     3.330540696842    14.003074004430
         H            1.385141820275    -2.033356226251     3.341394696842     1.007825032230
         H           -1.385306179725    -2.033202226251     3.331728696842     1.007825032230
         H           -0.000013179725     1.965280773749     3.325517696842     1.007825032230
         C            2.478112820275     0.567888773749     3.347432696842    12.000000000000
         H            2.490587820275     1.658141773750     3.320087696842     1.007825032230
         H            2.967023820275     0.220712773749     4.260878696842     1.007825032230
         H            3.001423820275     0.176416773749     2.471949696842     1.007825032230
         H           -2.857363179725     0.490810773749     2.259063696842     1.007825032230
         H           -3.082683179725    -0.042294226251     3.951218696842     1.007825032230
         H           -2.518132179725     1.610717773749     3.608118696842     1.007825032230
         C           -3.668445443746     7.803763943832    -0.272575261822    12.000000000000
         C           -4.847602899072     7.131253605090    -0.274941836755    12.000000000000
         C           -4.894963478901     5.696342177281    -0.275514747853    12.000000000000
         C           -3.653744858499     4.980742114708    -0.267854306123    12.000000000000
         C           -2.409429301220     7.113992810424    -0.272380919562    12.000000000000
         C           -2.425481523830     5.681133724653    -0.279385808432    12.000000000000
         C           -1.194748196161     7.786155968059    -0.270908739020    12.000000000000
         C            0.037954849212     7.099433419506    -0.273079443325    12.000000000000
         C            0.030328407694     5.669501333454    -0.278562828241    12.000000000000
         C           -1.200988687630     4.969282121665    -0.269593094307    12.000000000000
         C            1.277953646089     7.772871216944    -0.271703594764    12.000000000000
         C            2.485353904999     7.087708658987    -0.273978082669    12.000000000000
         C            2.486124505192     5.654782583990    -0.280915831657    12.000000000000
         C            1.254078739919     4.956089887414    -0.269287890069    12.000000000000
         C            3.751710411681     7.763923924730    -0.273851231289    12.000000000000
         C            4.923561876460     7.078792550739    -0.275907711997    12.000000000000
         C            4.955603091600     5.643459237119    -0.276068124804    12.000000000000
         C            3.706797354479     4.941221982083    -0.270976564634    12.000000000000
         H           -3.658525317484     8.890839192885    -0.270890273572     1.007825032230
         H           -1.189217509482     8.874132861109    -0.266936862579     1.007825032230
         H            1.284290059161     8.860845209238    -0.267544770623     1.007825032230
         H            3.753537907074     8.851047052722    -0.272328706973     1.007825032230
         H            5.869954523482     7.613806608405    -0.276833079039     1.007825032230
         H           -5.788235887228     7.676313986684    -0.276501684110     1.007825032230
         C           -6.091978138422     4.993271787393    -0.277386988344    12.000000000000
         C           -6.128665660043     3.582591942548    -0.276185811315    12.000000000000
         C           -3.664583919771     3.564193953494    -0.279110905932    12.000000000000
         C           -4.894302384424     2.861092549650    -0.269941920947    12.000000000000
         C           -2.437339174623     2.847623430834    -0.267279127396    12.000000000000
         C           -1.209232037322     3.547898708728    -0.280958154188    12.000000000000
         C            1.247137392437     3.534692525179    -0.281766760593    12.000000000000
         C            0.015171859844     2.833123613055    -0.270082577368    12.000000000000
         C            2.467640992715     2.821301751005    -0.269982519245    12.000000000000
         C            3.702545294854     3.524671928174    -0.283470480087    12.000000000000
         C            6.144976206658     4.927584139881    -0.277301570015    12.000000000000
         C            6.166584179136     3.516596249692    -0.275135016579    12.000000000000
         C            4.924605778734     2.808419699104    -0.268596270341    12.000000000000
         H            7.089901329916     5.466899539973    -0.281063450865     1.007825032230
         H           -7.031045930827     5.542699726607    -0.281620203295     1.007825032230
         C           -7.339702220848     2.858423308329    -0.277812978756    12.000000000000
         C           -7.364886137784     1.470335145333    -0.276047440629    12.000000000000
         C           -4.903508788672     1.444438585909    -0.280763704821    12.000000000000
         C           -6.132261332336     0.739951130803    -0.268473660838    12.000000000000
         C           -3.676878980242     0.726708916423    -0.270135988421    12.000000000000
         C           -2.445660765791     1.429652907012    -0.280445698622    12.000000000000
         C           -1.223604861027     0.715336275384    -0.269016434091    12.000000000000
         C            0.007633689588     1.417394922987    -0.270550780373    12.000000000000
         C            1.231215628021     0.702128464337    -0.289377366030    12.000000000000
         C            2.460816920806     1.403303809875    -0.269872857139    12.000000000000
         C            3.684426074471     0.687210201962    -0.270701643416    12.000000000000
         C            4.918704721813     1.391746334939    -0.283103465051    12.000000000000
         C            7.369797898236     2.779493976934    -0.276895436371    12.000000000000
         C            7.380158486396     1.391229281605    -0.275348753525    12.000000000000
         C            6.139795359397     0.674130396950    -0.269020411714    12.000000000000
         H           -8.279194979072     3.407129814874    -0.282110530878     1.007825032230
         H            8.315109291754     3.318129870373    -0.281106012170     1.007825032230
         C           -8.591760117307     0.724844326794    -0.275707013011    12.000000000000
         C           -8.599028783429    -0.632628032479    -0.273583888429    12.000000000000
         C           -6.139817318844    -0.674124863404    -0.280573229764    12.000000000000
         C           -7.380188291863    -1.391254415832    -0.273157168223    12.000000000000
         C           -4.918688659982    -1.391743244281    -0.268232731614    12.000000000000
         C           -3.684442475410    -0.687225541986    -0.279264971679    12.000000000000
         C           -2.460821219973    -1.403333405075    -0.268721885489    12.000000000000
         C           -1.231166192046    -0.702162091131    -0.280842264281    12.000000000000
         C           -0.007573805113    -1.417407075662    -0.273385739978    12.000000000000
         C            1.223643536163    -0.715263603514    -0.263380118029    12.000000000000
         C            2.445666469606    -1.429631515257    -0.275130130789    12.000000000000
         C            3.676862523121    -0.726695657806    -0.279270715184    12.000000000000
         C            6.132244666694    -0.739967066100    -0.280798689396    12.000000000000
         C            4.903514965779    -1.444445746791    -0.266957614856    12.000000000000
         C            8.599010668965     0.632615640417    -0.275486637381    12.000000000000
         C            8.591741308375    -0.724839093444    -0.273750257120    12.000000000000
         C            7.364858584664    -1.470320891856    -0.273980433813    12.000000000000
         H           -9.528310151544     1.276859222942    -0.277176939976     1.007825032230
         H            9.541406794881     1.174584262194    -0.276538669643     1.007825032230
         C           -7.369842089494    -2.779533372184    -0.271348959800    12.000000000000
         C           -4.924603288776    -2.808425483592    -0.279080592237    12.000000000000
         C           -6.166626675393    -3.516640419076    -0.272778752078    12.000000000000
         C           -3.702514539430    -3.524669775371    -0.268756523051    12.000000000000
         C           -2.467651164839    -2.821314189055    -0.280801161407    12.000000000000
         C           -0.015137653833    -2.833129871650    -0.280519572898    12.000000000000
         C           -1.247126020952    -3.534720401814    -0.268955619490    12.000000000000
         C            1.209240889918    -3.547902904894    -0.266416589699    12.000000000000
         C            2.437331842429    -2.847629964426    -0.280556348010    12.000000000000
         C            4.894298164045    -2.861111194537    -0.279735607939    12.000000000000
         C            3.664611075316    -3.564208071783    -0.266856187998    12.000000000000
         C            6.128634835020    -3.582572283968    -0.273510346041    12.000000000000
         C            7.339668484970    -2.858401533621    -0.271995119959    12.000000000000
         H           -9.541453290984    -1.174551692915    -0.272214472255     1.007825032230
         H            9.528257688346    -1.276907300155    -0.272500449359     1.007825032230
         H           -8.315169223574    -3.318138079463    -0.267176731270     1.007825032230
         H            8.279150962767    -3.407129016144    -0.267655563976     1.007825032230
         C           -6.144998368428    -4.927635499034    -0.271452754018    12.000000000000
         C           -3.706787527723    -4.941249940368    -0.281273722105    12.000000000000
         C           -4.955594237727    -5.643482199745    -0.273306587461    12.000000000000
         C           -2.486125505952    -5.654773800660    -0.268334051061    12.000000000000
         C           -1.254062515205    -4.956110276252    -0.279509657047    12.000000000000
         C            1.201008394143    -4.969268614444    -0.278328532789    12.000000000000
         C           -0.030340854139    -5.669508529390    -0.270485333125    12.000000000000
         C            3.653745921603    -4.980732001665    -0.277570533041    12.000000000000
         C            2.425488516150    -5.681162861778    -0.268193602489    12.000000000000
         C            6.091961438086    -4.993246189637    -0.271216119367    12.000000000000
         C            4.894972264885    -5.696336647208    -0.272452315197    12.000000000000
         H           -7.089896567766    -5.466988068489    -0.267049992336     1.007825032230
         H            7.031051029475    -5.542646762583    -0.267636339603     1.007825032230
         C           -4.923549501924    -7.078809325928    -0.273861356365    12.000000000000
         C           -2.485346267963    -7.087716304180    -0.276371248801    12.000000000000
         C           -3.751690071504    -7.763935383887    -0.276176569876    12.000000000000
         C           -0.037953136713    -7.099453100720    -0.276155523654    12.000000000000
         C           -1.277960280127    -7.772892610917    -0.278140216415    12.000000000000
         C            2.409440141001    -7.114010238253    -0.275292322843    12.000000000000
         C            1.194745757428    -7.786173591813    -0.277444613724    12.000000000000
         C            4.847616872773    -7.131250336830    -0.272785508183    12.000000000000
         C            3.668467426150    -7.803776219194    -0.275133942547    12.000000000000
         H           -5.869944530142    -7.613818824292    -0.272317319500     1.007825032230
         H            5.788245445663    -7.676320415565    -0.271658388701     1.007825032230
         H           -3.753531119175    -8.851059795487    -0.278012484305     1.007825032230
         H           -1.284308585620    -8.860863618748    -0.282567600274     1.007825032230
         H            1.189217394970    -8.874148846840    -0.281537250415     1.007825032230
         H            3.658542435098    -8.890848860304    -0.276788483970     1.007825032230

  Running in c1 symmetry.

  Rotational constants: A =      0.00067  B =      0.00067  C =      0.00035 [cm^-1]
  Rotational constants: A =     20.10511  B =     19.97114  C =     10.50436 [MHz]
  Nuclear repulsion = 18398.886990710718237

  Charge       = 1
  Multiplicity = 1
  Electrons    = 652
  Nalpha       = 326
  Nbeta        = 326

  ==> Algorithm <==

  SCF Algorithm Type is DF.
  DIIS enabled.
  MOM disabled.
  Fractional occupation disabled.
  Guess Type is SAD.
  Energy threshold   = 1.00e-08
  Density threshold  = 1.00e-08
  Integral threshold = 1.00e-12

  ==> Primary Basis <==

  Basis Set: JUN-CC-PVDZ
    Blend: JUN-CC-PVDZ
    Number of shells: 923
    Number of basis functions: 2019
    Number of Cartesian functions: 2122
    Spherical Harmonics?: true
    Max angular momentum: 2

   => Loading Basis Set <=

    Name: (JUN-CC-PVDZ AUX)
    Role: JKFIT
    Keyword: DF_BASIS_SCF
    atoms 1-2, 4-5, 10, 17-34, 41-53, 56-70, 73-89, 92-104, 109-119, 122-130 entry C          line   146 file /opt/software/pc2/EB-SW/software/PSI4/1.9-foss-2022a/share/psi4/basis/jun-cc-pvdz-jkfit.gbs 
    atoms 3, 6                                                               entry N          line   202 file /opt/software/pc2/EB-SW/software/PSI4/1.9-foss-2022a/share/psi4/basis/jun-cc-pvdz-jkfit.gbs 
    atoms 7-9, 11-16, 35-40, 54-55, 71-72, 90-91, 105-108, 120-121, 131-136  entry H          line    70 file /opt/software/pc2/EB-SW/software/PSI4/1.9-foss-2022a/share/psi4/basis/jun-cc-pvdz-jkfit.gbs 

  ==> Integral Setup <==

  ==> DiskDFJK: Density-Fitted J/K Matrices <==

    J tasked:                  Yes
    K tasked:                  Yes
    wK tasked:                  No
    OpenMP threads:             16
    Integrals threads:          16
    Memory [MiB]:            45776
    Algorithm:                Disk
    Integral Cache:           SAVE
    Schwarz Cutoff:          1E-12
    Fitting Condition:       1E-10

   => Auxiliary Basis Set <=

  Basis Set: (JUN-CC-PVDZ AUX)
    Blend: JUN-CC-PVDZ-JKFIT
    Number of shells: 3078
    Number of basis functions: 8896
    Number of Cartesian functions: 10198
    Spherical Harmonics?: true
    Max angular momentum: 3

  Minimum eigenvalue in the overlap matrix is 7.5705615375E-11.
  Reciprocal condition number of the overlap matrix is 2.9780926074E-12.
    Using canonical orthogonalization.
  Overall, 41 of 2019 possible MOs eliminated.


  ==> Pre-Iterations <==

  SCF Guess: Superposition of Atomic Densities via on-the-fly atomic UHF (no occupation information).

   -------------------------
    Irrep   Nso     Nmo    
   -------------------------
     A       2019    1978 
   -------------------------
    Total    2019    1978
   -------------------------

  ==> Iterations <==

                           Total Energy        Delta E     RMS |[F,P]|

   @DF-RHF iter SAD: -3967.49743358315527   -3.96750e+03   0.00000e+00 
   @DF-RHF iter   1: -3952.12170475104631    1.53757e+01   7.16148e-04 DIIS/ADIIS
   @DF-RHF iter   2: -3953.50698032820492   -1.38528e+00   2.35641e-04 DIIS/ADIIS
   @DF-RHF iter   3: -3953.62958321735005   -1.22603e-01   1.05538e-04 DIIS/ADIIS
   @DF-RHF iter   4: -3953.65349889298795   -2.39157e-02   4.53147e-05 DIIS
   @DF-RHF iter   5: -3953.65858723139900   -5.08834e-03   1.21419e-05 DIIS
   @DF-RHF iter   6: -3953.65911688256438   -5.29651e-04   4.75168e-06 DIIS
   @DF-RHF iter   7: -3953.65931209072596   -1.95208e-04   2.27535e-06 DIIS
   @DF-RHF iter   8: -3953.65937753714161   -6.54464e-05   1.12674e-06 DIIS
   @DF-RHF iter   9: -3953.65939635708537   -1.88199e-05   3.70192e-07 DIIS
   @DF-RHF iter  10: -3953.65939765213488   -1.29505e-06   1.48391e-07 DIIS
   @DF-RHF iter  11: -3953.65939780747431   -1.55339e-07   6.54486e-08 DIIS
   @DF-RHF iter  12: -3953.65939784093098   -3.34567e-08   3.56500e-08 DIIS
   @DF-RHF iter  13: -3953.65939785081628   -9.88530e-09   1.40955e-08 DIIS
   @DF-RHF iter  14: -3953.65939785225328   -1.43700e-09   7.08295e-09 DIIS
  Energy and wave function converged.


  ==> Post-Iterations <==

    Orbital Energies [Eh]
    ---------------------

    Doubly Occupied:                                                      

       1A    -15.792359     2A    -15.791742     3A    -11.487694  
       4A    -11.418307     5A    -11.416757     6A    -11.408869  
       7A    -11.407098     8A    -11.341473     9A    -11.340967  
      10A    -11.340445    11A    -11.339965    12A    -11.339756  
      13A    -11.339214    14A    -11.338994    15A    -11.338835  
      16A    -11.338727    17A    -11.338439    18A    -11.338213  
      19A    -11.337188    20A    -11.337109    21A    -11.336965  
      22A    -11.336920    23A    -11.336762    24A    -11.336116  
      25A    -11.335923    26A    -11.335870    27A    -11.335722  
      28A    -11.335548    29A    -11.335455    30A    -11.334428  
      31A    -11.334272    32A    -11.332243    33A    -11.332010  
      34A    -11.331833    35A    -11.331707    36A    -11.331540  
      37A    -11.331494    38A    -11.331461    39A    -11.331300  
      40A    -11.330662    41A    -11.330625    42A    -11.330168  
      43A    -11.330010    44A    -11.329010    45A    -11.328891  
      46A    -11.328869    47A    -11.328767    48A    -11.328709  
      49A    -11.328649    50A    -11.328409    51A    -11.328175  
      52A    -11.328102    53A    -11.327980    54A    -11.327858  
      55A    -11.327793    56A    -11.327720    57A    -11.327717  
      58A    -11.327680    59A    -11.327658    60A    -11.327638  
      61A    -11.327391    62A    -11.327193    63A    -11.327103  
      64A    -11.327034    65A    -11.326659    66A    -11.326627  
      67A    -11.326262    68A    -11.326203    69A    -11.326191  
      70A    -11.326168    71A    -11.326114    72A    -11.325959  
      73A    -11.325937    74A    -11.325906    75A    -11.325821  
      76A    -11.325310    77A    -11.325271    78A    -11.324911  
      79A    -11.324903    80A    -11.319005    81A    -11.318985  
      82A    -11.318955    83A    -11.318915    84A    -11.318909  
      85A    -11.318879    86A    -11.318846    87A    -11.318827  
      88A    -11.318224    89A    -11.318168    90A    -11.317873  
      91A    -11.317793    92A    -11.315927    93A    -11.315895  
      94A    -11.315861    95A    -11.315860    96A    -11.314975  
      97A    -11.314952    98A    -11.314446    99A    -11.314423  
     100A    -11.314390   101A    -11.314382   102A    -11.313499  
     103A    -11.313477   104A     -1.535556   105A     -1.391349  
     106A     -1.328321   107A     -1.310494   108A     -1.309721  
     109A     -1.289607   110A     -1.289469   111A     -1.286605  
     112A     -1.268464   113A     -1.263747   114A     -1.259246  
     115A     -1.258584   116A     -1.240661   117A     -1.240638  
     118A     -1.225878   119A     -1.225659   120A     -1.223084  
     121A     -1.211051   122A     -1.211028   123A     -1.197222  
     124A     -1.196681   125A     -1.184581   126A     -1.182714  
     127A     -1.182210   128A     -1.179277   129A     -1.177509  
     130A     -1.156752   131A     -1.156716   132A     -1.147647  
     133A     -1.142859   134A     -1.142819   135A     -1.136759  
     136A     -1.136694   137A     -1.134661   138A     -1.114320  
     139A     -1.114301   140A     -1.108268   141A     -1.104593  
     142A     -1.104509   143A     -1.095523   144A     -1.093084  
     145A     -1.092670   146A     -1.077713   147A     -1.075464  
     148A     -1.073766   149A     -1.070844   150A     -1.069571  
     151A     -1.069475   152A     -1.056294   153A     -1.039245  
     154A     -1.039148   155A     -1.022339   156A     -1.022292  
     157A     -0.980684   158A     -0.976608   159A     -0.976568  
     160A     -0.975892   161A     -0.970593   162A     -0.970567  
     163A     -0.963249   164A     -0.963131   165A     -0.959773  
     166A     -0.959676   167A     -0.958349   168A     -0.955326  
     169A     -0.938095   170A     -0.932983   171A     -0.918890  
     172A     -0.917304   173A     -0.916984   174A     -0.914352  
     175A     -0.911686   176A     -0.901817   177A     -0.901747  
     178A     -0.893283   179A     -0.893225   180A     -0.875785  
     181A     -0.854179   182A     -0.853890   183A     -0.851202  
     184A     -0.850015   185A     -0.849988   186A     -0.848894  
     187A     -0.848870   188A     -0.835065   189A     -0.830918  
     190A     -0.819043   191A     -0.809854   192A     -0.799338  
     193A     -0.794881   194A     -0.794541   195A     -0.792906  
     196A     -0.792277   197A     -0.792037   198A     -0.787550  
     199A     -0.782654   200A     -0.782516   201A     -0.775222  
     202A     -0.771492   203A     -0.766086   204A     -0.765953  
     205A     -0.755140   206A     -0.752384   207A     -0.752311  
     208A     -0.749203   209A     -0.749146   210A     -0.748815  
     211A     -0.747027   212A     -0.746227   213A     -0.740864  
     214A     -0.719646   215A     -0.718813   216A     -0.718602  
     217A     -0.717619   218A     -0.717593   219A     -0.715687  
     220A     -0.709741   221A     -0.709472   222A     -0.706778  
     223A     -0.705338   224A     -0.703975   225A     -0.703818  
     226A     -0.696432   227A     -0.693769   228A     -0.689289  
     229A     -0.685836   230A     -0.680600   231A     -0.680499  
     232A     -0.677355   233A     -0.675778   234A     -0.675739  
     235A     -0.670242   236A     -0.669627   237A     -0.668196  
     238A     -0.667331   239A     -0.667094   240A     -0.665667  
     241A     -0.662382   242A     -0.661945   243A     -0.661813  
     244A     -0.661564   245A     -0.657949   246A     -0.657861  
     247A     -0.657137   248A     -0.644751   249A     -0.644261  
     250A     -0.642024   251A     -0.641899   252A     -0.641215  
     253A     -0.639893   254A     -0.637407   255A     -0.637309  
     256A     -0.632894   257A     -0.632686   258A     -0.626590  
     259A     -0.626301   260A     -0.624812   261A     -0.623174  
     262A     -0.621438   263A     -0.617715   264A     -0.612225  
     265A     -0.611013   266A     -0.606418   267A     -0.606230  
     268A     -0.600284   269A     -0.600157   270A     -0.597031  
     271A     -0.593998   272A     -0.593946   273A     -0.584508  
     274A     -0.584320   275A     -0.581846   276A     -0.581728  
     277A     -0.575192   278A     -0.575110   279A     -0.565038  
     280A     -0.564717   281A     -0.564109   282A     -0.563602  
     283A     -0.563358   284A     -0.560377   285A     -0.554663  
     286A     -0.546833   287A     -0.543152   288A     -0.543098  
     289A     -0.540284   290A     -0.538024   291A     -0.533971  
     292A     -0.533879   293A     -0.527196   294A     -0.516816  
     295A     -0.516614   296A     -0.512848   297A     -0.511479  
     298A     -0.511276   299A     -0.499762   300A     -0.499334  
     301A     -0.480668   302A     -0.475923   303A     -0.475773  
     304A     -0.456152   305A     -0.455955   306A     -0.453876  
     307A     -0.450711   308A     -0.450524   309A     -0.421849  
     310A     -0.421800   311A     -0.418730   312A     -0.411460  
     313A     -0.409642   314A     -0.408674   315A     -0.397705  
     316A     -0.397485   317A     -0.377131   318A     -0.372598  
     319A     -0.372526   320A     -0.367452   321A     -0.352763  
     322A     -0.323128   323A     -0.322969   324A     -0.319916  
     325A     -0.271682   326A     -0.271441  

    Virtual:                                                              

     327A     -0.078962   328A     -0.078589   329A     -0.043913  
     330A     -0.035124   331A     -0.034932   332A     -0.025816  
     333A     -0.023650   334A     -0.021714   335A     -0.014663  
     336A     -0.007392   337A     -0.005476   338A     -0.003990  
     339A     -0.003629   340A     -0.002873   341A     -0.002198  
     342A      0.000251   343A      0.000312   344A      0.002158  
     345A      0.002900   346A      0.003050   347A      0.005048  
     348A      0.007324   349A      0.007697   350A      0.008241  
     351A      0.011241   352A      0.013381   353A      0.013416  
     354A      0.013922   355A      0.014742   356A      0.017259  
     357A      0.017666   358A      0.022258   359A      0.024465  
     360A      0.024515   361A      0.025409   362A      0.025818  
     363A      0.028714   364A      0.030781   365A      0.032953  
     366A      0.034639   367A      0.037842   368A      0.038843  
     369A      0.040200   370A      0.040763   371A      0.041527  
     372A      0.042308   373A      0.044041   374A      0.044853  
     375A      0.047757   376A      0.048392   377A      0.050321  
     378A      0.050525   379A      0.050827   380A      0.050944  
     381A      0.051780   382A      0.052510   383A      0.053328  
     384A      0.053687   385A      0.053952   386A      0.056866  
     387A      0.058555   388A      0.060086   389A      0.060625  
     390A      0.064214   391A      0.067674   392A      0.068025  
     393A      0.069140   394A      0.072140   395A      0.072828  
     396A      0.074874   397A      0.075033   398A      0.075837  
     399A      0.076788   400A      0.077974   401A      0.080247  
     402A      0.081245   403A      0.081451   404A      0.083525  
     405A      0.084021   406A      0.084890   407A      0.087326  
     408A      0.088257   409A      0.089526   410A      0.090318  
     411A      0.091024   412A      0.094680   413A      0.096832  
     414A      0.097512   415A      0.101444   416A      0.103389  
     417A      0.105267   418A      0.106093   419A      0.106504  
     420A      0.106585   421A      0.106700   422A      0.108953  
     423A      0.109931   424A      0.110847   425A      0.112031  
     426A      0.112883   427A      0.113754   428A      0.114660  
     429A      0.116203   430A      0.118725   431A      0.121570  
     432A      0.122853   433A      0.125119   434A      0.126074  
     435A      0.126161   436A      0.127266   437A      0.129251  
     438A      0.129775   439A      0.130394   440A      0.133169  
     441A      0.134102   442A      0.134261   443A      0.134767  
     444A      0.137049   445A      0.139330   446A      0.140475  
     447A      0.142138   448A      0.144232   449A      0.144957  
     450A      0.145417   451A      0.145569   452A      0.146622  
     453A      0.146635   454A      0.148365   455A      0.149291  
     456A      0.150378   457A      0.150659   458A      0.151417  
     459A      0.151928   460A      0.152616   461A      0.153231  
     462A      0.154118   463A      0.154450   464A      0.156194  
     465A      0.157762   466A      0.157851   467A      0.158513  
     468A      0.158769   469A      0.160216   470A      0.163481  
     471A      0.164328   472A      0.164506   473A      0.165832  
     474A      0.167694   475A      0.169233   476A      0.170055  
     477A      0.172035   478A      0.172392   479A      0.172528  
     480A      0.172737   481A      0.173330   482A      0.174062  
     483A      0.174680   484A      0.177639   485A      0.178572  
     486A      0.179025   487A      0.180304   488A      0.181752  
     489A      0.182664   490A      0.183270   491A      0.184370  
     492A      0.188159   493A      0.190090   494A      0.192378  
     495A      0.192809   496A      0.192994   497A      0.193271  
     498A      0.194070   499A      0.194893   500A      0.197325  
     501A      0.198085   502A      0.199455   503A      0.200471  
     504A      0.201087   505A      0.201412   506A      0.203441  
     507A      0.204123   508A      0.204984   509A      0.206059  
     510A      0.206759   511A      0.207144   512A      0.208169  
     513A      0.208667   514A      0.209906   515A      0.210583  
     516A      0.211511   517A      0.211817   518A      0.213405  
     519A      0.214571   520A      0.215718   521A      0.218278  
     522A      0.219425   523A      0.219889   524A      0.221465  
     525A      0.222851   526A      0.224223   527A      0.224788  
     528A      0.226213   529A      0.227153   530A      0.227383  
     531A      0.228534   532A      0.229800   533A      0.230481  
     534A      0.231316   535A      0.233865   536A      0.234996  
     537A      0.235555   538A      0.236616   539A      0.237207  
     540A      0.237943   541A      0.238509   542A      0.239287  
     543A      0.241105   544A      0.242173   545A      0.243664  
     546A      0.244579   547A      0.244731   548A      0.245964  
     549A      0.245995   550A      0.247717   551A      0.250680  
     552A      0.251839   553A      0.252822   554A      0.253333  
     555A      0.255161   556A      0.255813   557A      0.256406  
     558A      0.257449   559A      0.258126   560A      0.258290  
     561A      0.258828   562A      0.259807   563A      0.260634  
     564A      0.261662   565A      0.262467   566A      0.263259  
     567A      0.264320   568A      0.264710   569A      0.266421  
     570A      0.268084   571A      0.268610   572A      0.269210  
     573A      0.270810   574A      0.270979   575A      0.271732  
     576A      0.272402   577A      0.272900   578A      0.273320  
     579A      0.274080   580A      0.275269   581A      0.276074  
     582A      0.277919   583A      0.278095   584A      0.279659  
     585A      0.280947   586A      0.282384   587A      0.284352  
     588A      0.286047   589A      0.286431   590A      0.286534  
     591A      0.287416   592A      0.289283   593A      0.289603  
     594A      0.289964   595A      0.290695   596A      0.291685  
     597A      0.293082   598A      0.293662   599A      0.295118  
     600A      0.296620   601A      0.298966   602A      0.299066  
     603A      0.299674   604A      0.300702   605A      0.300756  
     606A      0.301077   607A      0.303155   608A      0.305520  
     609A      0.305734   610A      0.307158   611A      0.308780  
     612A      0.309818   613A      0.310488   614A      0.311348  
     615A      0.311419   616A      0.314303   617A      0.314817  
     618A      0.315793   619A      0.317398   620A      0.317801  
     621A      0.318736   622A      0.319085   623A      0.319931  
     624A      0.320147   625A      0.320721   626A      0.321419  
     627A      0.322444   628A      0.322825   629A      0.325347  
     630A      0.327192   631A      0.328227   632A      0.329099  
     633A      0.329384   634A      0.329836   635A      0.330901  
     636A      0.331514   637A      0.332344   638A      0.333268  
     639A      0.333652   640A      0.334051   641A      0.335047  
     642A      0.335683   643A      0.336431   644A      0.337415  
     645A      0.339873   646A      0.340395   647A      0.340784  
     648A      0.341514   649A      0.342162   650A      0.342289  
     651A      0.343097   652A      0.343571   653A      0.344183  
     654A      0.345337   655A      0.345526   656A      0.346916  
     657A      0.347477   658A      0.348966   659A      0.350075  
     660A      0.350864   661A      0.351124   662A      0.352945  
     663A      0.353724   664A      0.353878   665A      0.355568  
     666A      0.357436   667A      0.357810   668A      0.358251  
     669A      0.358550   670A      0.359423   671A      0.362548  
     672A      0.362624   673A      0.365074   674A      0.365218  
     675A      0.365964   676A      0.367435   677A      0.368268  
     678A      0.368531   679A      0.368800   680A      0.371127  
     681A      0.371360   682A      0.372306   683A      0.373249  
     684A      0.374328   685A      0.375940   686A      0.376896  
     687A      0.378132   688A      0.378691   689A      0.380116  
     690A      0.381096   691A      0.381337   692A      0.382576  
     693A      0.383843   694A      0.386195   695A      0.386897  
     696A      0.388568   697A      0.389221   698A      0.389843  
     699A      0.390427   700A      0.391207   701A      0.392388  
     702A      0.392929   703A      0.393204   704A      0.394311  
     705A      0.395630   706A      0.398439   707A      0.398585  
     708A      0.398669   709A      0.401793   710A      0.402175  
     711A      0.403630   712A      0.404147   713A      0.405175  
     714A      0.406075   715A      0.406776   716A      0.407501  
     717A      0.408566   718A      0.409034   719A      0.409630  
     720A      0.410547   721A      0.412080   722A      0.412742  
     723A      0.413748   724A      0.415279   725A      0.415581  
     726A      0.416629   727A      0.419109   728A      0.419834  
     729A      0.420916   730A      0.422110   731A      0.422244  
     732A      0.423615   733A      0.426427   734A      0.427907  
     735A      0.428868   736A      0.429590   737A      0.431134  
     738A      0.431712   739A      0.433193   740A      0.433263  
     741A      0.434434   742A      0.435209   743A      0.436044  
     744A      0.437785   745A      0.439904   746A      0.441328  
     747A      0.441771   748A      0.442167   749A      0.443425  
     750A      0.443547   751A      0.444788   752A      0.446964  
     753A      0.449658   754A      0.450356   755A      0.451184  
     756A      0.452715   757A      0.453330   758A      0.454512  
     759A      0.454743   760A      0.455850   761A      0.457700  
     762A      0.458668   763A      0.459316   764A      0.460863  
     765A      0.461700   766A      0.462384   767A      0.465721  
     768A      0.465839   769A      0.466322   770A      0.468012  
     771A      0.470121   772A      0.470535   773A      0.472603  
     774A      0.475098   775A      0.475758   776A      0.477105  
     777A      0.478035   778A      0.479363   779A      0.479539  
     780A      0.482564   781A      0.487157   782A      0.490445  
     783A      0.493744   784A      0.496778   785A      0.497025  
     786A      0.497768   787A      0.498683   788A      0.500298  
     789A      0.501771   790A      0.502377   791A      0.504297  
     792A      0.507186   793A      0.508088   794A      0.508469  
     795A      0.510473   796A      0.511414   797A      0.511928  
     798A      0.512991   799A      0.513545   800A      0.514779  
     801A      0.515381   802A      0.517174   803A      0.518299  
     804A      0.519301   805A      0.519439   806A      0.520710  
     807A      0.522948   808A      0.525658   809A      0.525953  
     810A      0.531740   811A      0.532131   812A      0.532921  
     813A      0.534310   814A      0.535621   815A      0.538710  
     816A      0.539365   817A      0.541529   818A      0.542262  
     819A      0.542342   820A      0.543614   821A      0.548626  
     822A      0.550301   823A      0.553244   824A      0.554852  
     825A      0.555795   826A      0.557323   827A      0.559153  
     828A      0.560479   829A      0.565940   830A      0.567375  
     831A      0.572565   832A      0.573316   833A      0.574166  
     834A      0.577458   835A      0.581756   836A      0.587788  
     837A      0.588109   838A      0.590777   839A      0.591317  
     840A      0.592533   841A      0.593446   842A      0.594490  
     843A      0.599957   844A      0.601824   845A      0.605089  
     846A      0.606883   847A      0.608573   848A      0.610013  
     849A      0.611087   850A      0.613944   851A      0.618556  
     852A      0.621386   853A      0.625142   854A      0.625410  
     855A      0.626463   856A      0.628735   857A      0.631471  
     858A      0.632359   859A      0.634278   860A      0.634822  
     861A      0.638585   862A      0.639909   863A      0.644643  
     864A      0.646261   865A      0.657317   866A      0.658727  
     867A      0.664433   868A      0.667669   869A      0.670009  
     870A      0.674859   871A      0.675039   872A      0.676824  
     873A      0.678552   874A      0.678951   875A      0.681173  
     876A      0.682963   877A      0.685960   878A      0.691016  
     879A      0.709280   880A      0.716385   881A      0.717484  
     882A      0.720817   883A      0.723218   884A      0.726197  
     885A      0.727818   886A      0.728429   887A      0.730018  
     888A      0.731120   889A      0.737337   890A      0.737893  
     891A      0.741877   892A      0.743878   893A      0.745328  
     894A      0.746719   895A      0.752416   896A      0.752997  
     897A      0.754655   898A      0.755681   899A      0.758932  
     900A      0.761087   901A      0.762490   902A      0.763310  
     903A      0.764182   904A      0.767539   905A      0.769988  
     906A      0.771168   907A      0.772138   908A      0.773877  
     909A      0.774830   910A      0.775435   911A      0.779347  
     912A      0.781545   913A      0.783659   914A      0.786784  
     915A      0.787599   916A      0.789021   917A      0.790398  
     918A      0.793276   919A      0.793474   920A      0.795916  
     921A      0.796904   922A      0.799090   923A      0.803286  
     924A      0.804415   925A      0.804715   926A      0.806118  
     927A      0.807028   928A      0.808479   929A      0.810700  
     930A      0.813140   931A      0.813370   932A      0.814717  
     933A      0.815433   934A      0.818352   935A      0.819954  
     936A      0.820732   937A      0.822797   938A      0.824439  
     939A      0.824732   940A      0.825413   941A      0.827472  
     942A      0.828331   943A      0.829860   944A      0.830996  
     945A      0.834161   946A      0.835712   947A      0.836797  
     948A      0.841459   949A      0.843179   950A      0.844835  
     951A      0.846738   952A      0.848903   953A      0.850124  
     954A      0.851756   955A      0.853650   956A      0.853939  
     957A      0.854634   958A      0.856336   959A      0.856872  
     960A      0.857027   961A      0.857808   962A      0.860764  
     963A      0.861204   964A      0.862429   965A      0.863751  
     966A      0.866758   967A      0.868675   968A      0.869611  
     969A      0.873153   970A      0.873677   971A      0.874758  
     972A      0.875951   973A      0.876336   974A      0.878265  
     975A      0.879080   976A      0.880147   977A      0.881340  
     978A      0.883794   979A      0.885186   980A      0.887927  
     981A      0.889282   982A      0.889759   983A      0.889907  
     984A      0.890138   985A      0.890862   986A      0.892481  
     987A      0.893717   988A      0.897310   989A      0.898178  
     990A      0.899134   991A      0.902673   992A      0.903835  
     993A      0.906845   994A      0.907957   995A      0.910775  
     996A      0.912416   997A      0.915995   998A      0.916842  
     999A      0.920267  1000A      0.923521  1001A      0.924109  
    1002A      0.926051  1003A      0.926433  1004A      0.927798  
    1005A      0.928469  1006A      0.929621  1007A      0.933369  
    1008A      0.935091  1009A      0.937624  1010A      0.937919  
    1011A      0.939778  1012A      0.940769  1013A      0.942139  
    1014A      0.942833  1015A      0.944858  1016A      0.945442  
    1017A      0.947543  1018A      0.947862  1019A      0.950134  
    1020A      0.953706  1021A      0.955072  1022A      0.957302  
    1023A      0.958226  1024A      0.958980  1025A      0.960508  
    1026A      0.961956  1027A      0.962650  1028A      0.965462  
    1029A      0.966956  1030A      0.968557  1031A      0.969352  
    1032A      0.970287  1033A      0.972151  1034A      0.975245  
    1035A      0.975982  1036A      0.977954  1037A      0.979197  
    1038A      0.981636  1039A      0.982442  1040A      0.983363  
    1041A      0.983756  1042A      0.984484  1043A      0.985263  
    1044A      0.987663  1045A      0.988515  1046A      0.990472  
    1047A      0.991411  1048A      0.992882  1049A      0.993625  
    1050A      0.995786  1051A      0.996840  1052A      0.997566  
    1053A      0.999162  1054A      1.000391  1055A      1.001701  
    1056A      1.002449  1057A      1.003933  1058A      1.004332  
    1059A      1.004730  1060A      1.005869  1061A      1.006947  
    1062A      1.007141  1063A      1.008808  1064A      1.009027  
    1065A      1.010351  1066A      1.011055  1067A      1.011970  
    1068A      1.012987  1069A      1.014245  1070A      1.014459  
    1071A      1.015810  1072A      1.017208  1073A      1.018892  
    1074A      1.019083  1075A      1.020191  1076A      1.021080  
    1077A      1.022317  1078A      1.023218  1079A      1.023817  
    1080A      1.024268  1081A      1.024938  1082A      1.025262  
    1083A      1.026323  1084A      1.026634  1085A      1.027229  
    1086A      1.028044  1087A      1.030772  1088A      1.032431  
    1089A      1.033576  1090A      1.034135  1091A      1.036547  
    1092A      1.037038  1093A      1.037891  1094A      1.038974  
    1095A      1.041259  1096A      1.042124  1097A      1.043736  
    1098A      1.045131  1099A      1.045851  1100A      1.046753  
    1101A      1.048510  1102A      1.049751  1103A      1.052385  
    1104A      1.055247  1105A      1.057236  1106A      1.057889  
    1107A      1.059430  1108A      1.061384  1109A      1.062667  
    1110A      1.063198  1111A      1.065657  1112A      1.067378  
    1113A      1.069821  1114A      1.070906  1115A      1.074170  
    1116A      1.074389  1117A      1.075966  1118A      1.077042  
    1119A      1.079168  1120A      1.081134  1121A      1.083255  
    1122A      1.083452  1123A      1.085438  1124A      1.086074  
    1125A      1.087369  1126A      1.089881  1127A      1.091472  
    1128A      1.092729  1129A      1.093971  1130A      1.095664  
    1131A      1.095957  1132A      1.097957  1133A      1.100189  
    1134A      1.102713  1135A      1.104124  1136A      1.105381  
    1137A      1.108032  1138A      1.109763  1139A      1.112880  
    1140A      1.115259  1141A      1.118314  1142A      1.119341  
    1143A      1.120251  1144A      1.120614  1145A      1.124924  
    1146A      1.127495  1147A      1.128788  1148A      1.129921  
    1149A      1.131525  1150A      1.135943  1151A      1.139703  
    1152A      1.140398  1153A      1.141449  1154A      1.144760  
    1155A      1.144988  1156A      1.147129  1157A      1.150271  
    1158A      1.151483  1159A      1.152001  1160A      1.154125  
    1161A      1.156574  1162A      1.157720  1163A      1.158500  
    1164A      1.161898  1165A      1.163863  1166A      1.165978  
    1167A      1.166769  1168A      1.169592  1169A      1.172982  
    1170A      1.174975  1171A      1.177636  1172A      1.178503  
    1173A      1.183550  1174A      1.185597  1175A      1.186692  
    1176A      1.189693  1177A      1.193999  1178A      1.196952  
    1179A      1.197337  1180A      1.197840  1181A      1.198476  
    1182A      1.200489  1183A      1.207234  1184A      1.208156  
    1185A      1.211063  1186A      1.216087  1187A      1.217988  
    1188A      1.220684  1189A      1.220994  1190A      1.222230  
    1191A      1.225666  1192A      1.226614  1193A      1.227234  
    1194A      1.228273  1195A      1.229674  1196A      1.230784  
    1197A      1.233458  1198A      1.237516  1199A      1.239032  
    1200A      1.240932  1201A      1.241216  1202A      1.242896  
    1203A      1.246443  1204A      1.248086  1205A      1.249821  
    1206A      1.250899  1207A      1.253100  1208A      1.254006  
    1209A      1.255644  1210A      1.255764  1211A      1.256836  
    1212A      1.259050  1213A      1.259822  1214A      1.262024  
    1215A      1.263933  1216A      1.267293  1217A      1.268531  
    1218A      1.268938  1219A      1.271831  1220A      1.273365  
    1221A      1.273448  1222A      1.274532  1223A      1.275388  
    1224A      1.279246  1225A      1.280255  1226A      1.282711  
    1227A      1.286866  1228A      1.287609  1229A      1.287983  
    1230A      1.292266  1231A      1.295666  1232A      1.296713  
    1233A      1.298085  1234A      1.300371  1235A      1.301879  
    1236A      1.304075  1237A      1.306119  1238A      1.307330  
    1239A      1.310227  1240A      1.313597  1241A      1.314399  
    1242A      1.316939  1243A      1.318235  1244A      1.320861  
    1245A      1.322043  1246A      1.323631  1247A      1.325989  
    1248A      1.329482  1249A      1.331620  1250A      1.334583  
    1251A      1.335749  1252A      1.341039  1253A      1.343149  
    1254A      1.343625  1255A      1.344779  1256A      1.347973  
    1257A      1.351242  1258A      1.352586  1259A      1.353665  
    1260A      1.354243  1261A      1.361719  1262A      1.362137  
    1263A      1.362638  1264A      1.364917  1265A      1.365151  
    1266A      1.367028  1267A      1.370202  1268A      1.372304  
    1269A      1.372894  1270A      1.375110  1271A      1.375789  
    1272A      1.377110  1273A      1.381696  1274A      1.382345  
    1275A      1.383272  1276A      1.384996  1277A      1.387307  
    1278A      1.389888  1279A      1.390046  1280A      1.391209  
    1281A      1.393507  1282A      1.394662  1283A      1.396952  
    1284A      1.400400  1285A      1.404473  1286A      1.408671  
    1287A      1.411236  1288A      1.415136  1289A      1.417648  
    1290A      1.417876  1291A      1.420011  1292A      1.421174  
    1293A      1.424533  1294A      1.428839  1295A      1.431126  
    1296A      1.432733  1297A      1.436447  1298A      1.439102  
    1299A      1.439661  1300A      1.440400  1301A      1.447199  
    1302A      1.448716  1303A      1.460565  1304A      1.463897  
    1305A      1.467056  1306A      1.471754  1307A      1.473939  
    1308A      1.480565  1309A      1.482969  1310A      1.485580  
    1311A      1.489833  1312A      1.493267  1313A      1.502748  
    1314A      1.509524  1315A      1.511623  1316A      1.515341  
    1317A      1.524197  1318A      1.528118  1319A      1.529941  
    1320A      1.533020  1321A      1.534728  1322A      1.536229  
    1323A      1.540054  1324A      1.541557  1325A      1.542942  
    1326A      1.543428  1327A      1.545172  1328A      1.546971  
    1329A      1.548364  1330A      1.549843  1331A      1.551488  
    1332A      1.553550  1333A      1.554269  1334A      1.555821  
    1335A      1.558136  1336A      1.559618  1337A      1.560866  
    1338A      1.562659  1339A      1.563105  1340A      1.564715  
    1341A      1.565303  1342A      1.566904  1343A      1.567876  
    1344A      1.570130  1345A      1.571684  1346A      1.572763  
    1347A      1.573563  1348A      1.574693  1349A      1.575466  
    1350A      1.576491  1351A      1.577343  1352A      1.579576  
    1353A      1.580605  1354A      1.584656  1355A      1.587436  
    1356A      1.589662  1357A      1.590179  1358A      1.592496  
    1359A      1.593417  1360A      1.595406  1361A      1.596235  
    1362A      1.597081  1363A      1.597878  1364A      1.599004  
    1365A      1.600221  1366A      1.600769  1367A      1.602237  
    1368A      1.603709  1369A      1.608971  1370A      1.610283  
    1371A      1.612346  1372A      1.615524  1373A      1.616869  
    1374A      1.620918  1375A      1.624039  1376A      1.627934  
    1377A      1.628910  1378A      1.630253  1379A      1.630453  
    1380A      1.631430  1381A      1.634412  1382A      1.640977  
    1383A      1.641772  1384A      1.644442  1385A      1.645919  
    1386A      1.646780  1387A      1.647605  1388A      1.649349  
    1389A      1.650784  1390A      1.654099  1391A      1.654724  
    1392A      1.655065  1393A      1.659072  1394A      1.659733  
    1395A      1.662620  1396A      1.668359  1397A      1.668802  
    1398A      1.673104  1399A      1.675608  1400A      1.681520  
    1401A      1.682327  1402A      1.683849  1403A      1.685805  
    1404A      1.687913  1405A      1.694367  1406A      1.697886  
    1407A      1.700659  1408A      1.703942  1409A      1.711487  
    1410A      1.716966  1411A      1.722292  1412A      1.722677  
    1413A      1.729837  1414A      1.732264  1415A      1.732628  
    1416A      1.747565  1417A      1.750214  1418A      1.755076  
    1419A      1.757680  1420A      1.759171  1421A      1.760832  
    1422A      1.761920  1423A      1.762842  1424A      1.764145  
    1425A      1.765498  1426A      1.766774  1427A      1.769612  
    1428A      1.770251  1429A      1.772413  1430A      1.774852  
    1431A      1.777849  1432A      1.780881  1433A      1.783935  
    1434A      1.785245  1435A      1.787574  1436A      1.789730  
    1437A      1.793405  1438A      1.793906  1439A      1.794597  
    1440A      1.795714  1441A      1.799803  1442A      1.801880  
    1443A      1.803757  1444A      1.804457  1445A      1.806286  
    1446A      1.808592  1447A      1.810145  1448A      1.812695  
    1449A      1.815091  1450A      1.816814  1451A      1.817093  
    1452A      1.817513  1453A      1.819117  1454A      1.820305  
    1455A      1.821037  1456A      1.821357  1457A      1.822208  
    1458A      1.823520  1459A      1.828747  1460A      1.833478  
    1461A      1.838107  1462A      1.839614  1463A      1.841822  
    1464A      1.843112  1465A      1.844168  1466A      1.846520  
    1467A      1.848405  1468A      1.850804  1469A      1.852962  
    1470A      1.853702  1471A      1.855420  1472A      1.857315  
    1473A      1.860267  1474A      1.860704  1475A      1.862063  
    1476A      1.865688  1477A      1.868743  1478A      1.871138  
    1479A      1.873934  1480A      1.874252  1481A      1.875690  
    1482A      1.875894  1483A      1.878535  1484A      1.879934  
    1485A      1.881847  1486A      1.882866  1487A      1.883825  
    1488A      1.885333  1489A      1.886863  1490A      1.891208  
    1491A      1.892948  1492A      1.893850  1493A      1.894764  
    1494A      1.897553  1495A      1.899275  1496A      1.900459  
    1497A      1.901727  1498A      1.903126  1499A      1.905523  
    1500A      1.906355  1501A      1.907592  1502A      1.909903  
    1503A      1.910511  1504A      1.911427  1505A      1.914728  
    1506A      1.917723  1507A      1.919887  1508A      1.923786  
    1509A      1.924456  1510A      1.927248  1511A      1.929172  
    1512A      1.930497  1513A      1.933084  1514A      1.936206  
    1515A      1.937217  1516A      1.942192  1517A      1.942608  
    1518A      1.945413  1519A      1.946923  1520A      1.948187  
    1521A      1.949769  1522A      1.950825  1523A      1.951556  
    1524A      1.953374  1525A      1.953988  1526A      1.954813  
    1527A      1.956153  1528A      1.957339  1529A      1.959406  
    1530A      1.960224  1531A      1.963245  1532A      1.966837  
    1533A      1.968678  1534A      1.971306  1535A      1.973026  
    1536A      1.974034  1537A      1.977710  1538A      1.978859  
    1539A      1.979281  1540A      1.980685  1541A      1.984426  
    1542A      1.985895  1543A      1.988398  1544A      1.989541  
    1545A      1.990327  1546A      1.994616  1547A      1.995736  
    1548A      1.996007  1549A      1.997396  1550A      1.999617  
    1551A      2.001545  1552A      2.003478  1553A      2.004243  
    1554A      2.005069  1555A      2.008439  1556A      2.008662  
    1557A      2.012863  1558A      2.014729  1559A      2.015039  
    1560A      2.015834  1561A      2.017320  1562A      2.017723  
    1563A      2.018874  1564A      2.019835  1565A      2.021367  
    1566A      2.022272  1567A      2.022662  1568A      2.026536  
    1569A      2.027280  1570A      2.027829  1571A      2.028077  
    1572A      2.028757  1573A      2.029655  1574A      2.031089  
    1575A      2.033796  1576A      2.035379  1577A      2.035814  
    1578A      2.037494  1579A      2.040093  1580A      2.041176  
    1581A      2.044099  1582A      2.045694  1583A      2.047284  
    1584A      2.048448  1585A      2.049401  1586A      2.050597  
    1587A      2.051011  1588A      2.052027  1589A      2.054924  
    1590A      2.055100  1591A      2.055632  1592A      2.057392  
    1593A      2.060007  1594A      2.061194  1595A      2.062002  
    1596A      2.063354  1597A      2.064110  1598A      2.064577  
    1599A      2.065775  1600A      2.067484  1601A      2.071152  
    1602A      2.074332  1603A      2.075680  1604A      2.078285  
    1605A      2.079449  1606A      2.080289  1607A      2.081535  
    1608A      2.082358  1609A      2.086045  1610A      2.087521  
    1611A      2.090144  1612A      2.091913  1613A      2.093296  
    1614A      2.094706  1615A      2.096781  1616A      2.097164  
    1617A      2.099425  1618A      2.100384  1619A      2.102117  
    1620A      2.104851  1621A      2.106853  1622A      2.110308  
    1623A      2.113124  1624A      2.113557  1625A      2.115462  
    1626A      2.117900  1627A      2.119425  1628A      2.120895  
    1629A      2.123077  1630A      2.124785  1631A      2.126296  
    1632A      2.127323  1633A      2.128237  1634A      2.130248  
    1635A      2.132223  1636A      2.135547  1637A      2.136568  
    1638A      2.137071  1639A      2.139654  1640A      2.140789  
    1641A      2.141132  1642A      2.144284  1643A      2.146642  
    1644A      2.149388  1645A      2.152280  1646A      2.152865  
    1647A      2.153993  1648A      2.156938  1649A      2.157931  
    1650A      2.161270  1651A      2.161918  1652A      2.163868  
    1653A      2.166396  1654A      2.168991  1655A      2.169730  
    1656A      2.170053  1657A      2.171487  1658A      2.173351  
    1659A      2.175178  1660A      2.180049  1661A      2.181123  
    1662A      2.184054  1663A      2.186425  1664A      2.189330  
    1665A      2.190483  1666A      2.201501  1667A      2.202986  
    1668A      2.205323  1669A      2.207737  1670A      2.211645  
    1671A      2.214174  1672A      2.215525  1673A      2.217902  
    1674A      2.219458  1675A      2.223888  1676A      2.225788  
    1677A      2.227672  1678A      2.229415  1679A      2.230937  
    1680A      2.234286  1681A      2.237150  1682A      2.240952  
    1683A      2.241364  1684A      2.246297  1685A      2.256323  
    1686A      2.258751  1687A      2.260802  1688A      2.262497  
    1689A      2.263850  1690A      2.264889  1691A      2.265715  
    1692A      2.266184  1693A      2.267084  1694A      2.269129  
    1695A      2.271861  1696A      2.274455  1697A      2.275166  
    1698A      2.275584  1699A      2.276369  1700A      2.277965  
    1701A      2.279095  1702A      2.281191  1703A      2.281522  
    1704A      2.283558  1705A      2.289367  1706A      2.292254  
    1707A      2.304347  1708A      2.304873  1709A      2.306927  
    1710A      2.314609  1711A      2.315661  1712A      2.320439  
    1713A      2.322567  1714A      2.329359  1715A      2.333491  
    1716A      2.334200  1717A      2.347422  1718A      2.352546  
    1719A      2.355064  1720A      2.358215  1721A      2.361439  
    1722A      2.364944  1723A      2.375477  1724A      2.381059  
    1725A      2.381174  1726A      2.384416  1727A      2.386996  
    1728A      2.398088  1729A      2.398535  1730A      2.401084  
    1731A      2.402179  1732A      2.405083  1733A      2.405845  
    1734A      2.406709  1735A      2.423655  1736A      2.427287  
    1737A      2.430007  1738A      2.433897  1739A      2.437591  
    1740A      2.441025  1741A      2.441949  1742A      2.447215  
    1743A      2.453414  1744A      2.462060  1745A      2.472265  
    1746A      2.473177  1747A      2.474763  1748A      2.476613  
    1749A      2.478199  1750A      2.482891  1751A      2.483832  
    1752A      2.485331  1753A      2.486422  1754A      2.486637  
    1755A      2.486818  1756A      2.487305  1757A      2.497148  
    1758A      2.505363  1759A      2.508406  1760A      2.519022  
    1761A      2.519748  1762A      2.520808  1763A      2.522977  
    1764A      2.523674  1765A      2.524629  1766A      2.526350  
    1767A      2.526808  1768A      2.532124  1769A      2.534517  
    1770A      2.536999  1771A      2.537507  1772A      2.545667  
    1773A      2.548020  1774A      2.549170  1775A      2.549580  
    1776A      2.549827  1777A      2.550235  1778A      2.559998  
    1779A      2.566781  1780A      2.576449  1781A      2.578437  
    1782A      2.578882  1783A      2.582172  1784A      2.582707  
    1785A      2.585738  1786A      2.585924  1787A      2.588436  
    1788A      2.591567  1789A      2.593868  1790A      2.595793  
    1791A      2.595909  1792A      2.602827  1793A      2.605150  
    1794A      2.605283  1795A      2.609418  1796A      2.609565  
    1797A      2.616637  1798A      2.618720  1799A      2.621325  
    1800A      2.622004  1801A      2.624252  1802A      2.624977  
    1803A      2.626851  1804A      2.627587  1805A      2.628020  
    1806A      2.629474  1807A      2.632918  1808A      2.638346  
    1809A      2.656345  1810A      2.658300  1811A      2.659557  
    1812A      2.662657  1813A      2.666552  1814A      2.667158  
    1815A      2.669416  1816A      2.687587  1817A      2.690953  
    1818A      2.694449  1819A      2.706652  1820A      2.707548  
    1821A      2.712900  1822A      2.715540  1823A      2.724597  
    1824A      2.730161  1825A      2.730541  1826A      2.731756  
    1827A      2.732982  1828A      2.733504  1829A      2.735167  
    1830A      2.740946  1831A      2.742401  1832A      2.744898  
    1833A      2.745421  1834A      2.750348  1835A      2.751125  
    1836A      2.753765  1837A      2.759297  1838A      2.762031  
    1839A      2.767022  1840A      2.770668  1841A      2.773253  
    1842A      2.775487  1843A      2.777492  1844A      2.779107  
    1845A      2.794965  1846A      2.796881  1847A      2.797770  
    1848A      2.798935  1849A      2.806828  1850A      2.808518  
    1851A      2.809888  1852A      2.814983  1853A      2.823578  
    1854A      2.824590  1855A      2.831378  1856A      2.853042  
    1857A      2.854515  1858A      2.861003  1859A      2.865718  
    1860A      2.866893  1861A      2.868756  1862A      2.870127  
    1863A      2.875630  1864A      2.879483  1865A      2.895278  
    1866A      2.900938  1867A      2.905457  1868A      2.909216  
    1869A      2.913114  1870A      2.930945  1871A      2.933367  
    1872A      2.962750  1873A      2.963082  1874A      2.977367  
    1875A      2.981080  1876A      2.984273  1877A      2.986779  
    1878A      2.987970  1879A      2.991107  1880A      2.992098  
    1881A      3.003864  1882A      3.006935  1883A      3.024781  
    1884A      3.044939  1885A      3.046389  1886A      3.047389  
    1887A      3.057883  1888A      3.064017  1889A      3.064551  
    1890A      3.065459  1891A      3.072426  1892A      3.077868  
    1893A      3.078739  1894A      3.080465  1895A      3.087413  
    1896A      3.088852  1897A      3.090165  1898A      3.091298  
    1899A      3.092505  1900A      3.097870  1901A      3.099024  
    1902A      3.111458  1903A      3.114054  1904A      3.115933  
    1905A      3.120089  1906A      3.125104  1907A      3.132714  
    1908A      3.133637  1909A      3.157439  1910A      3.191725  
    1911A      3.196441  1912A      3.196822  1913A      3.197869  
    1914A      3.200516  1915A      3.203954  1916A      3.208219  
    1917A      3.209283  1918A      3.211198  1919A      3.215456  
    1920A      3.229881  1921A      3.230486  1922A      3.245093  
    1923A      3.251755  1924A      3.295119  1925A      3.296150  
    1926A      3.309790  1927A      3.348196  1928A      3.367138  
    1929A      3.371779  1930A      3.376458  1931A      3.389292  
    1932A      3.392914  1933A      3.399569  1934A      3.403744  
    1935A      3.406149  1936A      3.409639  1937A      3.417276  
    1938A      3.419400  1939A      3.423504  1940A      3.446159  
    1941A      3.454421  1942A      3.485242  1943A      3.512333  
    1944A      3.513472  1945A      3.519735  1946A      3.522954  
    1947A      3.526655  1948A      3.579428  1949A      3.586933  
    1950A      3.604306  1951A      3.610285  1952A      3.616689  
    1953A      3.642691  1954A      3.686469  1955A      3.693096  
    1956A      3.694618  1957A      3.704377  1958A      3.713348  
    1959A      3.723813  1960A      3.778429  1961A      3.781219  
    1962A      3.808496  1963A      3.810461  1964A      3.854323  
    1965A      3.859812  1966A      3.880816  1967A      3.882064  
    1968A      3.884901  1969A      3.887825  1970A      3.904400  
    1971A      3.907526  1972A      3.910371  1973A      3.954141  
    1974A      3.956323  1975A      4.018890  1976A      4.196592  
    1977A      4.263623  1978A      4.375371  

    Final Occupation by Irrep:
              A 
    DOCC [   326 ]
    NA   [   326 ]
    NB   [   326 ]

  @DF-RHF Final Energy: -3953.65939785225328

   => Energetics <=

    Nuclear Repulsion Energy =          18398.8869907107182371
    One-Electron Energy =              -42001.7278284509666264
    Two-Electron Energy =               19649.1814398879942019
    Total Energy =                      -3953.6593978522541875

Computation Completed


Properties will be evaluated at   0.000000,   0.000000,   0.000000 [a0]

Properties computed using the SCF density matrix


 Multipole Moments:

 ------------------------------------------------------------------------------------
     Multipole            Electronic (a.u.)      Nuclear  (a.u.)        Total (a.u.)
 ------------------------------------------------------------------------------------

 L = 1.  Multiply by 2.5417464519 to convert [e a0] to [Debye]
 Dipole X            :          0.0015711            0.0004804            0.0020515
 Dipole Y            :         -1.6242428            1.8866171            0.2623743
 Dipole Z            :        -17.2637729           21.8069972            4.5432243
 Magnitude           :                                                    4.5507946

 ------------------------------------------------------------------------------------

*** tstop() called on n2cn0431 at Sat Jan 27 00:31:39 2024
Module time:
	user time   =   30898.96 seconds =     514.98 minutes
	system time =    1960.09 seconds =      32.67 minutes
	total time  =       4258 seconds =      70.97 minutes
Total time:
	user time   =   30898.96 seconds =     514.98 minutes
	system time =    1960.09 seconds =      32.67 minutes
	total time  =       4258 seconds =      70.97 minutes

  //>>>>>>>>>>>>>>>>>>>>>>>>>>>>>>>>>>>//
  //            Monomer A HF           //
  //<<<<<<<<<<<<<<<<<<<<<<<<<<<<<<<<<<<//

   => Libint2 <=

    Primary   basis highest AM E, G, H:  5, 4, 3
    Auxiliary basis highest AM E, G, H:  6, 5, 4
    Onebody   basis highest AM E, G, H:  6, 5, 4
    Solid Harmonics ordering:            gaussian

*** tstart() called on n2cn0431
*** at Sat Jan 27 00:31:39 2024

   => Loading Basis Set <=

    Name: JUN-CC-PVDZ
    Role: ORBITAL
    Keyword: BASIS
    atoms 1-2, 4-5, 10, 17-34, 41-53, 56-70, 73-89, 92-104, 109-119, 122-130 entry C          line   164 file /opt/software/pc2/EB-SW/software/PSI4/1.9-foss-2022a/share/psi4/basis/jun-cc-pvdz.gbs 
    atoms 3, 6                                                               entry N          line   198 file /opt/software/pc2/EB-SW/software/PSI4/1.9-foss-2022a/share/psi4/basis/jun-cc-pvdz.gbs 
    atoms 7-9, 11-16, 35-40, 54-55, 71-72, 90-91, 105-108, 120-121, 131-136  entry H          line    36 file /opt/software/pc2/EB-SW/software/PSI4/1.9-foss-2022a/share/psi4/basis/jun-cc-pvdz.gbs 


         ---------------------------------------------------------
                                   SCF
               by Justin Turney, Rob Parrish, Andy Simmonett
                          and Daniel G. A. Smith
                              RHF Reference
                       16 Threads,  61035 MiB Core
         ---------------------------------------------------------

  ==> Geometry <==

    Molecular point group: c1
    Full point group: C1

    Geometry (in Angstrom), charge = 1, multiplicity = 1:

       Center              X                  Y                   Z               Mass       
    ------------   -----------------  -----------------  -----------------  -----------------
         C            0.680062820275    -1.215917226251     3.333566696842    12.000000000000
         C           -0.680508179725    -1.215533226251     3.331538696842    12.000000000000
         N           -1.085639179725     0.102790773749     3.330540696842    14.003074004430
         C            0.000103820275     0.884191773749     3.327264696842    12.000000000000
[...]
    1591A      2.212583  1592A      2.213951  1593A      2.216377  
    1594A      2.220458  1595A      2.222153  1596A      2.222347  
    1597A      2.223251  1598A      2.224870  1599A      2.225535  
    1600A      2.228950  1601A      2.229867  1602A      2.233006  
    1603A      2.233633  1604A      2.235148  1605A      2.237961  
    1606A      2.238838  1607A      2.239930  1608A      2.241089  
    1609A      2.241963  1610A      2.243420  1611A      2.248088  
    1612A      2.249504  1613A      2.250374  1614A      2.256081  
    1615A      2.260343  1616A      2.262848  1617A      2.265195  
    1618A      2.269883  1619A      2.271860  1620A      2.272609  
    1621A      2.274937  1622A      2.280365  1623A      2.282543  
    1624A      2.284801  1625A      2.287376  1626A      2.291978  
    1627A      2.292954  1628A      2.295437  1629A      2.296459  
    1630A      2.302005  1631A      2.302732  1632A      2.303271  
    1633A      2.309776  1634A      2.313461  1635A      2.317027  
    1636A      2.321803  1637A      2.323413  1638A      2.326092  
    1639A      2.327288  1640A      2.328758  1641A      2.330823  
    1642A      2.331124  1643A      2.332316  1644A      2.333439  
    1645A      2.334293  1646A      2.335228  1647A      2.338499  
    1648A      2.341578  1649A      2.342078  1650A      2.342683  
    1651A      2.343860  1652A      2.345257  1653A      2.345345  
    1654A      2.347583  1655A      2.348863  1656A      2.351350  
    1657A      2.356402  1658A      2.358707  1659A      2.359353  
    1660A      2.371141  1661A      2.376652  1662A      2.382334  
    1663A      2.383935  1664A      2.387843  1665A      2.390159  
    1666A      2.396450  1667A      2.398175  1668A      2.400941  
    1669A      2.405347  1670A      2.408820  1671A      2.413397  
    1672A      2.419487  1673A      2.422563  1674A      2.425243  
    1675A      2.429075  1676A      2.432194  1677A      2.436037  
    1678A      2.443736  1679A      2.450253  1680A      2.453376  
    1681A      2.453937  1682A      2.458702  1683A      2.465013  
    1684A      2.466156  1685A      2.468374  1686A      2.469642  
    1687A      2.471938  1688A      2.472584  1689A      2.477070  
    1690A      2.487164  1691A      2.493289  1692A      2.494163  
    1693A      2.495888  1694A      2.502811  1695A      2.506719  
    1696A      2.508696  1697A      2.509320  1698A      2.512542  
    1699A      2.517079  1700A      2.536774  1701A      2.540374  
    1702A      2.541319  1703A      2.541716  1704A      2.543810  
    1705A      2.545143  1706A      2.546572  1707A      2.548891  
    1708A      2.550482  1709A      2.552129  1710A      2.555376  
    1711A      2.557190  1712A      2.557575  1713A      2.564593  
    1714A      2.571397  1715A      2.572365  1716A      2.574721  
    1717A      2.577227  1718A      2.584813  1719A      2.586270  
    1720A      2.586365  1721A      2.586723  1722A      2.588675  
    1723A      2.590828  1724A      2.593263  1725A      2.593519  
    1726A      2.594380  1727A      2.602635  1728A      2.603212  
    1729A      2.606991  1730A      2.612067  1731A      2.614419  
    1732A      2.615777  1733A      2.616002  1734A      2.616575  
    1735A      2.619160  1736A      2.633457  1737A      2.637250  
    1738A      2.641752  1739A      2.643093  1740A      2.645817  
    1741A      2.646368  1742A      2.648164  1743A      2.651334  
    1744A      2.652161  1745A      2.655569  1746A      2.657959  
    1747A      2.659226  1748A      2.661646  1749A      2.666550  
    1750A      2.669058  1751A      2.670392  1752A      2.671344  
    1753A      2.674953  1754A      2.678240  1755A      2.680492  
    1756A      2.682285  1757A      2.687145  1758A      2.689303  
    1759A      2.690676  1760A      2.692227  1761A      2.693954  
    1762A      2.695721  1763A      2.696526  1764A      2.698263  
    1765A      2.699731  1766A      2.703702  1767A      2.706270  
    1768A      2.714908  1769A      2.718202  1770A      2.720751  
    1771A      2.724223  1772A      2.725285  1773A      2.729074  
    1774A      2.734960  1775A      2.738695  1776A      2.743394  
    1777A      2.753299  1778A      2.757243  1779A      2.771796  
    1780A      2.773230  1781A      2.777471  1782A      2.782224  
    1783A      2.784318  1784A      2.789783  1785A      2.800166  
    1786A      2.800363  1787A      2.802666  1788A      2.802775  
    1789A      2.804971  1790A      2.811012  1791A      2.815519  
    1792A      2.816519  1793A      2.817246  1794A      2.818812  
    1795A      2.822519  1796A      2.826473  1797A      2.830772  
    1798A      2.834314  1799A      2.836773  1800A      2.840734  
    1801A      2.843959  1802A      2.845884  1803A      2.852590  
    1804A      2.861537  1805A      2.862879  1806A      2.866206  
    1807A      2.866681  1808A      2.870521  1809A      2.871894  
    1810A      2.875479  1811A      2.881230  1812A      2.895825  
    1813A      2.896325  1814A      2.898046  1815A      2.911891  
    1816A      2.919188  1817A      2.921355  1818A      2.926719  
    1819A      2.931548  1820A      2.932616  1821A      2.935164  
    1822A      2.936867  1823A      2.945658  1824A      2.958636  
    1825A      2.967578  1826A      2.969399  1827A      2.970391  
    1828A      2.977474  1829A      2.980152  1830A      2.992572  
    1831A      2.996251  1832A      3.013389  1833A      3.030060  
    1834A      3.032514  1835A      3.035841  1836A      3.042423  
    1837A      3.045565  1838A      3.049833  1839A      3.053385  
    1840A      3.054107  1841A      3.059372  1842A      3.060164  
    1843A      3.065196  1844A      3.066914  1845A      3.074560  
    1846A      3.108647  1847A      3.110804  1848A      3.112052  
    1849A      3.116327  1850A      3.123781  1851A      3.130118  
    1852A      3.131493  1853A      3.137410  1854A      3.140463  
    1855A      3.143756  1856A      3.144876  1857A      3.148368  
    1858A      3.154353  1859A      3.154800  1860A      3.156079  
    1861A      3.158947  1862A      3.161901  1863A      3.162872  
    1864A      3.168390  1865A      3.178337  1866A      3.179517  
    1867A      3.181999  1868A      3.195057  1869A      3.196767  
    1870A      3.219514  1871A      3.223496  1872A      3.230600  
    1873A      3.257056  1874A      3.263721  1875A      3.263854  
    1876A      3.265670  1877A      3.266311  1878A      3.269482  
    1879A      3.271040  1880A      3.274894  1881A      3.276999  
    1882A      3.282567  1883A      3.290480  1884A      3.297268  
    1885A      3.298547  1886A      3.306389  1887A      3.318384  
    1888A      3.334909  1889A      3.361753  1890A      3.365900  
    1891A      3.376400  1892A      3.389711  1893A      3.396921  
    1894A      3.419022  1895A      3.427550  1896A      3.438836  
    1897A      3.451059  1898A      3.461588  1899A      3.466399  
    1900A      3.469811  1901A      3.478605  1902A      3.482691  
    1903A      3.483042  1904A      3.488524  1905A      3.490367  
    1906A      3.500624  1907A      3.506642  1908A      3.517660  
    1909A      3.545966  1910A      3.560470  1911A      3.581486  
    1912A      3.583084  1913A      3.591044  1914A      3.592091  
    1915A      3.601014  1916A      3.641604  1917A      3.652906  
    1918A      3.658000  1919A      3.669289  1920A      3.676574  
    1921A      3.683640  1922A      3.711133  1923A      3.754793  
    1924A      3.759958  1925A      3.764708  1926A      3.770969  
    1927A      3.777354  1928A      3.780530  1929A      3.798000  
    1930A      3.837487  1931A      3.847050  1932A      3.848709  
    1933A      3.876242  1934A      3.878539  1935A      3.892286  
    1936A      3.921950  1937A      3.927383  1938A      3.949103  
    1939A      3.950021  1940A      3.959946  1941A      3.962704  
    1942A      3.975732  1943A      3.979151  1944A      3.983499  
    1945A      4.001040  1946A      4.025080  1947A      4.027945  
    1948A      4.089184  1949A      4.258783  1950A      4.261654  
    1951A      4.278574  1952A      4.344474  1953A      4.429921  
    1954A      4.557922  1955A      4.575077  1956A      4.599069  
    1957A      4.809275  1958A      4.837275  1959A      4.878540  
    1960A      4.912154  1961A      4.984340  1962A      5.090529  
    1963A      5.099371  1964A      5.103180  1965A      5.153410  
    1966A      5.187205  1967A      5.409295  1968A      5.444868  
    1969A      5.774105  1970A      5.781961  1971A      6.082524  
    1972A     18.222071  1973A     18.481465  1974A     18.498988  
    1975A     18.592161  1976A     18.897383  1977A     25.370210  
    1978A     25.407491  

    Final Occupation by Irrep:
              A 
    DOCC [   300 ]
    NA   [   300 ]
    NB   [   300 ]

  @DF-RHF Final Energy: -3650.34181438004271

   => Energetics <=

    Nuclear Repulsion Energy =          15611.4211649754324753
    One-Electron Energy =              -36072.2005475611076690
    Two-Electron Energy =               16810.4375682056306687
    Total Energy =                      -3650.3418143800445250

Computation Completed


Properties will be evaluated at   0.000000,   0.000000,   0.000000 [a0]

Properties computed using the SCF density matrix


 Multipole Moments:

 ------------------------------------------------------------------------------------
     Multipole            Electronic (a.u.)      Nuclear  (a.u.)        Total (a.u.)
 ------------------------------------------------------------------------------------

 L = 1.  Multiply by 2.5417464519 to convert [e a0] to [Debye]
 Dipole X            :          0.0004325            0.0002112            0.0006437
 Dipole Y            :          0.0038074           -0.0044281           -0.0006206
 Dipole Z            :        311.1992099         -311.2064988           -0.0072889
 Magnitude           :                                                    0.0073436

 ------------------------------------------------------------------------------------

*** tstop() called on n2cn0431 at Sat Jan 27 02:07:02 2024
Module time:
	user time   =   20988.95 seconds =     349.82 minutes
	system time =    1436.31 seconds =      23.94 minutes
	total time  =       3583 seconds =      59.72 minutes
Total time:
	user time   =   58536.24 seconds =     975.60 minutes
	system time =    3893.39 seconds =      64.89 minutes
	total time  =       9981 seconds =     166.35 minutes
  Constructing Basis Sets for SAPT...

   => Loading Basis Set <=

    Name: (JUN-CC-PVDZ AUX)
    Role: RIFIT
    Keyword: DF_BASIS_SAPT
    atoms 1-2, 4-5, 10, 17-34, 41-53, 56-70, 73-89, 92-104, 109-119, 122-130 entry C          line   100 file /opt/software/pc2/EB-SW/software/PSI4/1.9-foss-2022a/share/psi4/basis/jun-cc-pvdz-ri.gbs 
    atoms 3, 6                                                               entry N          line   144 file /opt/software/pc2/EB-SW/software/PSI4/1.9-foss-2022a/share/psi4/basis/jun-cc-pvdz-ri.gbs 
    atoms 7-9, 11-16, 35-40, 54-55, 71-72, 90-91, 105-108, 120-121, 131-136  entry H          line    30 file /opt/software/pc2/EB-SW/software/PSI4/1.9-foss-2022a/share/psi4/basis/jun-cc-pvdz-ri.gbs 

   => Loading Basis Set <=

    Name: (JUN-CC-PVDZ AUX)
    Role: JKFIT
    Keyword: DF_BASIS_ELST
    atoms 1-2, 4-5, 10, 17-34, 41-53, 56-70, 73-89, 92-104, 109-119, 122-130 entry C          line   146 file /opt/software/pc2/EB-SW/software/PSI4/1.9-foss-2022a/share/psi4/basis/jun-cc-pvdz-jkfit.gbs 
    atoms 3, 6                                                               entry N          line   202 file /opt/software/pc2/EB-SW/software/PSI4/1.9-foss-2022a/share/psi4/basis/jun-cc-pvdz-jkfit.gbs 
    atoms 7-9, 11-16, 35-40, 54-55, 71-72, 90-91, 105-108, 120-121, 131-136  entry H          line    70 file /opt/software/pc2/EB-SW/software/PSI4/1.9-foss-2022a/share/psi4/basis/jun-cc-pvdz-jkfit.gbs 


  //>>>>>>>>>>>>>>>>>>>>>>>>>>>>>>>>>>>//
  //               SSAPT0              //
  //<<<<<<<<<<<<<<<<<<<<<<<<<<<<<<<<<<<//


*** tstart() called on n2cn0431
*** at Sat Jan 27 02:07:03 2024

        SAPT0  
    Ed Hohenstein
     6 June 2009

      Orbital Information
  --------------------------
    NSO        =      2019
    NMO        =      1978
    NRI        =      7157
    NRI (Elst) =      8896
    NOCC A     =        26
    NOCC B     =       300
    FOCC A     =         7
    FOCC B     =        96
    NVIR A     =      1952
    NVIR B     =      1678

    Elst10,r            =    -0.017596633159 [Eh]
    Exch10              =     0.014007750971 [Eh]
    Exch10 (S^2)        =     0.013985847786 [Eh]

    Iter     Energy [mEh]          dE [mEh]         Residual      Time [s]
       1      -1.28484888       1.284848885       4.557363816           220
       2      -1.58819729       0.303348405       0.824019706           466
       3      -1.59092929       0.002731995       0.271775826           718
       4      -1.58764659      -0.003282691       0.092483797           944
       5      -1.58742247      -0.000224119       0.023505418          1196
       6      -1.58764918       0.000226703       0.008543256          1432
       7      -1.58766940       0.000020227       0.003235686          1723
       8      -1.58764470      -0.000024702       0.001111186          2017
       9      -1.58764784       0.000003143       0.000424508          2291
      10      -1.58764920       0.000001356       0.000129985          2519
      11      -1.58764887      -0.000000330       0.000043029          2800
      12      -1.58764877      -0.000000098       0.000013092          3085
      13      -1.58764879       0.000000020       0.000004186          3371
      14      -1.58764880       0.000000008       0.000001638          3816
      15      -1.58764880      -0.000000002       0.000000667          4099

    CHF Iterations converged


    Iter     Energy [mEh]          dE [mEh]         Residual      Time [s]
       1     -22.07095716      22.070957165      77.150081004           261
       2     -15.13886129      -6.932095870      10.156523631           559
       3     -15.30967417       0.170812877       4.085702865           886
       4     -15.71885455       0.409180382       1.108866566          1198
       5     -15.75382286       0.034968305       0.410866500          1557
       6     -15.74396566      -0.009857200       0.267825521          1943
       7     -15.73559659      -0.008369064       0.109636974          2271
       8     -15.73731181       0.001715218       0.062066374          2566
       9     -15.73919384       0.001882031       0.034889781          2907
      10     -15.73863050      -0.000563344       0.031620562          3217
      11     -15.73820348      -0.000427015       0.015057925          3645
      12     -15.73826370       0.000060214       0.007290558          4050
      13     -15.73838224       0.000118545       0.003016624          4421
      14     -15.73839463       0.000012392       0.001692574          4800
      15     -15.73837575      -0.000018882       0.001069154          5255
      16     -15.73836327      -0.000012487       0.000493782          5638
      17     -15.73837299       0.000009729       0.000210485          5999
      18     -15.73837457       0.000001577       0.000105717          6399
      19     -15.73837298      -0.000001589       0.000068101          6795
      20     -15.73837221      -0.000000770       0.000033317          7163
      21     -15.73837269       0.000000480       0.000017740          7498
      22     -15.73837284       0.000000150       0.000008310          7843
      23     -15.73837276      -0.000000078       0.000004405          8231
      24     -15.73837272      -0.000000040       0.000002555          8583
      25     -15.73837273       0.000000010       0.000001387          9054
      26     -15.73837275       0.000000015       0.000000689          9683

    CHF Iterations converged

    Ind20,r (A<-B)      =    -0.001587648799 [Eh]
    Ind20,r (B<-A)      =    -0.015738372750 [Eh]
    Ind20,r             =    -0.017326021549 [Eh]
    Exch-Ind20,r (A<-B) =     0.001529863041 [Eh]
    Exch-Ind20,r (B<-A) =     0.002604963619 [Eh]
    Exch-Ind20,r        =     0.004134826660 [Eh]
    Disp20              =    -0.031375570151 [Eh]
    Disp20 (SS)         =    -0.015687785076 [Eh]
    Disp20 (OS)         =    -0.015687785076 [Eh]
    Exch-Disp20         =     0.001727353776 [Eh]
    Exch-Disp20 (SS)    =     0.001063971936 [Eh]
    Exch-Disp20 (OS)    =     0.000663381840 [Eh]

    SAPT Results 
  --------------------------------------------------------------------------------------------------------
    Electrostatics                -17.59663316 [mEh]     -11.04205401 [kcal/mol]     -46.19995400 [kJ/mol]
      Elst10,r                    -17.59663316 [mEh]     -11.04205401 [kcal/mol]     -46.19995400 [kJ/mol]

    Exchange                       14.00775097 [mEh]       8.78999644 [kcal/mol]      36.77734511 [kJ/mol]
      Exch10                       14.00775097 [mEh]       8.78999644 [kcal/mol]      36.77734511 [kJ/mol]
      Exch10(S^2)                  13.98584779 [mEh]       8.77625198 [kcal/mol]      36.71983830 [kJ/mol]

    Induction                     -14.96097802 [mEh]      -9.38815544 [kcal/mol]     -39.28004237 [kJ/mol]
      Ind20,r                     -17.32602155 [mEh]     -10.87224266 [kcal/mol]     -45.48946331 [kJ/mol]
      Exch-Ind20,r                  4.13482666 [mEh]       2.59464290 [kcal/mol]      10.85598590 [kJ/mol]
      delta HF,r (2)               -1.76978313 [mEh]      -1.11055568 [kcal/mol]      -4.64656496 [kJ/mol]

    Dispersion                    -29.64821638 [mEh]     -18.60453666 [kcal/mol]     -77.84138137 [kJ/mol]
      Disp20                      -31.37557015 [mEh]     -19.68846752 [kcal/mol]     -82.37654808 [kJ/mol]
      Exch-Disp20                   1.72735378 [mEh]       1.08393086 [kcal/mol]       4.53516671 [kJ/mol]
      Disp20 (SS)                 -15.68778508 [mEh]      -9.84423376 [kcal/mol]     -41.18827404 [kJ/mol]
      Disp20 (OS)                 -15.68778508 [mEh]      -9.84423376 [kcal/mol]     -41.18827404 [kJ/mol]
      Exch-Disp20 (SS)              1.06397194 [mEh]       0.66765247 [kcal/mol]       2.79345793 [kJ/mol]
      Exch-Disp20 (OS)              0.66338184 [mEh]       0.41627839 [kcal/mol]       1.74170878 [kJ/mol]

  Total HF                        -18.54986020 [mEh]     -11.64021302 [kcal/mol]     -48.70265126 [kJ/mol]
  Total SAPT0                     -48.19807658 [mEh]     -30.24474967 [kcal/mol]    -126.54403263 [kJ/mol]

  Special recipe for scaled SAPT0 (see Manual):
    Electrostatics sSAPT0         -17.59663316 [mEh]     -11.04205401 [kcal/mol]     -46.19995400 [kJ/mol]
    Exchange sSAPT0                14.00775097 [mEh]       8.78999644 [kcal/mol]      36.77734511 [kJ/mol]
    Induction sSAPT0              -14.94152097 [mEh]      -9.37594596 [kcal/mol]     -39.22895789 [kJ/mol]
    Dispersion sSAPT0             -29.64008805 [mEh]     -18.59943606 [kcal/mol]     -77.82004046 [kJ/mol]
  Total sSAPT0                    -48.17049121 [mEh]     -30.22743959 [kcal/mol]    -126.47160724 [kJ/mol]
  --------------------------------------------------------------------------------------------------------

*** tstop() called on n2cn0431 at Sat Jan 27 10:37:09 2024
Module time:
	user time   =   76947.54 seconds =    1282.46 minutes
	system time =    4185.49 seconds =      69.76 minutes
	total time  =      30606 seconds =     510.10 minutes
Total time:
	user time   =  135485.33 seconds =    2258.09 minutes
	system time =    8078.88 seconds =     134.65 minutes
	total time  =      40588 seconds =     676.47 minutes

    Psi4 stopped on: Saturday, 27 January 2024 10:37AM
    Psi4 wall time for execution: 11:16:29.41

*** Psi4 exiting successfully. Buy a developer a beer!
