
    -----------------------------------------------------------------------
          Psi4: An Open-Source Ab Initio Electronic Structure Package
                               Psi4 1.9 release

                         Git: Rev {} zzzzzzz 


    D. G. A. Smith, L. A. Burns, A. C. Simmonett, R. M. Parrish,
    M. C. Schieber, R. Galvelis, P. Kraus, H. Kruse, R. Di Remigio,
    A. Alenaizan, A. M. James, S. Lehtola, J. P. Misiewicz, M. Scheurer,
    R. A. Shaw, J. B. Schriber, Y. Xie, Z. L. Glick, D. A. Sirianni,
    J. S. O'Brien, J. M. Waldrop, A. Kumar, E. G. Hohenstein,
    B. P. Pritchard, B. R. Brooks, H. F. Schaefer III, A. Yu. Sokolov,
    K. Patkowski, A. E. DePrince III, U. Bozkaya, R. A. King,
    F. A. Evangelista, J. M. Turney, T. D. Crawford, C. D. Sherrill,
    J. Chem. Phys. 152(18) 184108 (2020). https://doi.org/10.1063/5.0006002

                            Additional Code Authors
    E. T. Seidl, C. L. Janssen, E. F. Valeev, M. L. Leininger,
    J. F. Gonthier, R. M. Richard, H. R. McAlexander, M. Saitow, X. Wang,
    P. Verma, M. H. Lechner, A. Jiang, S. Behnle, A. G. Heide,
    M. F. Herbst, and D. L. Poole

             Previous Authors, Complete List of Code Contributors,
                       and Citations for Specific Modules
    https://github.com/psi4/psi4/blob/master/codemeta.json
    https://github.com/psi4/psi4/graphs/contributors
    http://psicode.org/psi4manual/master/introduction.html#citing-psifour

    -----------------------------------------------------------------------


    Psi4 started on: Monday, 22 January 2024 06:09PM

    Process ID: 2848677
    Host:       d-18-8-4
    PSIDATADIR: /home/gridsan/tfroembgen/.conda/envs/psi4test/share/psi4
    Memory:     500.0 MiB
    Threads:    12
    
  ==> Input File <==

--------------------------------------------------------------------------
memory 32 GB # how much memory is available ! Depends on the nodes/cores !

molecule dimer {
# monomer A
+1 1    # Charge and multiplicity
C  0.680067 -0.008042 -5.215929
C -0.680504 -0.006014 -5.215545
N -1.085635 -0.005016 -3.897221
C  0.000108 -0.001740 -3.115820
C -2.477365  0.044390 -3.429242
N  1.085222 -0.005016 -3.897221
H  1.385146 -0.015870 -6.033368
H -1.385302 -0.006204 -6.033214
H -0.000009  0.000007 -2.034731
C  2.478117 -0.021908 -3.432123
H  2.490592  0.005437 -2.341870
H  2.967028 -0.935354 -3.779299
H  3.001428  0.853575 -3.823595
H -2.857359  1.066461 -3.509201
H -3.082679 -0.625694 -4.042306
H -2.518128 -0.282594 -2.389294
--
# monomer B
0 1     # Charge and multiplicity
C   1.22531237526482      0.70753866091955      0.00613762728373
C   1.22532433589282     -0.70753852257020     -0.00619318228664
C   -0.00000567409046      1.41496628609039     -0.00672680580738
C   2.45644923379077      1.41832825917820      0.00902448468363
C   0.00001130712078     -1.41497612663474      0.00347275151708
C   -1.22530046906674      0.70754574598412      0.00838914760619
C   2.45643823516184     -1.41832293188077     -0.00843833914343
C   -0.00000085313587      2.83680140328112     -0.00913035594137
C   3.68182717731192      0.70931832800114     -0.00808954934571
C   2.45512052870677      2.83422403348893     -0.00819210630633
C   3.68182158506039     -0.70933346742900      0.00798293467272
C   -1.22531311884624     -0.70752714354401     -0.00512042085974
C   1.22670006104402      3.54346985599427      0.00816696660346
C   0.00000526469929     -2.83678176723568      0.00832091913869
C   -2.45643555300670      1.41831729028492      0.00842454345199
C   2.45512389762097     -2.83422965658853      0.00783102630520
C   -1.22671388474763      3.54346943575023      0.00827029982280
C   4.91451777504333      1.42717324448953     -0.00160886631602
C   3.69315067131765      3.54279566454522     -0.00155906667985
C   -2.45643712022637     -1.41831290883911     -0.00846337726810
C   1.22670532178455     -3.54347386990643     -0.00780316414624
C   -2.45512491866593      2.83421703463423     -0.00818572995999
C   4.91452486062398     -1.42718653794377      0.00136387641845
C   1.22142509354026      4.97013443726031      0.00150231067809
C   4.89300870916237      2.82518837202648     -0.00039219795739
C   -1.22669652864725     -3.54347062507680     -0.00753595973677
C   -3.68181849668397      0.70932533873199     -0.00807686886569
C   3.69314758099218     -3.54280096939050      0.00148176697923
C   -1.22143177215231      4.97012866986289      0.00168580605083
C   6.13477145276790      0.68054831910577     -0.00083909176631
C   3.65678936045204      4.97295361556775     -0.00065042889723
C   -2.45512642789169     -2.83421472106065      0.00758666850712
C   -3.68181869921921     -0.70932533146830      0.00810055625144
C   4.89301309775526     -2.82519973363176      0.00021895393805
C   -0.00000059327114      5.65044773803267      0.00045449734393
C   6.13477559217374     -0.68055448207492      0.00042622874941
C   2.47813196269732      5.65357712333155      0.00063835075260
C   1.22142288457925     -4.97012668293268     -0.00129718634452
C   -3.69316190412301      3.54279732619245     -0.00139355922051
C   -1.22142804110313     -4.97011793159564     -0.00140994817719
C   -4.91452132810043      1.42717581899491     -0.00153192130862
C   3.65678749952045     -4.97295485423912      0.00080007163680
C   -2.47813805026426      5.65357479452875      0.00092287576113
C   -3.69314125872231     -3.54278984697859      0.00136564082345
C   -4.91451200321153     -1.42718062802730      0.00139857359209
C   -0.00000552908399     -5.65043791501335      0.00005899322272
C   -4.89302000425900      2.82518897091939     -0.00040227981744
C   2.47812647313991     -5.65357317188818     -0.00029052915548
C   -3.65679823041642      4.97295655404175     -0.00047374852278
C   -4.89299899901461     -2.82519139505969      0.00006491824035
C   -2.47812801824129     -5.65356579800621     -0.00056571680280
C   -6.13477002348955      0.68054913825639     -0.00086464346868
C   -3.65678835334731     -4.97294365097028      0.00058578382008
C   -6.13476456307132     -0.68055354348201      0.00040575295444
H   5.83528897565761      3.36927626695423      0.00396712770529
H   7.07385965258860      1.22821762089947     -0.00037744837300
H   4.60066374401555      5.51238117445323     -0.00014522814529
H   5.83528386714679     -3.36930568472863     -0.00423551337640
H   -0.00001167146422      6.73853104613662     -0.00389474766392
H   7.07386165167227     -1.22822657074368     -0.00008250934481
H   2.47331421164041      6.74068466339473      0.00017162982210
H   4.60066897122302     -5.51237575717576      0.00039007446835
H   -2.47331820069565      6.74068209160650      0.00047297644710
H   -0.00000978838621     -6.73852780445195      0.00458867820736
H   -5.83530143450167      3.36927132229595      0.00410314985360
H   2.47330840367253     -6.74068500242887      0.00027980126949
H   -4.60067436136587      5.51237839860371      0.00002010017831
H   -5.83527902699321     -3.36928859177951     -0.00451481925734
H   -2.47329986759855     -6.74067870613986     -0.00016951527498
H   -7.07385728692578      1.22822084484047     -0.00046143985387
H   -4.60067330624313     -5.51236229778631      0.00021776644566
H   -7.07385645456741     -1.22822025997701     -0.00017736581114

    units angstrom      # Angstroms are the default
    no_reorient         # Geometry fixed, default
    symmetry c1         # C1 symmetry, default
}

set {
    scf_type DF         # Density fitting, faster than exact integrals
    freeze_core True    # Freeze core electrons
    basis jun-cc-pVDZ   # Jun-cc-pVDZ basis set, recommended for sSAPT0 in https://doi.org/10.1063/1.4867135
}

energy('ssapt0')        # Compute sSAPT0 energy, includes also SAPT0
--------------------------------------------------------------------------

  Memory set to  29.802 GiB by Python driver.

Scratch directory: /state/partition1/slurm_tmp/24798262.4294967291.0/
   => Loading Basis Set <=

    Name: JUN-CC-PVDZ
    Role: ORBITAL
    Keyword: BASIS
    atoms 1-2, 4-5, 10, 17-70 entry C          line   164 file /home/gridsan/tfroembgen/.conda/envs/psi4test/share/psi4/basis/jun-cc-pvdz.gbs 
    atoms 3, 6                entry N          line   198 file /home/gridsan/tfroembgen/.conda/envs/psi4test/share/psi4/basis/jun-cc-pvdz.gbs 
    atoms 7-9, 11-16, 71-88   entry H          line    36 file /home/gridsan/tfroembgen/.conda/envs/psi4test/share/psi4/basis/jun-cc-pvdz.gbs 

   => Loading Basis Set <=

    Name: JUN-CC-PVDZ
    Role: ORBITAL
    Keyword: BASIS
    atoms 1-2, 4-5, 10, 17-70 entry C          line   164 file /home/gridsan/tfroembgen/.conda/envs/psi4test/share/psi4/basis/jun-cc-pvdz.gbs 
    atoms 3, 6                entry N          line   198 file /home/gridsan/tfroembgen/.conda/envs/psi4test/share/psi4/basis/jun-cc-pvdz.gbs 
    atoms 7-9, 11-16, 71-88   entry H          line    36 file /home/gridsan/tfroembgen/.conda/envs/psi4test/share/psi4/basis/jun-cc-pvdz.gbs 


  //>>>>>>>>>>>>>>>>>>>>>>>>>>>>>>>>>>>//
  //              Dimer HF             //
  //<<<<<<<<<<<<<<<<<<<<<<<<<<<<<<<<<<<//

   => Libint2 <=

    Primary   basis highest AM E, G, H:  7, 7, 4
    Auxiliary basis highest AM E, G, H:  7, 7, 5
    Onebody   basis highest AM E, G, H:  7, 7, 5
    Solid Harmonics ordering:            gaussian

*** tstart() called on d-18-8-4
*** at Mon Jan 22 18:09:05 2024

   => Loading Basis Set <=

    Name: JUN-CC-PVDZ
    Role: ORBITAL
    Keyword: BASIS
    atoms 1-2, 4-5, 10, 17-70 entry C          line   164 file /home/gridsan/tfroembgen/.conda/envs/psi4test/share/psi4/basis/jun-cc-pvdz.gbs 
    atoms 3, 6                entry N          line   198 file /home/gridsan/tfroembgen/.conda/envs/psi4test/share/psi4/basis/jun-cc-pvdz.gbs 
    atoms 7-9, 11-16, 71-88   entry H          line    36 file /home/gridsan/tfroembgen/.conda/envs/psi4test/share/psi4/basis/jun-cc-pvdz.gbs 


         ---------------------------------------------------------
                                   SCF
               by Justin Turney, Rob Parrish, Andy Simmonett
                          and Daniel G. A. Smith
                              RHF Reference
                       12 Threads,  30517 MiB Core
         ---------------------------------------------------------

  ==> Geometry <==

    Molecular point group: c1
    Full point group: C1

    Geometry (in Angstrom), charge = 1, multiplicity = 1:

       Center              X                  Y                   Z               Mass       
    ------------   -----------------  -----------------  -----------------  -----------------
         C            0.680066520158    -0.008042372515    -4.707155812817    12.000000000000
         C           -0.680504479842    -0.006014372515    -4.706771812817    12.000000000000
         N           -1.085635479842    -0.005016372515    -3.388447812817    14.003074004430
         C            0.000107520158    -0.001740372515    -2.607046812817    12.000000000000
         C           -2.477365479842     0.044389627485    -2.920468812817    12.000000000000
         N            1.085221520158    -0.005016372515    -3.388447812817    14.003074004430
         H            1.385145520158    -0.015870372515    -5.524594812817     1.007825032230
         H           -1.385302479842    -0.006204372515    -5.524440812817     1.007825032230
         H           -0.000009479842     0.000006627485    -1.525957812817     1.007825032230
         C            2.478116520158    -0.021908372515    -2.923349812817    12.000000000000
         H            2.490591520158     0.005436627485    -1.833096812817     1.007825032230
         H            2.967027520158    -0.935354372515    -3.270525812817     1.007825032230
         H            3.001427520158     0.853574627485    -3.314821812817     1.007825032230
         H           -2.857359479842     1.066460627485    -3.000427812817     1.007825032230
         H           -3.082679479842    -0.625694372515    -3.533532812817     1.007825032230
         H           -2.518128479842    -0.282594372515    -1.880520812817     1.007825032230
         C            1.225311895423     0.707538288405     0.514910814466    12.000000000000
         C            1.225323856051    -0.707538895085     0.502580004896    12.000000000000
         C           -0.000006153932     1.414965913575     0.502046381375    12.000000000000
         C            2.456448753949     1.418327886663     0.517797671866    12.000000000000
         C            0.000010827279    -1.414976499150     0.512245938700    12.000000000000
         C           -1.225300948908     0.707545373469     0.517162334789    12.000000000000
         C            2.456437755320    -1.418323304396     0.500334848039    12.000000000000
         C           -0.000001332978     2.836801030766     0.499642831241    12.000000000000
         C            3.681826697470     0.709317955486     0.500683637837    12.000000000000
         C            2.455120048865     2.834223660974     0.500581080876    12.000000000000
         C            3.681821105219    -0.709333839944     0.516756121855    12.000000000000
         C           -1.225313598688    -0.707527516059     0.503652766323    12.000000000000
         C            1.226699581202     3.543469483479     0.516940153786    12.000000000000
         C            0.000004784858    -2.836782139751     0.517094106321    12.000000000000
         C           -2.456436032848     1.418316917770     0.517197730635    12.000000000000
         C            2.455123417779    -2.834230029103     0.516604213488    12.000000000000
         C           -1.226714364589     3.543469063235     0.517043487005    12.000000000000
         C            4.914517295202     1.427172871975     0.507164320867    12.000000000000
         C            3.693150191476     3.542795292030     0.507214120503    12.000000000000
         C           -2.456437600068    -1.418313281354     0.500309809914    12.000000000000
         C            1.226704841943    -3.543474242421     0.500970023036    12.000000000000
         C           -2.455125398508     2.834216662119     0.500587457223    12.000000000000
         C            4.914524380782    -1.427186910459     0.510137063601    12.000000000000
         C            1.221424613699     4.970134064745     0.510275497861    12.000000000000
         C            4.893008229321     2.825187999512     0.508380989225    12.000000000000
         C           -1.226697008489    -3.543470997592     0.501237227446    12.000000000000
         C           -3.681818976526     0.709324966217     0.500696318317    12.000000000000
         C            3.693147101150    -3.542801341905     0.510254954162    12.000000000000
         C           -1.221432251994     4.970128297348     0.510458993233    12.000000000000
         C            6.134770972926     0.680547946591     0.507934095416    12.000000000000
         C            3.656788880610     4.972953243053     0.508122758285    12.000000000000
         C           -2.455126907733    -2.834215093576     0.516359855690    12.000000000000
         C           -3.681819179061    -0.709325703983     0.516873743434    12.000000000000
         C            4.893012617914    -2.825200106147     0.508992141121    12.000000000000
         C           -0.000001073113     5.650447365518     0.509227684527    12.000000000000
         C            6.134775112332    -0.680554854590     0.509199415932    12.000000000000
         C            2.478131482856     5.653576750817     0.509411537935    12.000000000000
         C            1.221422404738    -4.970127055448     0.507476000838    12.000000000000
         C           -3.693162383965     3.542796953677     0.507379627962    12.000000000000
         C           -1.221428520945    -4.970118304111     0.507363239005    12.000000000000
         C           -4.914521807942     1.427175446480     0.507241265874    12.000000000000
         C            3.656787019679    -4.972955226754     0.509573258819    12.000000000000
         C           -2.478138530106     5.653574422014     0.509696062944    12.000000000000
         C           -3.693141738564    -3.542790219494     0.510138828006    12.000000000000
         C           -4.914512483053    -1.427181000542     0.510171760775    12.000000000000
         C           -0.000006008926    -5.650438287528     0.508832180405    12.000000000000
         C           -4.893020484101     2.825188598404     0.508370907365    12.000000000000
         C            2.478125993298    -5.653573544403     0.508482658027    12.000000000000
         C           -3.656798710258     4.972956181527     0.508299438660    12.000000000000
         C           -4.892999478856    -2.825191767575     0.508838105423    12.000000000000
         C           -2.478128498083    -5.653566170521     0.508207470380    12.000000000000
         C           -6.134770503331     0.680548765741     0.507908543714    12.000000000000
         C           -3.656788833189    -4.972944023485     0.509358971003    12.000000000000
         C           -6.134765042913    -0.680553915997     0.509178940137    12.000000000000
         H            5.835288495816     3.369275894439     0.512740314888     1.007825032230
         H            7.073859172747     1.228217248385     0.508395738810     1.007825032230
         H            4.600663264174     5.512380801938     0.508627959037     1.007825032230
         H            5.835283387305    -3.369306057244     0.504537673806     1.007825032230
         H           -0.000012151306     6.738530673622     0.504878439519     1.007825032230
         H            7.073861171831    -1.228226943259     0.508690677838     1.007825032230
         H            2.473313731799     6.740684290880     0.508944817005     1.007825032230
         H            4.600668491381    -5.512376129691     0.509163261651     1.007825032230
         H           -2.473318680537     6.740681719092     0.509246163630     1.007825032230
         H           -0.000010268228    -6.738528176967     0.513361865390     1.007825032230
         H           -5.835301914343     3.369270949781     0.512876337036     1.007825032230
         H            2.473307923831    -6.740685374944     0.509052988452     1.007825032230
         H           -4.600674841208     5.512378026089     0.508793287361     1.007825032230
         H           -5.835279506835    -3.369288964294     0.504258367925     1.007825032230
         H           -2.473300347440    -6.740679078655     0.508603671908     1.007825032230
         H           -7.073857766768     1.228220472326     0.508311747329     1.007825032230
         H           -4.600673786085    -5.512362670301     0.508990953628     1.007825032230
         H           -7.073856934409    -1.228220632492     0.508595821371     1.007825032230

  Running in c1 symmetry.

  Rotational constants: A =      0.00187  B =      0.00182  C =      0.00109 [cm^-1]
  Rotational constants: A =     55.95538  B =     54.51105  C =     32.71081 [MHz]
  Nuclear repulsion = 8355.495119059221906

  Charge       = 1
  Multiplicity = 1
  Electrons    = 394
  Nalpha       = 197
  Nbeta        = 197

  ==> Algorithm <==

  SCF Algorithm Type is DF.
  DIIS enabled.
  MOM disabled.
  Fractional occupation disabled.
  Guess Type is SAD.
  Energy threshold   = 1.00e-08
  Density threshold  = 1.00e-08
  Integral threshold = 1.00e-12

  ==> Primary Basis <==

  Basis Set: JUN-CC-PVDZ
    Blend: JUN-CC-PVDZ
    Number of shells: 569
    Number of basis functions: 1233
    Number of Cartesian functions: 1294
    Spherical Harmonics?: true
    Max angular momentum: 2

   => Loading Basis Set <=

    Name: (JUN-CC-PVDZ AUX)
    Role: JKFIT
    Keyword: DF_BASIS_SCF
    atoms 1-2, 4-5, 10, 17-70 entry C          line   146 file /home/gridsan/tfroembgen/.conda/envs/psi4test/share/psi4/basis/jun-cc-pvdz-jkfit.gbs 
    atoms 3, 6                entry N          line   202 file /home/gridsan/tfroembgen/.conda/envs/psi4test/share/psi4/basis/jun-cc-pvdz-jkfit.gbs 
    atoms 7-9, 11-16, 71-88   entry H          line    70 file /home/gridsan/tfroembgen/.conda/envs/psi4test/share/psi4/basis/jun-cc-pvdz-jkfit.gbs 

  ==> Integral Setup <==

  ==> DiskDFJK: Density-Fitted J/K Matrices <==

    J tasked:                  Yes
    K tasked:                  Yes
    wK tasked:                  No
    OpenMP threads:             12
    Integrals threads:          12
    Memory [MiB]:            22888
    Algorithm:                Disk
    Integral Cache:           SAVE
    Schwarz Cutoff:          1E-12
    Fitting Condition:       1E-10

   => Auxiliary Basis Set <=

  Basis Set: (JUN-CC-PVDZ AUX)
    Blend: JUN-CC-PVDZ-JKFIT
    Number of shells: 1890
    Number of basis functions: 5440
    Number of Cartesian functions: 6226
    Spherical Harmonics?: true
    Max angular momentum: 3

  Minimum eigenvalue in the overlap matrix is 4.2193257409E-10.
  Reciprocal condition number of the overlap matrix is 1.6971874109E-11.
    Using canonical orthogonalization.
  Overall, 14 of 1233 possible MOs eliminated.


  ==> Pre-Iterations <==

  SCF Guess: Superposition of Atomic Densities via on-the-fly atomic UHF (no occupation information).

   -------------------------
    Irrep   Nso     Nmo    
   -------------------------
     A       1233    1219 
   -------------------------
    Total    1233    1219
   -------------------------

  ==> Iterations <==

                           Total Energy        Delta E     RMS |[F,P]|

   @DF-RHF iter SAD: -2365.95632389474895   -2.36596e+03   0.00000e+00 
   @DF-RHF iter   1: -2358.21296864255874    7.74336e+00   9.41575e-04 DIIS/ADIIS
   @DF-RHF iter   2: -2359.10253559363628   -8.89567e-01   3.17074e-04 DIIS/ADIIS
   @DF-RHF iter   3: -2359.18978036749695   -8.72448e-02   1.21096e-04 DIIS/ADIIS
   @DF-RHF iter   4: -2359.20295587552346   -1.31755e-02   4.56515e-05 DIIS
   @DF-RHF iter   5: -2359.20489742948985   -1.94155e-03   1.04457e-05 DIIS
   @DF-RHF iter   6: -2359.20508448536566   -1.87056e-04   5.69381e-06 DIIS
   @DF-RHF iter   7: -2359.20516100958685   -7.65242e-05   2.48727e-06 DIIS
   @DF-RHF iter   8: -2359.20518437252122   -2.33629e-05   1.17439e-06 DIIS
   @DF-RHF iter   9: -2359.20519011668011   -5.74416e-06   2.97594e-07 DIIS
   @DF-RHF iter  10: -2359.20519037937129   -2.62691e-07   1.13565e-07 DIIS
   @DF-RHF iter  11: -2359.20519040149520   -2.21239e-08   4.48659e-08 DIIS
   @DF-RHF iter  12: -2359.20519040605268   -4.55748e-09   2.21783e-08 DIIS
   @DF-RHF iter  13: -2359.20519040708405   -1.03137e-09   6.21305e-09 DIIS
  Energy and wave function converged.


  ==> Post-Iterations <==

    Orbital Energies [Eh]
    ---------------------

    Doubly Occupied:                                                      

       1A    -15.790437     2A    -15.790007     3A    -11.481089  
       4A    -11.421580     5A    -11.420023     6A    -11.405942  
       7A    -11.405892     8A    -11.353280     9A    -11.352940  
      10A    -11.352588    11A    -11.351837    12A    -11.351389  
      13A    -11.351024    14A    -11.345904    15A    -11.345884  
      16A    -11.345793    17A    -11.345766    18A    -11.344232  
      19A    -11.344081    20A    -11.342974    21A    -11.342962  
      22A    -11.341999    23A    -11.341954    24A    -11.341659  
      25A    -11.341478    26A    -11.341449    27A    -11.341354  
      28A    -11.340169    29A    -11.340104    30A    -11.340029  
      31A    -11.339973    32A    -11.339514    33A    -11.339511  
      34A    -11.339465    35A    -11.339449    36A    -11.338722  
      37A    -11.338712    38A    -11.338694    39A    -11.338663  
      40A    -11.337567    41A    -11.337480    42A    -11.337473  
      43A    -11.337385    44A    -11.332088    45A    -11.331942  
      46A    -11.331923    47A    -11.331869    48A    -11.330464  
      49A    -11.330396    50A    -11.329378    51A    -11.329370  
      52A    -11.327941    53A    -11.327932    54A    -11.327735  
      55A    -11.327729    56A    -11.327722    57A    -11.327691  
      58A    -11.326268    59A    -11.326261    60A    -11.326261  
      61A    -11.326218    62A     -1.535253    63A     -1.390778  
      64A     -1.333511    65A     -1.305329    66A     -1.303511  
      67A     -1.272119    68A     -1.271794    69A     -1.267744  
      70A     -1.237999    71A     -1.230747    72A     -1.221309  
      73A     -1.219797    74A     -1.197459    75A     -1.193354  
      76A     -1.193337    77A     -1.166172    78A     -1.165685  
      79A     -1.163055    80A     -1.146243    81A     -1.145629  
      82A     -1.145624    83A     -1.120549    84A     -1.108845  
      85A     -1.108137    86A     -1.107034    87A     -1.097524  
      88A     -1.092022    89A     -1.076979    90A     -1.069769  
      91A     -1.069506    92A     -1.042404    93A     -1.042210  
      94A     -0.981054    95A     -0.976362    96A     -0.976270  
      97A     -0.974018    98A     -0.969838    99A     -0.969529  
     100A     -0.964255   101A     -0.964152   102A     -0.954805  
     103A     -0.942257   104A     -0.915280   105A     -0.900239  
     106A     -0.898857   107A     -0.895284   108A     -0.894600  
     109A     -0.875886   110A     -0.874078   111A     -0.874043  
     112A     -0.830336   113A     -0.827922   114A     -0.816896  
     115A     -0.816334   116A     -0.811848   117A     -0.811784  
     118A     -0.808414   119A     -0.799025   120A     -0.779766  
     121A     -0.779025   122A     -0.777438   123A     -0.775373  
     124A     -0.774692   125A     -0.772980   126A     -0.749284  
     127A     -0.745073   128A     -0.743474   129A     -0.740521  
     130A     -0.736044   131A     -0.734389   132A     -0.729560  
     133A     -0.729473   134A     -0.719437   135A     -0.718934  
     136A     -0.711321   137A     -0.709623   138A     -0.709525  
     139A     -0.707789   140A     -0.691325   141A     -0.683812  
     142A     -0.681528   143A     -0.679901   144A     -0.679043  
     145A     -0.676465   146A     -0.675434   147A     -0.675249  
     148A     -0.674774   149A     -0.673942   150A     -0.662612  
     151A     -0.660382   152A     -0.655239   153A     -0.649363  
     154A     -0.648797   155A     -0.645753   156A     -0.645508  
     157A     -0.640972   158A     -0.633965   159A     -0.633563  
     160A     -0.620420   161A     -0.619855   162A     -0.617731  
     163A     -0.617630   164A     -0.611735   165A     -0.610248  
     166A     -0.603369   167A     -0.602684   168A     -0.579034  
     169A     -0.575382   170A     -0.572626   171A     -0.569209  
     172A     -0.566684   173A     -0.562594   174A     -0.562396  
     175A     -0.556700   176A     -0.556203   177A     -0.554784  
     178A     -0.534868   179A     -0.534366   180A     -0.518539  
     181A     -0.518405   182A     -0.488488   183A     -0.488431  
     184A     -0.486459   185A     -0.484418   186A     -0.454120  
     187A     -0.453792   188A     -0.430766   189A     -0.427098  
     190A     -0.425059   191A     -0.424775   192A     -0.390764  
     193A     -0.375330   194A     -0.368901   195A     -0.368748  
     196A     -0.306935   197A     -0.306277  

    Virtual:                                                              

     198A     -0.067795   199A     -0.067399   200A     -0.035918  
     201A     -0.029213   202A     -0.027477   203A     -0.019471  
     204A     -0.019308   205A     -0.017181   206A     -0.011092  
     207A     -0.010819   208A     -0.009816   209A     -0.007850  
     210A     -0.004970   211A     -0.000767   212A      0.000311  
     213A      0.001531   214A      0.002893   215A      0.005044  
     216A      0.005104   217A      0.007529   218A      0.011013  
     219A      0.011143   220A      0.012486   221A      0.014832  
     222A      0.017298   223A      0.017433   224A      0.019031  
     225A      0.021144   226A      0.025429   227A      0.032330  
     228A      0.032599   229A      0.032883   230A      0.033450  
     231A      0.034300   232A      0.035843   233A      0.038172  
     234A      0.042685   235A      0.043108   236A      0.044519  
     237A      0.047385   238A      0.047690   239A      0.047962  
     240A      0.051397   241A      0.053019   242A      0.058229  
     243A      0.059209   244A      0.065916   245A      0.067962  
     246A      0.068167   247A      0.070246   248A      0.071876  
     249A      0.073576   250A      0.074696   251A      0.075322  
     252A      0.076238   253A      0.078998   254A      0.082639  
     255A      0.084648   256A      0.084942   257A      0.087149  
     258A      0.088278   259A      0.092667   260A      0.097201  
     261A      0.097476   262A      0.098683   263A      0.100496  
     264A      0.101221   265A      0.104394   266A      0.106371  
     267A      0.106999   268A      0.108085   269A      0.108858  
     270A      0.115444   271A      0.115881   272A      0.116469  
     273A      0.119403   274A      0.119589   275A      0.119841  
     276A      0.122919   277A      0.124086   278A      0.125811  
     279A      0.128381   280A      0.133396   281A      0.135705  
     282A      0.140596   283A      0.141189   284A      0.141437  
     285A      0.141873   286A      0.142802   287A      0.145290  
     288A      0.146018   289A      0.147106   290A      0.147555  
     291A      0.148025   292A      0.149254   293A      0.150252  
     294A      0.150864   295A      0.151904   296A      0.153713  
     297A      0.157578   298A      0.159194   299A      0.159485  
     300A      0.161436   301A      0.163425   302A      0.163938  
     303A      0.164802   304A      0.165747   305A      0.168745  
     306A      0.169095   307A      0.171976   308A      0.173328  
     309A      0.173937   310A      0.176044   311A      0.177436  
     312A      0.178336   313A      0.179499   314A      0.185654  
     315A      0.186524   316A      0.186937   317A      0.187968  
     318A      0.188468   319A      0.189536   320A      0.191022  
     321A      0.193241   322A      0.194539   323A      0.195381  
     324A      0.195538   325A      0.196878   326A      0.198298  
     327A      0.200460   328A      0.201984   329A      0.205048  
     330A      0.205375   331A      0.206101   332A      0.209105  
     333A      0.209938   334A      0.211501   335A      0.214458  
     336A      0.217309   337A      0.217801   338A      0.220273  
     339A      0.223031   340A      0.230505   341A      0.230770  
     342A      0.232017   343A      0.234475   344A      0.236116  
     345A      0.236809   346A      0.237064   347A      0.238800  
     348A      0.239225   349A      0.239802   350A      0.240275  
     351A      0.241929   352A      0.242333   353A      0.242882  
     354A      0.243953   355A      0.244667   356A      0.246768  
     357A      0.247144   358A      0.248910   359A      0.249969  
     360A      0.251177   361A      0.252107   362A      0.253690  
     363A      0.253985   364A      0.255311   365A      0.257703  
     366A      0.259865   367A      0.261614   368A      0.263287  
     369A      0.264176   370A      0.266710   371A      0.267782  
     372A      0.271494   373A      0.272238   374A      0.273165  
     375A      0.276664   376A      0.277414   377A      0.280125  
     378A      0.281289   379A      0.281679   380A      0.283588  
     381A      0.285865   382A      0.286218   383A      0.287695  
     384A      0.288340   385A      0.290196   386A      0.291381  
     387A      0.292707   388A      0.295541   389A      0.296385  
     390A      0.297203   391A      0.297898   392A      0.298988  
     393A      0.301598   394A      0.303260   395A      0.305915  
     396A      0.306704   397A      0.307849   398A      0.309132  
     399A      0.311894   400A      0.313501   401A      0.314701  
     402A      0.315146   403A      0.316029   404A      0.319008  
     405A      0.319743   406A      0.322810   407A      0.325085  
     408A      0.326857   409A      0.327092   410A      0.328312  
     411A      0.330198   412A      0.331688   413A      0.333105  
     414A      0.333604   415A      0.334208   416A      0.335085  
     417A      0.335490   418A      0.337612   419A      0.337973  
     420A      0.339267   421A      0.340604   422A      0.341182  
     423A      0.341600   424A      0.342863   425A      0.344671  
     426A      0.347289   427A      0.348772   428A      0.349728  
     429A      0.351474   430A      0.353647   431A      0.356477  
     432A      0.357303   433A      0.363096   434A      0.364130  
     435A      0.364639   436A      0.366276   437A      0.368655  
     438A      0.369704   439A      0.369717   440A      0.371372  
     441A      0.373228   442A      0.374841   443A      0.376902  
     444A      0.380003   445A      0.381360   446A      0.381880  
     447A      0.383101   448A      0.383738   449A      0.385975  
     450A      0.386456   451A      0.387121   452A      0.389404  
     453A      0.392712   454A      0.394226   455A      0.396367  
     456A      0.399210   457A      0.400908   458A      0.402650  
     459A      0.404870   460A      0.405782   461A      0.407656  
     462A      0.410359   463A      0.415736   464A      0.417027  
     465A      0.417634   466A      0.418591   467A      0.419932  
     468A      0.420168   469A      0.420974   470A      0.422368  
     471A      0.423493   472A      0.424002   473A      0.429511  
     474A      0.431151   475A      0.432947   476A      0.435304  
     477A      0.436241   478A      0.443778   479A      0.444240  
     480A      0.445117   481A      0.447442   482A      0.449682  
     483A      0.451178   484A      0.457922   485A      0.459381  
     486A      0.462446   487A      0.465343   488A      0.467917  
     489A      0.468006   490A      0.470392   491A      0.470732  
     492A      0.473536   493A      0.474464   494A      0.475786  
     495A      0.476655   496A      0.477823   497A      0.478482  
     498A      0.481497   499A      0.482254   500A      0.485978  
     501A      0.489419   502A      0.489985   503A      0.492181  
     504A      0.493430   505A      0.507613   506A      0.509912  
     507A      0.511153   508A      0.513171   509A      0.516551  
     510A      0.518093   511A      0.520152   512A      0.521308  
     513A      0.536565   514A      0.538257   515A      0.538632  
     516A      0.540823   517A      0.541291   518A      0.543476  
     519A      0.548200   520A      0.557618   521A      0.559804  
     522A      0.566181   523A      0.568037   524A      0.574390  
     525A      0.579994   526A      0.580674   527A      0.590455  
     528A      0.590762   529A      0.597836   530A      0.598331  
     531A      0.599370   532A      0.609481   533A      0.635452  
     534A      0.636283   535A      0.661001   536A      0.661903  
     537A      0.664366   538A      0.665298   539A      0.665971  
     540A      0.666908   541A      0.677685   542A      0.678499  
     543A      0.686516   544A      0.690540   545A      0.710974  
     546A      0.712126   547A      0.717509   548A      0.720522  
     549A      0.731231   550A      0.734220   551A      0.734664  
     552A      0.739154   553A      0.744405   554A      0.747337  
     555A      0.748853   556A      0.749561   557A      0.750949  
     558A      0.752361   559A      0.759479   560A      0.761447  
     561A      0.766284   562A      0.767504   563A      0.769559  
     564A      0.773229   565A      0.774665   566A      0.780966  
     567A      0.783275   568A      0.786773   569A      0.788214  
     570A      0.791965   571A      0.796393   572A      0.800750  
     573A      0.801530   574A      0.804489   575A      0.808873  
     576A      0.810955   577A      0.812458   578A      0.813327  
     579A      0.816167   580A      0.820176   581A      0.822347  
     582A      0.824155   583A      0.825074   584A      0.829323  
     585A      0.832315   586A      0.833220   587A      0.837309  
     588A      0.838253   589A      0.839240   590A      0.841309  
     591A      0.842048   592A      0.844895   593A      0.846870  
     594A      0.847617   595A      0.852002   596A      0.852951  
     597A      0.853589   598A      0.856356   599A      0.858169  
     600A      0.858963   601A      0.859194   602A      0.865044  
     603A      0.867178   604A      0.867978   605A      0.870431  
     606A      0.873032   607A      0.875326   608A      0.879207  
     609A      0.879946   610A      0.884060   611A      0.887058  
     612A      0.888156   613A      0.889885   614A      0.890879  
     615A      0.893916   616A      0.894632   617A      0.897248  
     618A      0.898542   619A      0.901415   620A      0.903022  
     621A      0.904328   622A      0.905584   623A      0.912472  
     624A      0.914625   625A      0.919034   626A      0.920307  
     627A      0.923494   628A      0.924551   629A      0.930162  
     630A      0.933560   631A      0.939528   632A      0.939965  
     633A      0.941976   634A      0.944225   635A      0.946062  
     636A      0.947271   637A      0.949245   638A      0.952128  
     639A      0.952340   640A      0.955504   641A      0.958772  
     642A      0.960838   643A      0.963499   644A      0.963661  
     645A      0.964771   646A      0.965534   647A      0.965933  
     648A      0.967182   649A      0.969142   650A      0.972213  
     651A      0.973123   652A      0.974922   653A      0.975969  
     654A      0.976669   655A      0.980055   656A      0.981111  
     657A      0.982029   658A      0.983904   659A      0.985540  
     660A      0.988666   661A      0.992323   662A      0.997513  
     663A      1.001581   664A      1.004480   665A      1.005084  
     666A      1.007603   667A      1.009567   668A      1.011182  
     669A      1.011974   670A      1.015580   671A      1.019180  
     672A      1.020339   673A      1.022002   674A      1.022609  
     675A      1.023789   676A      1.025548   677A      1.028210  
     678A      1.029992   679A      1.033732   680A      1.035645  
     681A      1.035868   682A      1.036758   683A      1.039443  
     684A      1.040954   685A      1.042442   686A      1.043155  
     687A      1.047068   688A      1.049671   689A      1.053697  
     690A      1.054157   691A      1.057949   692A      1.062136  
     693A      1.065260   694A      1.065902   695A      1.069714  
     696A      1.074455   697A      1.075548   698A      1.078061  
     699A      1.081212   700A      1.086449   701A      1.091056  
     702A      1.092566   703A      1.094239   704A      1.097968  
     705A      1.100224   706A      1.102341   707A      1.104811  
     708A      1.109695   709A      1.111642   710A      1.117009  
     711A      1.118321   712A      1.120733   713A      1.121181  
     714A      1.129317   715A      1.132715   716A      1.134426  
     717A      1.136860   718A      1.143369   719A      1.144397  
     720A      1.146450   721A      1.150412   722A      1.158813  
     723A      1.159859   724A      1.161142   725A      1.166846  
     726A      1.169263   727A      1.170965   728A      1.180765  
     729A      1.181965   730A      1.183305   731A      1.183849  
     732A      1.184219   733A      1.186398   734A      1.188494  
     735A      1.188730   736A      1.192029   737A      1.196570  
     738A      1.199015   739A      1.200064   740A      1.205967  
     741A      1.212543   742A      1.215682   743A      1.217452  
     744A      1.219417   745A      1.219631   746A      1.220705  
     747A      1.221879   748A      1.226578   749A      1.236529  
     750A      1.237376   751A      1.238609   752A      1.242894  
     753A      1.246711   754A      1.248262   755A      1.249734  
     756A      1.252792   757A      1.253259   758A      1.256085  
     759A      1.262586   760A      1.267192   761A      1.268833  
     762A      1.270157   763A      1.270410   764A      1.273314  
     765A      1.274322   766A      1.279689   767A      1.283786  
     768A      1.287288   769A      1.288344   770A      1.291085  
     771A      1.296208   772A      1.300474   773A      1.301701  
     774A      1.308753   775A      1.312591   776A      1.313811  
     777A      1.326387   778A      1.328538   779A      1.331812  
     780A      1.334275   781A      1.336470   782A      1.338698  
     783A      1.342560   784A      1.344044   785A      1.346171  
     786A      1.348260   787A      1.353308   788A      1.354987  
     789A      1.359571   790A      1.363445   791A      1.365933  
     792A      1.369079   793A      1.370995   794A      1.371928  
     795A      1.375298   796A      1.376327   797A      1.378547  
     798A      1.383162   799A      1.384925   800A      1.392040  
     801A      1.392810   802A      1.402292   803A      1.405708  
     804A      1.420758   805A      1.437996   806A      1.439364  
     807A      1.440642   808A      1.446858   809A      1.459016  
     810A      1.464235   811A      1.466623   812A      1.467760  
     813A      1.499558   814A      1.503434   815A      1.509890  
     816A      1.515827   817A      1.520279   818A      1.522268  
     819A      1.524029   820A      1.528008   821A      1.531226  
     822A      1.535316   823A      1.536755   824A      1.538189  
     825A      1.541279   826A      1.544737   827A      1.548747  
     828A      1.551072   829A      1.552869   830A      1.560813  
     831A      1.562981   832A      1.565363   833A      1.566856  
     834A      1.570654   835A      1.573257   836A      1.574012  
     837A      1.577764   838A      1.582929   839A      1.585993  
     840A      1.588919   841A      1.590887   842A      1.593802  
     843A      1.597551   844A      1.598187   845A      1.601362  
     846A      1.601779   847A      1.605810   848A      1.609145  
     849A      1.612068   850A      1.616690   851A      1.618061  
     852A      1.618934   853A      1.623539   854A      1.624632  
     855A      1.626299   856A      1.629744   857A      1.635368  
     858A      1.638607   859A      1.646684   860A      1.650785  
     861A      1.653117   862A      1.661874   863A      1.665340  
     864A      1.669678   865A      1.682904   866A      1.684919  
     867A      1.685579   868A      1.687901   869A      1.689872  
     870A      1.696570   871A      1.697959   872A      1.710405  
     873A      1.713723   874A      1.717697   875A      1.727675  
     876A      1.731643   877A      1.734888   878A      1.739219  
     879A      1.741348   880A      1.743169   881A      1.748853  
     882A      1.753613   883A      1.755222   884A      1.757091  
     885A      1.760979   886A      1.769454   887A      1.772719  
     888A      1.781012   889A      1.781996   890A      1.784931  
     891A      1.787864   892A      1.788399   893A      1.792420  
     894A      1.795798   895A      1.800591   896A      1.802741  
     897A      1.813159   898A      1.817504   899A      1.819511  
     900A      1.821604   901A      1.824814   902A      1.827461  
     903A      1.828988   904A      1.830176   905A      1.831353  
     906A      1.835422   907A      1.836317   908A      1.836803  
     909A      1.839058   910A      1.841228   911A      1.844126  
     912A      1.847493   913A      1.848787   914A      1.856040  
     915A      1.858007   916A      1.862253   917A      1.866437  
     918A      1.867725   919A      1.870444   920A      1.872306  
     921A      1.873482   922A      1.875771   923A      1.877246  
     924A      1.877903   925A      1.880324   926A      1.883008  
     927A      1.891762   928A      1.903971   929A      1.906760  
     930A      1.911355   931A      1.913540   932A      1.915084  
     933A      1.916545   934A      1.917329   935A      1.919251  
     936A      1.925362   937A      1.927090   938A      1.931309  
     939A      1.933408   940A      1.935684   941A      1.937331  
     942A      1.941875   943A      1.944754   944A      1.947231  
     945A      1.949335   946A      1.951982   947A      1.953898  
     948A      1.954343   949A      1.958660   950A      1.960613  
     951A      1.967390   952A      1.970292   953A      1.971331  
     954A      1.975946   955A      1.978709   956A      1.983561  
     957A      1.985872   958A      1.986629   959A      1.988193  
     960A      1.991941   961A      1.994725   962A      1.997246  
     963A      1.998915   964A      2.004423   965A      2.007302  
     966A      2.007680   967A      2.012264   968A      2.014834  
     969A      2.015891   970A      2.018959   971A      2.023229  
     972A      2.024791   973A      2.025259   974A      2.027835  
     975A      2.029235   976A      2.031727   977A      2.033757  
     978A      2.035673   979A      2.036848   980A      2.039261  
     981A      2.040456   982A      2.041653   983A      2.042433  
     984A      2.045947   985A      2.048321   986A      2.050896  
     987A      2.053556   988A      2.055073   989A      2.056008  
     990A      2.057695   991A      2.060271   992A      2.061821  
     993A      2.064468   994A      2.067039   995A      2.069208  
     996A      2.075923   997A      2.080712   998A      2.083783  
     999A      2.084442  1000A      2.087112  1001A      2.089785  
    1002A      2.098669  1003A      2.102126  1004A      2.109147  
    1005A      2.114344  1006A      2.115158  1007A      2.117447  
    1008A      2.120909  1009A      2.122906  1010A      2.125740  
    1011A      2.131934  1012A      2.133991  1013A      2.137598  
    1014A      2.138467  1015A      2.140495  1016A      2.143249  
    1017A      2.147020  1018A      2.155349  1019A      2.160992  
    1020A      2.165887  1021A      2.167999  1022A      2.168992  
    1023A      2.169484  1024A      2.170772  1025A      2.173266  
    1026A      2.174987  1027A      2.180555  1028A      2.186417  
    1029A      2.187484  1030A      2.191763  1031A      2.192002  
    1032A      2.194776  1033A      2.197513  1034A      2.205596  
    1035A      2.211812  1036A      2.223735  1037A      2.226123  
    1038A      2.230802  1039A      2.235119  1040A      2.235801  
    1041A      2.241581  1042A      2.247664  1043A      2.252723  
    1044A      2.255924  1045A      2.263422  1046A      2.264649  
    1047A      2.267193  1048A      2.273263  1049A      2.274081  
    1050A      2.275988  1051A      2.276787  1052A      2.284977  
    1053A      2.287585  1054A      2.289324  1055A      2.298089  
    1056A      2.309146  1057A      2.328452  1058A      2.337879  
    1059A      2.340150  1060A      2.342802  1061A      2.343488  
    1062A      2.343798  1063A      2.354131  1064A      2.357728  
    1065A      2.375247  1066A      2.385835  1067A      2.388715  
    1068A      2.399237  1069A      2.403777  1070A      2.405975  
    1071A      2.408235  1072A      2.411894  1073A      2.420077  
    1074A      2.424860  1075A      2.444805  1076A      2.448547  
    1077A      2.451227  1078A      2.467569  1079A      2.468646  
    1080A      2.469479  1081A      2.472180  1082A      2.478372  
    1083A      2.478938  1084A      2.479837  1085A      2.480546  
    1086A      2.482354  1087A      2.492115  1088A      2.492328  
    1089A      2.500918  1090A      2.501578  1091A      2.504151  
    1092A      2.508238  1093A      2.509534  1094A      2.512266  
    1095A      2.524235  1096A      2.532544  1097A      2.542420  
    1098A      2.543144  1099A      2.549294  1100A      2.551074  
    1101A      2.553491  1102A      2.564850  1103A      2.565947  
    1104A      2.571821  1105A      2.577040  1106A      2.580279  
    1107A      2.582062  1108A      2.592273  1109A      2.597182  
    1110A      2.606414  1111A      2.609316  1112A      2.611087  
    1113A      2.619130  1114A      2.623520  1115A      2.625768  
    1116A      2.629861  1117A      2.631358  1118A      2.636374  
    1119A      2.637660  1120A      2.643489  1121A      2.644264  
    1122A      2.662438  1123A      2.679163  1124A      2.680415  
    1125A      2.687989  1126A      2.702927  1127A      2.706650  
    1128A      2.713246  1129A      2.715292  1130A      2.744392  
    1131A      2.746462  1132A      2.747356  1133A      2.751069  
    1134A      2.763513  1135A      2.769525  1136A      2.771709  
    1137A      2.772337  1138A      2.774489  1139A      2.777939  
    1140A      2.780092  1141A      2.794450  1142A      2.797411  
    1143A      2.808628  1144A      2.819669  1145A      2.831993  
    1146A      2.842402  1147A      2.843805  1148A      2.849292  
    1149A      2.858542  1150A      2.861933  1151A      2.875063  
    1152A      2.876433  1153A      2.886862  1154A      2.896915  
    1155A      2.903576  1156A      2.937813  1157A      2.942951  
    1158A      2.966907  1159A      2.969955  1160A      2.975362  
    1161A      2.980558  1162A      2.981367  1163A      2.992338  
    1164A      2.997815  1165A      3.037618  1166A      3.039565  
    1167A      3.041868  1168A      3.052768  1169A      3.054919  
    1170A      3.056363  1171A      3.063746  1172A      3.067556  
    1173A      3.069597  1174A      3.072109  1175A      3.072637  
    1176A      3.078030  1177A      3.079652  1178A      3.086718  
    1179A      3.091025  1180A      3.092091  1181A      3.102599  
    1182A      3.115301  1183A      3.121455  1184A      3.135024  
    1185A      3.146800  1186A      3.152144  1187A      3.172294  
    1188A      3.199833  1189A      3.200625  1190A      3.204019  
    1191A      3.211829  1192A      3.217667  1193A      3.337894  
    1194A      3.338466  1195A      3.357847  1196A      3.405956  
    1197A      3.408660  1198A      3.475191  1199A      3.504702  
    1200A      3.505620  1201A      3.546104  1202A      3.551309  
    1203A      3.554082  1204A      3.560786  1205A      3.598008  
    1206A      3.607300  1207A      3.609898  1208A      3.708707  
    1209A      3.711222  1210A      3.726924  1211A      3.792321  
    1212A      3.793336  1213A      3.834754  1214A      3.834989  
    1215A      3.899931  1216A      3.927686  1217A      3.998117  
    1218A      4.011058  1219A      4.108139  

    Final Occupation by Irrep:
              A 
    DOCC [   197 ]
    NA   [   197 ]
    NB   [   197 ]

  @DF-RHF Final Energy: -2359.20519040708405

   => Energetics <=

    Nuclear Repulsion Energy =           8355.4951190592219064
    One-Electron Energy =              -19809.8014500631725241
    Two-Electron Energy =                9095.1011405968674808
    Total Energy =                      -2359.2051904070831370

Computation Completed


Properties will be evaluated at   0.000000,   0.000000,   0.000000 [a0]

Properties computed using the SCF density matrix


 Multipole Moments:

 ------------------------------------------------------------------------------------
     Multipole            Electronic (a.u.)      Nuclear  (a.u.)        Total (a.u.)
 ------------------------------------------------------------------------------------

 L = 1.  Multiply by 2.5417464519 to convert [e a0] to [Debye]
 Dipole X            :         -0.0030287            0.0006313           -0.0023974
 Dipole Y            :         -0.0554941            0.0560211            0.0005270
 Dipole Z            :         14.6016722          -18.9639320           -4.3622599
 Magnitude           :                                                    4.3622606

 ------------------------------------------------------------------------------------

*** tstop() called on d-18-8-4 at Mon Jan 22 19:13:59 2024
Module time:
	user time   =    4661.21 seconds =      77.69 minutes
	system time =     450.35 seconds =       7.51 minutes
	total time  =       3894 seconds =      64.90 minutes
Total time:
	user time   =    4661.21 seconds =      77.69 minutes
	system time =     450.35 seconds =       7.51 minutes
	total time  =       3894 seconds =      64.90 minutes

  //>>>>>>>>>>>>>>>>>>>>>>>>>>>>>>>>>>>//
  //            Monomer A HF           //
  //<<<<<<<<<<<<<<<<<<<<<<<<<<<<<<<<<<<//

   => Libint2 <=

    Primary   basis highest AM E, G, H:  7, 7, 4
    Auxiliary basis highest AM E, G, H:  7, 7, 5
    Onebody   basis highest AM E, G, H:  7, 7, 5
    Solid Harmonics ordering:            gaussian

*** tstart() called on d-18-8-4
*** at Mon Jan 22 19:13:59 2024

   => Loading Basis Set <=

    Name: JUN-CC-PVDZ
    Role: ORBITAL
    Keyword: BASIS
    atoms 1-2, 4-5, 10, 17-70 entry C          line   164 file /home/gridsan/tfroembgen/.conda/envs/psi4test/share/psi4/basis/jun-cc-pvdz.gbs 
    atoms 3, 6                entry N          line   198 file /home/gridsan/tfroembgen/.conda/envs/psi4test/share/psi4/basis/jun-cc-pvdz.gbs 
    atoms 7-9, 11-16, 71-88   entry H          line    36 file /home/gridsan/tfroembgen/.conda/envs/psi4test/share/psi4/basis/jun-cc-pvdz.gbs 


         ---------------------------------------------------------
                                   SCF
               by Justin Turney, Rob Parrish, Andy Simmonett
                          and Daniel G. A. Smith
                              RHF Reference
                       12 Threads,  30517 MiB Core
         ---------------------------------------------------------

  ==> Geometry <==

    Molecular point group: c1
    Full point group: C1

    Geometry (in Angstrom), charge = 1, multiplicity = 1:

       Center              X                  Y                   Z               Mass       
    ------------   -----------------  -----------------  -----------------  -----------------
         C            0.680066520158    -0.008042372515    -4.707155812817    12.000000000000
         C           -0.680504479842    -0.006014372515    -4.706771812817    12.000000000000
         N           -1.085635479842    -0.005016372515    -3.388447812817    14.003074004430
         C            0.000107520158    -0.001740372515    -2.607046812817    12.000000000000
         C           -2.477365479842     0.044389627485    -2.920468812817    12.000000000000
         N            1.085221520158    -0.005016372515    -3.388447812817    14.003074004430
         H            1.385145520158    -0.015870372515    -5.524594812817     1.007825032230
         H           -1.385302479842    -0.006204372515    -5.524440812817     1.007825032230
         H           -0.000009479842     0.000006627485    -1.525957812817     1.007825032230
         C            2.478116520158    -0.021908372515    -2.923349812817    12.000000000000
         H            2.490591520158     0.005436627485    -1.833096812817     1.007825032230
         H            2.967027520158    -0.935354372515    -3.270525812817     1.007825032230
         H            3.001427520158     0.853574627485    -3.314821812817     1.007825032230
         H           -2.857359479842     1.066460627485    -3.000427812817     1.007825032230
         H           -3.082679479842    -0.625694372515    -3.533532812817     1.007825032230
         H           -2.518128479842    -0.282594372515    -1.880520812817     1.007825032230
      Gh(C)           1.225311895423     0.707538288405     0.514910814466    12.000000000000
      Gh(C)           1.225323856051    -0.707538895085     0.502580004896    12.000000000000
      Gh(C)          -0.000006153932     1.414965913575     0.502046381375    12.000000000000
      Gh(C)           2.456448753949     1.418327886663     0.517797671866    12.000000000000
      Gh(C)           0.000010827279    -1.414976499150     0.512245938700    12.000000000000
      Gh(C)          -1.225300948908     0.707545373469     0.517162334789    12.000000000000
      Gh(C)           2.456437755320    -1.418323304396     0.500334848039    12.000000000000
      Gh(C)          -0.000001332978     2.836801030766     0.499642831241    12.000000000000
      Gh(C)           3.681826697470     0.709317955486     0.500683637837    12.000000000000
      Gh(C)           2.455120048865     2.834223660974     0.500581080876    12.000000000000
      Gh(C)           3.681821105219    -0.709333839944     0.516756121855    12.000000000000
      Gh(C)          -1.225313598688    -0.707527516059     0.503652766323    12.000000000000
      Gh(C)           1.226699581202     3.543469483479     0.516940153786    12.000000000000
      Gh(C)           0.000004784858    -2.836782139751     0.517094106321    12.000000000000
      Gh(C)          -2.456436032848     1.418316917770     0.517197730635    12.000000000000
      Gh(C)           2.455123417779    -2.834230029103     0.516604213488    12.000000000000
      Gh(C)          -1.226714364589     3.543469063235     0.517043487005    12.000000000000
      Gh(C)           4.914517295202     1.427172871975     0.507164320867    12.000000000000
      Gh(C)           3.693150191476     3.542795292030     0.507214120503    12.000000000000
      Gh(C)          -2.456437600068    -1.418313281354     0.500309809914    12.000000000000
      Gh(C)           1.226704841943    -3.543474242421     0.500970023036    12.000000000000
      Gh(C)          -2.455125398508     2.834216662119     0.500587457223    12.000000000000
      Gh(C)           4.914524380782    -1.427186910459     0.510137063601    12.000000000000
      Gh(C)           1.221424613699     4.970134064745     0.510275497861    12.000000000000
      Gh(C)           4.893008229321     2.825187999512     0.508380989225    12.000000000000
      Gh(C)          -1.226697008489    -3.543470997592     0.501237227446    12.000000000000
      Gh(C)          -3.681818976526     0.709324966217     0.500696318317    12.000000000000
      Gh(C)           3.693147101150    -3.542801341905     0.510254954162    12.000000000000
      Gh(C)          -1.221432251994     4.970128297348     0.510458993233    12.000000000000
      Gh(C)           6.134770972926     0.680547946591     0.507934095416    12.000000000000
      Gh(C)           3.656788880610     4.972953243053     0.508122758285    12.000000000000
      Gh(C)          -2.455126907733    -2.834215093576     0.516359855690    12.000000000000
      Gh(C)          -3.681819179061    -0.709325703983     0.516873743434    12.000000000000
      Gh(C)           4.893012617914    -2.825200106147     0.508992141121    12.000000000000
      Gh(C)          -0.000001073113     5.650447365518     0.509227684527    12.000000000000
      Gh(C)           6.134775112332    -0.680554854590     0.509199415932    12.000000000000
      Gh(C)           2.478131482856     5.653576750817     0.509411537935    12.000000000000
      Gh(C)           1.221422404738    -4.970127055448     0.507476000838    12.000000000000
      Gh(C)          -3.693162383965     3.542796953677     0.507379627962    12.000000000000
      Gh(C)          -1.221428520945    -4.970118304111     0.507363239005    12.000000000000
      Gh(C)          -4.914521807942     1.427175446480     0.507241265874    12.000000000000
      Gh(C)           3.656787019679    -4.972955226754     0.509573258819    12.000000000000
      Gh(C)          -2.478138530106     5.653574422014     0.509696062944    12.000000000000
      Gh(C)          -3.693141738564    -3.542790219494     0.510138828006    12.000000000000
      Gh(C)          -4.914512483053    -1.427181000542     0.510171760775    12.000000000000
      Gh(C)          -0.000006008926    -5.650438287528     0.508832180405    12.000000000000
      Gh(C)          -4.893020484101     2.825188598404     0.508370907365    12.000000000000
      Gh(C)           2.478125993298    -5.653573544403     0.508482658027    12.000000000000
      Gh(C)          -3.656798710258     4.972956181527     0.508299438660    12.000000000000
      Gh(C)          -4.892999478856    -2.825191767575     0.508838105423    12.000000000000
      Gh(C)          -2.478128498083    -5.653566170521     0.508207470380    12.000000000000
      Gh(C)          -6.134770503331     0.680548765741     0.507908543714    12.000000000000
      Gh(C)          -3.656788833189    -4.972944023485     0.509358971003    12.000000000000
      Gh(C)          -6.134765042913    -0.680553915997     0.509178940137    12.000000000000
      Gh(H)           5.835288495816     3.369275894439     0.512740314888     1.007825032230
      Gh(H)           7.073859172747     1.228217248385     0.508395738810     1.007825032230
      Gh(H)           4.600663264174     5.512380801938     0.508627959037     1.007825032230
      Gh(H)           5.835283387305    -3.369306057244     0.504537673806     1.007825032230
      Gh(H)          -0.000012151306     6.738530673622     0.504878439519     1.007825032230
      Gh(H)           7.073861171831    -1.228226943259     0.508690677838     1.007825032230
      Gh(H)           2.473313731799     6.740684290880     0.508944817005     1.007825032230
      Gh(H)           4.600668491381    -5.512376129691     0.509163261651     1.007825032230
      Gh(H)          -2.473318680537     6.740681719092     0.509246163630     1.007825032230
      Gh(H)          -0.000010268228    -6.738528176967     0.513361865390     1.007825032230
      Gh(H)          -5.835301914343     3.369270949781     0.512876337036     1.007825032230
      Gh(H)           2.473307923831    -6.740685374944     0.509052988452     1.007825032230
      Gh(H)          -4.600674841208     5.512378026089     0.508793287361     1.007825032230
      Gh(H)          -5.835279506835    -3.369288964294     0.504258367925     1.007825032230
      Gh(H)          -2.473300347440    -6.740679078655     0.508603671908     1.007825032230
      Gh(H)          -7.073857766768     1.228220472326     0.508311747329     1.007825032230
      Gh(H)          -4.600673786085    -5.512362670301     0.508990953628     1.007825032230
      Gh(H)          -7.073856934409    -1.228220632492     0.508595821371     1.007825032230

  Running in c1 symmetry.

  Rotational constants: A =      0.00187  B =      0.00182  C =      0.00109 [cm^-1]
  Rotational constants: A =     55.95538  B =     54.51105  C =     32.71081 [MHz]
  Nuclear repulsion =  306.774908447733083

  Charge       = 1
  Multiplicity = 1
  Electrons    = 52
  Nalpha       = 26
  Nbeta        = 26

  ==> Algorithm <==

  SCF Algorithm Type is DF.
  DIIS enabled.
  MOM disabled.
  Fractional occupation disabled.
  Guess Type is SAD.
  Energy threshold   = 1.00e-08
  Density threshold  = 1.00e-08
  Integral threshold = 1.00e-12

  ==> Primary Basis <==

  Basis Set: JUN-CC-PVDZ
    Blend: JUN-CC-PVDZ
    Number of shells: 569
    Number of basis functions: 1233
    Number of Cartesian functions: 1294
    Spherical Harmonics?: true
    Max angular momentum: 2

   => Loading Basis Set <=

    Name: (JUN-CC-PVDZ AUX)
    Role: JKFIT
    Keyword: DF_BASIS_SCF
    atoms 1-2, 4-5, 10, 17-70 entry C          line   146 file /home/gridsan/tfroembgen/.conda/envs/psi4test/share/psi4/basis/jun-cc-pvdz-jkfit.gbs 
    atoms 3, 6                entry N          line   202 file /home/gridsan/tfroembgen/.conda/envs/psi4test/share/psi4/basis/jun-cc-pvdz-jkfit.gbs 
    atoms 7-9, 11-16, 71-88   entry H          line    70 file /home/gridsan/tfroembgen/.conda/envs/psi4test/share/psi4/basis/jun-cc-pvdz-jkfit.gbs 

  ==> Integral Setup <==

  ==> DiskDFJK: Density-Fitted J/K Matrices <==

    J tasked:                  Yes
    K tasked:                  Yes
    wK tasked:                  No
    OpenMP threads:             12
    Integrals threads:          12
    Memory [MiB]:            22888
    Algorithm:                Disk
    Integral Cache:           LOAD
    Schwarz Cutoff:          1E-12
    Fitting Condition:       1E-10

   => Auxiliary Basis Set <=

  Basis Set: (JUN-CC-PVDZ AUX)
    Blend: JUN-CC-PVDZ-JKFIT
    Number of shells: 1890
    Number of basis functions: 5440
    Number of Cartesian functions: 6226
    Spherical Harmonics?: true
    Max angular momentum: 3

  Minimum eigenvalue in the overlap matrix is 4.2193257409E-10.
  Reciprocal condition number of the overlap matrix is 1.6971874109E-11.
    Using canonical orthogonalization.
  Overall, 14 of 1233 possible MOs eliminated.


  ==> Pre-Iterations <==

  SCF Guess: Superposition of Atomic Densities via on-the-fly atomic UHF (no occupation information).

   -------------------------
    Irrep   Nso     Nmo    
   -------------------------
     A       1233    1219 
   -------------------------
    Total    1233    1219
   -------------------------

  ==> Iterations <==

                           Total Energy        Delta E     RMS |[F,P]|

   @DF-RHF iter SAD:  -303.36537003591752   -3.03365e+02   0.00000e+00 
   @DF-RHF iter   1:  -303.17034283191754    1.95027e-01   3.44887e-04 DIIS/ADIIS
   @DF-RHF iter   2:  -303.28482794198896   -1.14485e-01   1.16095e-04 DIIS/ADIIS
   @DF-RHF iter   3:  -303.29634684117320   -1.15189e-02   4.55223e-05 DIIS
   @DF-RHF iter   4:  -303.29827278229448   -1.92594e-03   9.98808e-06 DIIS
   @DF-RHF iter   5:  -303.29838118139122   -1.08399e-04   2.44280e-06 DIIS
   @DF-RHF iter   6:  -303.29839074465434   -9.56326e-06   6.59294e-07 DIIS
   @DF-RHF iter   7:  -303.29839184533500   -1.10068e-06   3.36610e-07 DIIS
   @DF-RHF iter   8:  -303.29839210734167   -2.62007e-07   1.35591e-07 DIIS
   @DF-RHF iter   9:  -303.29839215770232   -5.03607e-08   3.37770e-08 DIIS
   @DF-RHF iter  10:  -303.29839216053671   -2.83438e-09   1.25294e-08 DIIS
   @DF-RHF iter  11:  -303.29839216077448   -2.37776e-10   2.93180e-09 DIIS
  Energy and wave function converged.


  ==> Post-Iterations <==

    Orbital Energies [Eh]
    ---------------------

    Doubly Occupied:                                                      

       1A    -15.834497     2A    -15.833957     3A    -11.529238  
       4A    -11.459649     5A    -11.458093     6A    -11.449573  
       7A    -11.449454     8A     -1.577724     9A     -1.433360  
      10A     -1.238221    11A     -1.188983    12A     -1.118609  
      13A     -1.022104    14A     -0.996554    15A     -0.916695  
      16A     -0.850192    17A     -0.815900    18A     -0.812780  
      19A     -0.789765    20A     -0.786001    21A     -0.781408  
      22A     -0.729484    23A     -0.725569    24A     -0.716993  
      25A     -0.595926    26A     -0.523534  

    Virtual:                                                              

      27A     -0.080169    28A     -0.073641    29A     -0.062722  
      30A     -0.055255    31A     -0.043584    32A     -0.040115  
      33A     -0.039902    34A     -0.039175    35A     -0.038654  
      36A     -0.027259    37A     -0.026849    38A     -0.021332  
      39A     -0.021058    40A     -0.015234    41A     -0.013966  
      42A     -0.013921    43A     -0.010090    44A     -0.007152  
      45A     -0.002789    46A      0.002253    47A      0.004644  
      48A      0.005133    49A      0.006618    50A      0.007177  
      51A      0.011946    52A      0.011986    53A      0.013161  
      54A      0.019695    55A      0.022215    56A      0.022763  
      57A      0.022932    58A      0.028101    59A      0.029393  
      60A      0.030726    61A      0.038151    62A      0.038746  
      63A      0.040861    64A      0.042407    65A      0.042989  
      66A      0.045850    67A      0.046409    68A      0.051795  
      69A      0.053028    70A      0.054097    71A      0.054697  
      72A      0.058919    73A      0.059809    74A      0.060053  
      75A      0.060899    76A      0.061351    77A      0.063155  
      78A      0.068042    79A      0.068255    80A      0.068359  
      81A      0.068656    82A      0.072927    83A      0.073831  
      84A      0.077499    85A      0.080071    86A      0.080513  
      87A      0.080984    88A      0.081456    89A      0.087130  
      90A      0.087735    91A      0.088160    92A      0.088437  
      93A      0.088677    94A      0.091862    95A      0.098077  
      96A      0.100538    97A      0.101310    98A      0.101986  
      99A      0.102928   100A      0.103389   101A      0.106087  
     102A      0.109087   103A      0.109945   104A      0.110969  
     105A      0.111416   106A      0.112265   107A      0.113655  
     108A      0.114887   109A      0.115594   110A      0.117775  
     111A      0.118281   112A      0.118645   113A      0.122065  
     114A      0.122096   115A      0.124636   116A      0.126119  
     117A      0.126811   118A      0.127969   119A      0.129710  
     120A      0.134924   121A      0.135909   122A      0.139561  
     123A      0.140249   124A      0.140405   125A      0.141611  
     126A      0.141815   127A      0.146927   128A      0.148231  
     129A      0.148895   130A      0.149138   131A      0.151914  
     132A      0.154140   133A      0.154738   134A      0.156909  
     135A      0.157576   136A      0.158765   137A      0.161709  
     138A      0.162758   139A      0.164636   140A      0.165927  
     141A      0.169029   142A      0.169800   143A      0.170145  
     144A      0.171447   145A      0.173101   146A      0.173904  
     147A      0.175341   148A      0.176191   149A      0.178024  
     150A      0.178342   151A      0.178507   152A      0.181195  
     153A      0.182619   154A      0.183767   155A      0.188057  
     156A      0.188541   157A      0.189822   158A      0.195305  
     159A      0.198290   160A      0.201574   161A      0.202564  
     162A      0.202920   163A      0.204336   164A      0.204504  
     165A      0.208009   166A      0.208419   167A      0.210753  
     168A      0.211403   169A      0.212086   170A      0.213088  
     171A      0.214009   172A      0.215870   173A      0.217569  
     174A      0.217925   175A      0.221595   176A      0.222359  
     177A      0.224319   178A      0.224830   179A      0.225369  
     180A      0.227933   181A      0.231229   182A      0.232533  
     183A      0.234557   184A      0.234991   185A      0.236001  
     186A      0.237256   187A      0.239885   188A      0.244154  
     189A      0.244992   190A      0.251198   191A      0.254005  
     192A      0.256886   193A      0.259007   194A      0.260241  
     195A      0.260538   196A      0.262180   197A      0.262821  
     198A      0.264214   199A      0.265484   200A      0.267526  
     201A      0.271554   202A      0.273108   203A      0.275253  
     204A      0.277009   205A      0.277328   206A      0.279375  
     207A      0.280164   208A      0.280915   209A      0.282855  
     210A      0.284328   211A      0.285401   212A      0.286561  
     213A      0.287099   214A      0.288793   215A      0.289488  
     216A      0.290077   217A      0.293856   218A      0.296948  
     219A      0.299271   220A      0.302916   221A      0.304386  
     222A      0.306336   223A      0.310090   224A      0.312234  
     225A      0.312284   226A      0.315981   227A      0.317701  
     228A      0.321147   229A      0.323922   230A      0.324176  
     231A      0.325188   232A      0.328271   233A      0.333417  
     234A      0.334188   235A      0.335768   236A      0.339688  
     237A      0.342157   238A      0.343615   239A      0.347372  
     240A      0.347593   241A      0.348330   242A      0.349723  
     243A      0.352724   244A      0.354181   245A      0.356220  
     246A      0.357508   247A      0.360320   248A      0.362442  
     249A      0.363914   250A      0.365969   251A      0.368662  
     252A      0.373118   253A      0.374459   254A      0.375407  
     255A      0.376882   256A      0.378230   257A      0.378903  
     258A      0.380772   259A      0.381479   260A      0.384055  
     261A      0.385660   262A      0.387625   263A      0.389241  
     264A      0.390367   265A      0.392148   266A      0.393727  
     267A      0.394905   268A      0.395691   269A      0.398619  
     270A      0.399908   271A      0.401243   272A      0.402475  
     273A      0.403805   274A      0.407024   275A      0.408744  
     276A      0.411246   277A      0.416783   278A      0.421088  
     279A      0.422295   280A      0.423333   281A      0.424765  
     282A      0.426499   283A      0.431046   284A      0.433370  
     285A      0.435952   286A      0.439134   287A      0.440305  
     288A      0.441817   289A      0.444149   290A      0.445325  
     291A      0.445991   292A      0.447374   293A      0.449864  
     294A      0.452170   295A      0.454341   296A      0.455630  
     297A      0.458731   298A      0.459497   299A      0.461317  
     300A      0.464095   301A      0.465957   302A      0.467838  
     303A      0.469196   304A      0.471079   305A      0.474091  
     306A      0.476348   307A      0.477672   308A      0.481645  
     309A      0.485625   310A      0.485994   311A      0.493672  
     312A      0.494506   313A      0.497026   314A      0.498397  
     315A      0.499136   316A      0.500380   317A      0.502247  
     318A      0.503418   319A      0.503866   320A      0.506082  
     321A      0.509226   322A      0.510638   323A      0.512683  
     324A      0.517034   325A      0.519818   326A      0.523558  
     327A      0.524254   328A      0.529024   329A      0.530116  
     330A      0.533696   331A      0.534794   332A      0.537306  
     333A      0.538860   334A      0.540209   335A      0.541946  
     336A      0.545459   337A      0.547915   338A      0.548636  
     339A      0.551484   340A      0.554360   341A      0.555024  
     342A      0.557082   343A      0.558178   344A      0.562566  
     345A      0.564232   346A      0.566843   347A      0.567443  
     348A      0.570386   349A      0.571212   350A      0.574590  
     351A      0.577733   352A      0.585159   353A      0.588508  
     354A      0.592444   355A      0.593310   356A      0.595768  
     357A      0.600590   358A      0.601003   359A      0.601682  
     360A      0.602306   361A      0.603426   362A      0.606323  
     363A      0.611181   364A      0.611282   365A      0.613555  
     366A      0.614895   367A      0.616146   368A      0.617304  
     369A      0.620365   370A      0.622878   371A      0.623896  
     372A      0.625071   373A      0.640563   374A      0.642221  
     375A      0.646573   376A      0.648589   377A      0.650523  
     378A      0.654114   379A      0.659918   380A      0.662875  
     381A      0.670718   382A      0.672840   383A      0.676856  
     384A      0.677826   385A      0.678566   386A      0.680100  
     387A      0.680468   388A      0.680536   389A      0.682304  
     390A      0.683721   391A      0.684758   392A      0.686727  
     393A      0.687068   394A      0.690494   395A      0.692535  
     396A      0.696729   397A      0.700296   398A      0.701183  
     399A      0.706262   400A      0.710192   401A      0.711350  
     402A      0.711791   403A      0.717793   404A      0.718387  
     405A      0.725020   406A      0.725606   407A      0.726793  
     408A      0.739992   409A      0.743297   410A      0.756449  
     411A      0.764004   412A      0.765893   413A      0.767944  
     414A      0.769171   415A      0.770539   416A      0.771337  
     417A      0.774252   418A      0.778338   419A      0.783449  
     420A      0.785834   421A      0.789522   422A      0.791654  
     423A      0.793068   424A      0.797906   425A      0.799244  
     426A      0.803422   427A      0.806325   428A      0.807636  
     429A      0.814191   430A      0.814724   431A      0.816004  
     432A      0.820952   433A      0.823757   434A      0.826077  
     435A      0.828798   436A      0.829149   437A      0.844975  
     438A      0.859067   439A      0.862755   440A      0.874628  
     441A      0.877386   442A      0.878615   443A      0.879620  
     444A      0.885191   445A      0.885375   446A      0.895281  
     447A      0.904905   448A      0.913411   449A      0.915564  
     450A      0.916639   451A      0.921793   452A      0.923946  
     453A      0.924217   454A      0.926343   455A      0.930725  
     456A      0.933783   457A      0.945511   458A      0.946723  
     459A      0.953705   460A      0.961634   461A      0.970506  
     462A      0.977963   463A      0.978668   464A      0.980202  
     465A      0.984077   466A      0.984728   467A      0.992478  
     468A      1.011871   469A      1.015690   470A      1.019558  
     471A      1.022042   472A      1.024308   473A      1.035856  
     474A      1.045563   475A      1.054079   476A      1.063574  
     477A      1.065098   478A      1.072246   479A      1.076189  
     480A      1.079191   481A      1.083008   482A      1.085073  
     483A      1.094376   484A      1.100211   485A      1.101158  
     486A      1.101994   487A      1.103596   488A      1.106935  
     489A      1.111895   490A      1.115287   491A      1.133478  
     492A      1.134697   493A      1.137613   494A      1.151921  
     495A      1.154044   496A      1.158661   497A      1.160498  
     498A      1.173151   499A      1.188952   500A      1.199266  
     501A      1.208291   502A      1.214690   503A      1.217178  
     504A      1.219018   505A      1.220749   506A      1.220786  
     507A      1.238472   508A      1.238871   509A      1.239367  
     510A      1.240737   511A      1.280263   512A      1.282794  
     513A      1.288814   514A      1.295015   515A      1.354206  
     516A      1.355816   517A      1.356730   518A      1.369583  
     519A      1.371951   520A      1.372786   521A      1.373231  
     522A      1.375661   523A      1.389440   524A      1.397939  
     525A      1.401098   526A      1.419783   527A      1.449727  
     528A      1.459097   529A      1.463547   530A      1.467517  
     531A      1.469313   532A      1.477968   533A      1.482452  
     534A      1.488006   535A      1.496170   536A      1.499678  
     537A      1.512620   538A      1.530822   539A      1.534287  
     540A      1.540891   541A      1.557822   542A      1.560315  
     543A      1.562392   544A      1.565802   545A      1.574079  
     546A      1.585495   547A      1.588167   548A      1.590789  
     549A      1.595637   550A      1.599717   551A      1.604986  
     552A      1.611317   553A      1.621916   554A      1.632387  
     555A      1.640343   556A      1.664475   557A      1.665232  
     558A      1.666273   559A      1.667504   560A      1.669228  
     561A      1.674668   562A      1.678155   563A      1.683168  
     564A      1.684513   565A      1.687179   566A      1.690015  
     567A      1.696935   568A      1.697613   569A      1.702564  
     570A      1.704590   571A      1.711590   572A      1.714822  
     573A      1.716654   574A      1.723785   575A      1.726208  
     576A      1.731182   577A      1.740094   578A      1.741713  
     579A      1.742647   580A      1.744832   581A      1.745380  
     582A      1.746585   583A      1.747918   584A      1.755436  
     585A      1.757585   586A      1.763174   587A      1.767254  
     588A      1.769946   589A      1.771702   590A      1.772690  
     591A      1.773823   592A      1.776526   593A      1.783319  
     594A      1.787801   595A      1.789270   596A      1.794473  
     597A      1.796753   598A      1.798403   599A      1.801723  
     600A      1.803452   601A      1.803883   602A      1.807162  
     603A      1.808922   604A      1.812095   605A      1.816992  
     606A      1.817642   607A      1.819223   608A      1.822090  
     609A      1.825036   610A      1.826761   611A      1.832827  
     612A      1.835629   613A      1.838160   614A      1.839234  
[...]
     811A      1.726608   812A      1.738327   813A      1.741096  
     814A      1.748905   815A      1.760053   816A      1.761244  
     817A      1.762034   818A      1.763916   819A      1.773781  
     820A      1.776907   821A      1.778598   822A      1.781808  
     823A      1.788644   824A      1.794979   825A      1.796799  
     826A      1.798676   827A      1.816608   828A      1.818401  
     829A      1.819015   830A      1.820944   831A      1.825012  
     832A      1.826006   833A      1.830985   834A      1.833726  
     835A      1.836973   836A      1.843511   837A      1.847701  
     838A      1.853481   839A      1.854821   840A      1.862850  
     841A      1.863880   842A      1.864388   843A      1.865959  
     844A      1.870608   845A      1.874175   846A      1.875544  
     847A      1.877124   848A      1.890300   849A      1.891456  
     850A      1.892331   851A      1.903292   852A      1.903773  
     853A      1.904251   854A      1.905920   855A      1.907396  
     856A      1.915157   857A      1.916197   858A      1.917775  
     859A      1.919336   860A      1.920268   861A      1.921201  
     862A      1.923877   863A      1.926597   864A      1.933987  
     865A      1.938705   866A      1.943667   867A      1.946032  
     868A      1.946789   869A      1.948292   870A      1.949296  
     871A      1.951731   872A      1.953760   873A      1.956663  
     874A      1.958332   875A      1.968750   876A      1.969286  
     877A      1.972578   878A      1.975796   879A      1.981118  
     880A      1.982991   881A      1.987885   882A      1.997252  
     883A      1.998677   884A      2.000919   885A      2.002560  
     886A      2.002750   887A      2.010053   888A      2.013854  
     889A      2.015326   890A      2.016578   891A      2.025732  
     892A      2.029395   893A      2.031013   894A      2.032825  
     895A      2.034666   896A      2.035326   897A      2.036472  
     898A      2.038715   899A      2.048290   900A      2.049966  
     901A      2.052761   902A      2.056508   903A      2.059807  
     904A      2.062762   905A      2.063471   906A      2.067109  
     907A      2.069251   908A      2.074226   909A      2.075059  
     910A      2.077099   911A      2.079808   912A      2.081574  
     913A      2.082858   914A      2.085312   915A      2.087199  
     916A      2.090328   917A      2.093549   918A      2.096202  
     919A      2.098962   920A      2.101113   921A      2.101892  
     922A      2.102911   923A      2.107145   924A      2.109454  
     925A      2.111580   926A      2.112320   927A      2.112408  
     928A      2.115034   929A      2.117803   930A      2.119105  
     931A      2.120486   932A      2.121187   933A      2.124962  
     934A      2.125669   935A      2.129960   936A      2.133582  
     937A      2.134239   938A      2.135976   939A      2.136897  
     940A      2.137686   941A      2.141538   942A      2.142155  
     943A      2.143007   944A      2.146093   945A      2.146844  
     946A      2.160435   947A      2.162110   948A      2.162402  
     949A      2.166093   950A      2.170331   951A      2.174896  
     952A      2.176893   953A      2.179729   954A      2.182513  
     955A      2.184321   956A      2.190711   957A      2.192486  
     958A      2.193849   959A      2.195074   960A      2.196380  
     961A      2.206219   962A      2.213131   963A      2.217684  
     964A      2.219901   965A      2.220307   966A      2.221175  
     967A      2.227491   968A      2.230027   969A      2.231247  
     970A      2.233620   971A      2.237732   972A      2.242329  
     973A      2.244024   974A      2.245751   975A      2.248417  
     976A      2.251228   977A      2.252926   978A      2.256276  
     979A      2.259519   980A      2.264352   981A      2.268000  
     982A      2.271642   983A      2.271664   984A      2.272479  
     985A      2.277442   986A      2.281821   987A      2.289499  
     988A      2.293366   989A      2.299027   990A      2.303777  
     991A      2.309811   992A      2.316239   993A      2.319363  
     994A      2.323512   995A      2.325486   996A      2.332877  
     997A      2.336858   998A      2.341402   999A      2.344942  
    1000A      2.348506  1001A      2.352373  1002A      2.354215  
    1003A      2.357857  1004A      2.358357  1005A      2.361164  
    1006A      2.372188  1007A      2.375865  1008A      2.382606  
    1009A      2.388018  1010A      2.403776  1011A      2.411755  
    1012A      2.417391  1013A      2.424646  1014A      2.425103  
    1015A      2.425290  1016A      2.429326  1017A      2.432918  
    1018A      2.437071  1019A      2.441767  1020A      2.444843  
    1021A      2.459663  1022A      2.472257  1023A      2.475520  
    1024A      2.477803  1025A      2.480705  1026A      2.485580  
    1027A      2.489998  1028A      2.500352  1029A      2.508798  
    1030A      2.510444  1031A      2.524430  1032A      2.527874  
    1033A      2.531941  1034A      2.542387  1035A      2.548917  
    1036A      2.552745  1037A      2.554901  1038A      2.555393  
    1039A      2.555955  1040A      2.558301  1041A      2.560505  
    1042A      2.560957  1043A      2.564245  1044A      2.573104  
    1045A      2.573946  1046A      2.576723  1047A      2.578598  
    1048A      2.578857  1049A      2.584831  1050A      2.589550  
    1051A      2.593881  1052A      2.596973  1053A      2.600961  
    1054A      2.608277  1055A      2.610547  1056A      2.618420  
    1057A      2.627353  1058A      2.631934  1059A      2.633356  
    1060A      2.635666  1061A      2.637870  1062A      2.639964  
    1063A      2.646540  1064A      2.653725  1065A      2.655918  
    1066A      2.658142  1067A      2.672369  1068A      2.677988  
    1069A      2.683235  1070A      2.690245  1071A      2.691513  
    1072A      2.697234  1073A      2.701657  1074A      2.702553  
    1075A      2.713216  1076A      2.713908  1077A      2.715560  
    1078A      2.719455  1079A      2.720360  1080A      2.721188  
    1081A      2.724578  1082A      2.742180  1083A      2.750868  
    1084A      2.751897  1085A      2.755554  1086A      2.762912  
    1087A      2.764816  1088A      2.784203  1089A      2.794015  
    1090A      2.795724  1091A      2.797844  1092A      2.812025  
    1093A      2.818792  1094A      2.829231  1095A      2.832142  
    1096A      2.836910  1097A      2.839181  1098A      2.855478  
    1099A      2.856793  1100A      2.858871  1101A      2.864109  
    1102A      2.869127  1103A      2.872335  1104A      2.918897  
    1105A      2.920001  1106A      2.924247  1107A      2.933828  
    1108A      2.937818  1109A      2.939219  1110A      2.946956  
    1111A      2.952268  1112A      2.960149  1113A      2.964856  
    1114A      2.969726  1115A      2.976920  1116A      2.990215  
    1117A      3.002511  1118A      3.019997  1119A      3.022866  
    1120A      3.026528  1121A      3.047032  1122A      3.050533  
    1123A      3.060771  1124A      3.065439  1125A      3.066453  
    1126A      3.075130  1127A      3.080427  1128A      3.085287  
    1129A      3.101393  1130A      3.121457  1131A      3.122692  
    1132A      3.128843  1133A      3.135055  1134A      3.139568  
    1135A      3.141299  1136A      3.145665  1137A      3.146676  
    1138A      3.150544  1139A      3.151781  1140A      3.152929  
    1141A      3.157263  1142A      3.167333  1143A      3.170848  
    1144A      3.171690  1145A      3.174387  1146A      3.184373  
    1147A      3.193403  1148A      3.211073  1149A      3.215829  
    1150A      3.233773  1151A      3.254538  1152A      3.281897  
    1153A      3.283442  1154A      3.286402  1155A      3.293159  
    1156A      3.296655  1157A      3.313031  1158A      3.363600  
    1159A      3.420131  1160A      3.422272  1161A      3.425045  
    1162A      3.457493  1163A      3.489706  1164A      3.495566  
    1165A      3.518675  1166A      3.560149  1167A      3.566726  
    1168A      3.590657  1169A      3.596845  1170A      3.633217  
    1171A      3.635477  1172A      3.649185  1173A      3.653835  
    1174A      3.666308  1175A      3.674384  1176A      3.688136  
    1177A      3.766369  1178A      3.794344  1179A      3.797835  
    1180A      3.811643  1181A      3.843778  1182A      3.871808  
    1183A      3.872625  1184A      3.888732  1185A      3.915566  
    1186A      3.916640  1187A      3.985374  1188A      4.012340  
    1189A      4.022952  1190A      4.091127  1191A      4.105457  
    1192A      4.182014  1193A      4.241849  1194A      4.265608  
    1195A      4.445916  1196A      4.449786  1197A      4.524675  
    1198A      4.807191  1199A      4.859073  1200A      4.896040  
    1201A      4.902462  1202A      4.977150  1203A      5.090164  
    1204A      5.094447  1205A      5.110553  1206A      5.143476  
    1207A      5.232057  1208A      5.416803  1209A      5.444880  
    1210A      5.776853  1211A      5.802605  1212A      6.085146  
    1213A     18.207745  1214A     18.486082  1215A     18.505642  
    1216A     18.603520  1217A     18.860301  1218A     25.358325  
    1219A     25.394419  

    Final Occupation by Irrep:
              A 
    DOCC [   171 ]
    NA   [   171 ]
    NB   [   171 ]

  @DF-RHF Final Energy: -2055.89546775333702

   => Energetics <=

    Nuclear Repulsion Energy =           6452.5568002797781446
    One-Electron Energy =              -15636.5302724886769283
    Two-Electron Energy =                7128.0780044555613131
    Total Energy =                      -2055.8954677533365611

Computation Completed


Properties will be evaluated at   0.000000,   0.000000,   0.000000 [a0]

Properties computed using the SCF density matrix


 Multipole Moments:

 ------------------------------------------------------------------------------------
     Multipole            Electronic (a.u.)      Nuclear  (a.u.)        Total (a.u.)
 ------------------------------------------------------------------------------------

 L = 1.  Multiply by 2.5417464519 to convert [e a0] to [Debye]
 Dipole X            :         -0.0004964           -0.0000085           -0.0005049
 Dipole Y            :          0.0002785            0.0000167            0.0002952
 Dipole Z            :       -328.8098578          328.8117155            0.0018577
 Magnitude           :                                                    0.0019476

 ------------------------------------------------------------------------------------

*** tstop() called on d-18-8-4 at Mon Jan 22 19:49:12 2024
Module time:
	user time   =    2969.18 seconds =      49.49 minutes
	system time =     196.62 seconds =       3.28 minutes
	total time  =       1138 seconds =      18.97 minutes
Total time:
	user time   =    9431.93 seconds =     157.20 minutes
	system time =     854.70 seconds =      14.24 minutes
	total time  =       6007 seconds =     100.12 minutes
  Constructing Basis Sets for SAPT...

   => Loading Basis Set <=

    Name: (JUN-CC-PVDZ AUX)
    Role: RIFIT
    Keyword: DF_BASIS_SAPT
    atoms 1-2, 4-5, 10, 17-70 entry C          line   100 file /home/gridsan/tfroembgen/.conda/envs/psi4test/share/psi4/basis/jun-cc-pvdz-ri.gbs 
    atoms 3, 6                entry N          line   144 file /home/gridsan/tfroembgen/.conda/envs/psi4test/share/psi4/basis/jun-cc-pvdz-ri.gbs 
    atoms 7-9, 11-16, 71-88   entry H          line    30 file /home/gridsan/tfroembgen/.conda/envs/psi4test/share/psi4/basis/jun-cc-pvdz-ri.gbs 

   => Loading Basis Set <=

    Name: (JUN-CC-PVDZ AUX)
    Role: JKFIT
    Keyword: DF_BASIS_ELST
    atoms 1-2, 4-5, 10, 17-70 entry C          line   146 file /home/gridsan/tfroembgen/.conda/envs/psi4test/share/psi4/basis/jun-cc-pvdz-jkfit.gbs 
    atoms 3, 6                entry N          line   202 file /home/gridsan/tfroembgen/.conda/envs/psi4test/share/psi4/basis/jun-cc-pvdz-jkfit.gbs 
    atoms 7-9, 11-16, 71-88   entry H          line    70 file /home/gridsan/tfroembgen/.conda/envs/psi4test/share/psi4/basis/jun-cc-pvdz-jkfit.gbs 


  //>>>>>>>>>>>>>>>>>>>>>>>>>>>>>>>>>>>//
  //               SSAPT0              //
  //<<<<<<<<<<<<<<<<<<<<<<<<<<<<<<<<<<<//


*** tstart() called on d-18-8-4
*** at Mon Jan 22 19:49:13 2024

        SAPT0  
    Ed Hohenstein
     6 June 2009

      Orbital Information
  --------------------------
    NSO        =      1233
    NMO        =      1219
    NRI        =      4343
    NRI (Elst) =      5440
    NOCC A     =        26
    NOCC B     =       171
    FOCC A     =         7
    FOCC B     =        54
    NVIR A     =      1193
    NVIR B     =      1048

    Elst10,r            =    -0.021106308534 [Eh]
    Exch10              =     0.030950057185 [Eh]
    Exch10 (S^2)        =     0.030677025689 [Eh]

    Iter     Energy [mEh]          dE [mEh]         Residual      Time [s]
       1      -2.70910328       2.709103283       7.910807214           359
       2      -3.26357654       0.554473255       2.797337770          1097
       3      -3.34685139       0.083274853       0.425191867          1575
       4      -3.34185218      -0.004999214       0.133792482          2019
       5      -3.34021779      -0.001634385       0.025278994          2408
       6      -3.34056051       0.000342719       0.006765068          2803
       7      -3.34057291       0.000012395       0.003086339          3365
       8      -3.34054842      -0.000024487       0.001202992          3826
       9      -3.34054921       0.000000789       0.000415888          4272
      10      -3.34055114       0.000001937       0.000138709          4590
      11      -3.34055127       0.000000126       0.000040437          4897
      12      -3.34055109      -0.000000184       0.000011931          5056
      13      -3.34055107      -0.000000020       0.000003336          5129
      14      -3.34055108       0.000000016       0.000001008          5277
      15      -3.34055108      -0.000000001       0.000000326          5375

    CHF Iterations converged


    Iter     Energy [mEh]          dE [mEh]         Residual      Time [s]
       1     -26.48128386      26.481283856      80.253934880           199
       2     -19.46522154      -7.016062314      11.938301975           555
       3     -19.89781190       0.432590360       5.042879653           625
       4     -20.50877925       0.610967346       1.031224131           651
       5     -20.53012506       0.021345811       0.364374155           675
       6     -20.51122850      -0.018896559       0.169596955           699
       7     -20.50821417      -0.003014333       0.073593723           729
       8     -20.51072552       0.002511355       0.034047797           955
       9     -20.51134955       0.000624025       0.012370181          1110
      10     -20.51110373      -0.000245821       0.006641586          1142
      11     -20.51100783      -0.000095895       0.003462811          1162
      12     -20.51104039       0.000032555       0.001648439          1321
      13     -20.51107503       0.000034646       0.000718266          1543
      14     -20.51106692      -0.000008115       0.000457853          1590
      15     -20.51105920      -0.000007716       0.000246129          1615
      16     -20.51106126       0.000002061       0.000156654          1644
      17     -20.51106405       0.000002789       0.000070437          1665
      18     -20.51106367      -0.000000378       0.000038572          1687
      19     -20.51106309      -0.000000578       0.000022100          1712
      20     -20.51106308      -0.000000014       0.000010721          1735
      21     -20.51106327       0.000000189       0.000004860          1817
      22     -20.51106327       0.000000003       0.000002670          1848
      23     -20.51106324      -0.000000032       0.000001530          1878
      24     -20.51106323      -0.000000009       0.000000671          1899

    CHF Iterations converged

    Ind20,r (A<-B)      =    -0.003340551081 [Eh]
    Ind20,r (B<-A)      =    -0.020511063232 [Eh]
    Ind20,r             =    -0.023851614314 [Eh]
    Exch-Ind20,r (A<-B) =     0.003171823129 [Eh]
    Exch-Ind20,r (B<-A) =     0.004680860531 [Eh]
    Exch-Ind20,r        =     0.007852683660 [Eh]
    Disp20              =    -0.033334010722 [Eh]
    Disp20 (SS)         =    -0.016667005361 [Eh]
    Disp20 (OS)         =    -0.016667005361 [Eh]
    Exch-Disp20         =     0.002628694623 [Eh]
    Exch-Disp20 (SS)    =     0.001553676626 [Eh]
    Exch-Disp20 (OS)    =     0.001075017997 [Eh]

    SAPT Results 
  --------------------------------------------------------------------------------------------------------
    Electrostatics                -21.10630853 [mEh]     -13.24440856 [kcal/mol]     -55.41460542 [kJ/mol]
      Elst10,r                    -21.10630853 [mEh]     -13.24440856 [kcal/mol]     -55.41460542 [kJ/mol]

    Exchange                       30.95005719 [mEh]      19.42145410 [kcal/mol]      81.25936394 [kJ/mol]
      Exch10                       30.95005719 [mEh]      19.42145410 [kcal/mol]      81.25936394 [kJ/mol]
      Exch10(S^2)                  30.67702569 [mEh]      19.25012425 [kcal/mol]      80.54251985 [kJ/mol]

    Induction                     -21.17424162 [mEh]     -13.28703722 [kcal/mol]     -55.59296372 [kJ/mol]
      Ind20,r                     -23.85161431 [mEh]     -14.96711395 [kcal/mol]     -62.62240475 [kJ/mol]
      Exch-Ind20,r                  7.85268366 [mEh]       4.92763339 [kcal/mol]      20.61721811 [kJ/mol]
      delta HF,r (2)               -5.17531097 [mEh]      -3.24755666 [kcal/mol]     -13.58777708 [kJ/mol]

    Dispersion                    -30.70531610 [mEh]     -19.26787675 [kcal/mol]     -80.61679631 [kJ/mol]
      Disp20                      -33.33401072 [mEh]     -20.91740753 [kcal/mol]     -87.51843309 [kJ/mol]
      Exch-Disp20                   2.62869462 [mEh]       1.64953078 [kcal/mol]       6.90163678 [kJ/mol]
      Disp20 (SS)                 -16.66700536 [mEh]     -10.45870376 [kcal/mol]     -43.75921655 [kJ/mol]
      Disp20 (OS)                 -16.66700536 [mEh]     -10.45870376 [kcal/mol]     -43.75921655 [kJ/mol]
      Exch-Disp20 (SS)              1.55367663 [mEh]       0.97494680 [kcal/mol]       4.07917742 [kJ/mol]
      Exch-Disp20 (OS)              1.07501800 [mEh]       0.67458398 [kcal/mol]       2.82245936 [kJ/mol]

  Total HF                        -11.33049297 [mEh]      -7.10999168 [kcal/mol]     -29.74820520 [kJ/mol]
  Total SAPT0                     -42.03580907 [mEh]     -26.37786843 [kcal/mol]    -110.36500151 [kJ/mol]

  Special recipe for scaled SAPT0 (see Manual):
    Electrostatics sSAPT0         -21.10630853 [mEh]     -13.24440856 [kcal/mol]     -55.41460542 [kJ/mol]
    Exchange sSAPT0                30.95005719 [mEh]      19.42145410 [kcal/mol]      81.25936394 [kJ/mol]
    Induction sSAPT0              -20.96269874 [mEh]     -13.15429205 [kcal/mol]     -55.03755795 [kJ/mol]
    Dispersion sSAPT0             -30.63450188 [mEh]     -19.22344015 [kcal/mol]     -80.43087361 [kJ/mol]
  Total sSAPT0                    -41.75345197 [mEh]     -26.20068667 [kcal/mol]    -109.62367303 [kJ/mol]
  --------------------------------------------------------------------------------------------------------

*** tstop() called on d-18-8-4 at Mon Jan 22 22:31:41 2024
Module time:
	user time   =    9480.31 seconds =     158.01 minutes
	system time =    1143.27 seconds =      19.05 minutes
	total time  =       9748 seconds =     162.47 minutes
Total time:
	user time   =   18913.28 seconds =     315.22 minutes
	system time =    1997.99 seconds =      33.30 minutes
	total time  =      15756 seconds =     262.60 minutes

    Psi4 stopped on: Monday, 22 January 2024 10:31PM
    Psi4 wall time for execution: 4:22:37.95

*** Psi4 exiting successfully. Buy a developer a beer!
