
    -----------------------------------------------------------------------
          Psi4: An Open-Source Ab Initio Electronic Structure Package
                               Psi4 1.9 release

                         Git: Rev {} zzzzzzz 


    D. G. A. Smith, L. A. Burns, A. C. Simmonett, R. M. Parrish,
    M. C. Schieber, R. Galvelis, P. Kraus, H. Kruse, R. Di Remigio,
    A. Alenaizan, A. M. James, S. Lehtola, J. P. Misiewicz, M. Scheurer,
    R. A. Shaw, J. B. Schriber, Y. Xie, Z. L. Glick, D. A. Sirianni,
    J. S. O'Brien, J. M. Waldrop, A. Kumar, E. G. Hohenstein,
    B. P. Pritchard, B. R. Brooks, H. F. Schaefer III, A. Yu. Sokolov,
    K. Patkowski, A. E. DePrince III, U. Bozkaya, R. A. King,
    F. A. Evangelista, J. M. Turney, T. D. Crawford, C. D. Sherrill,
    J. Chem. Phys. 152(18) 184108 (2020). https://doi.org/10.1063/5.0006002

                            Additional Code Authors
    E. T. Seidl, C. L. Janssen, E. F. Valeev, M. L. Leininger,
    J. F. Gonthier, R. M. Richard, H. R. McAlexander, M. Saitow, X. Wang,
    P. Verma, M. H. Lechner, A. Jiang, S. Behnle, A. G. Heide,
    M. F. Herbst, and D. L. Poole

             Previous Authors, Complete List of Code Contributors,
                       and Citations for Specific Modules
    https://github.com/psi4/psi4/blob/master/codemeta.json
    https://github.com/psi4/psi4/graphs/contributors
    http://psicode.org/psi4manual/master/introduction.html#citing-psifour

    -----------------------------------------------------------------------


    Psi4 started on: Saturday, 20 January 2024 11:29PM

    Process ID: 3315958
    Host:       d-6-9-4
    PSIDATADIR: /home/gridsan/tfroembgen/.conda/envs/psi4test/share/psi4
    Memory:     500.0 MiB
    Threads:    12
    
  ==> Input File <==

--------------------------------------------------------------------------
memory 32 GB # how much memory is available ! Depends on the nodes/cores !

molecule dimer {
# monomer A
-1 1    # Charge and multiplicity
B -1.977592e-04  2.742729e-04 8.000034
F  1.123153e-16  1.430594e-17 9.412819
F  1.147860e+00  6.757812e-01 7.528893
F  1.191806e-02 -1.332011e+00 7.529095
F -1.159666e+00  6.560735e-01 7.529174
--
# monomer B
0 1     # Charge and multiplicity
C   1.22531237526482      0.70753866091955      0.00613762728373
C   1.22532433589282     -0.70753852257020     -0.00619318228664
C   -0.00000567409046      1.41496628609039     -0.00672680580738
C   2.45644923379077      1.41832825917820      0.00902448468363
C   0.00001130712078     -1.41497612663474      0.00347275151708
C   -1.22530046906674      0.70754574598412      0.00838914760619
C   2.45643823516184     -1.41832293188077     -0.00843833914343
C   -0.00000085313587      2.83680140328112     -0.00913035594137
C   3.68182717731192      0.70931832800114     -0.00808954934571
C   2.45512052870677      2.83422403348893     -0.00819210630633
C   3.68182158506039     -0.70933346742900      0.00798293467272
C   -1.22531311884624     -0.70752714354401     -0.00512042085974
C   1.22670006104402      3.54346985599427      0.00816696660346
C   0.00000526469929     -2.83678176723568      0.00832091913869
C   -2.45643555300670      1.41831729028492      0.00842454345199
C   2.45512389762097     -2.83422965658853      0.00783102630520
C   -1.22671388474763      3.54346943575023      0.00827029982280
C   4.91451777504333      1.42717324448953     -0.00160886631602
C   3.69315067131765      3.54279566454522     -0.00155906667985
C   -2.45643712022637     -1.41831290883911     -0.00846337726810
C   1.22670532178455     -3.54347386990643     -0.00780316414624
C   -2.45512491866593      2.83421703463423     -0.00818572995999
C   4.91452486062398     -1.42718653794377      0.00136387641845
C   1.22142509354026      4.97013443726031      0.00150231067809
C   4.89300870916237      2.82518837202648     -0.00039219795739
C   -1.22669652864725     -3.54347062507680     -0.00753595973677
C   -3.68181849668397      0.70932533873199     -0.00807686886569
C   3.69314758099218     -3.54280096939050      0.00148176697923
C   -1.22143177215231      4.97012866986289      0.00168580605083
C   6.13477145276790      0.68054831910577     -0.00083909176631
C   3.65678936045204      4.97295361556775     -0.00065042889723
C   -2.45512642789169     -2.83421472106065      0.00758666850712
C   -3.68181869921921     -0.70932533146830      0.00810055625144
C   4.89301309775526     -2.82519973363176      0.00021895393805
C   -0.00000059327114      5.65044773803267      0.00045449734393
C   6.13477559217374     -0.68055448207492      0.00042622874941
C   2.47813196269732      5.65357712333155      0.00063835075260
C   1.22142288457925     -4.97012668293268     -0.00129718634452
C   -3.69316190412301      3.54279732619245     -0.00139355922051
C   -1.22142804110313     -4.97011793159564     -0.00140994817719
C   -4.91452132810043      1.42717581899491     -0.00153192130862
C   3.65678749952045     -4.97295485423912      0.00080007163680
C   -2.47813805026426      5.65357479452875      0.00092287576113
C   -3.69314125872231     -3.54278984697859      0.00136564082345
C   -4.91451200321153     -1.42718062802730      0.00139857359209
C   -0.00000552908399     -5.65043791501335      0.00005899322272
C   -4.89302000425900      2.82518897091939     -0.00040227981744
C   2.47812647313991     -5.65357317188818     -0.00029052915548
C   -3.65679823041642      4.97295655404175     -0.00047374852278
C   -4.89299899901461     -2.82519139505969      0.00006491824035
C   -2.47812801824129     -5.65356579800621     -0.00056571680280
C   -6.13477002348955      0.68054913825639     -0.00086464346868
C   -3.65678835334731     -4.97294365097028      0.00058578382008
C   -6.13476456307132     -0.68055354348201      0.00040575295444
H   5.83528897565761      3.36927626695423      0.00396712770529
H   7.07385965258860      1.22821762089947     -0.00037744837300
H   4.60066374401555      5.51238117445323     -0.00014522814529
H   5.83528386714679     -3.36930568472863     -0.00423551337640
H   -0.00001167146422      6.73853104613662     -0.00389474766392
H   7.07386165167227     -1.22822657074368     -0.00008250934481
H   2.47331421164041      6.74068466339473      0.00017162982210
H   4.60066897122302     -5.51237575717576      0.00039007446835
H   -2.47331820069565      6.74068209160650      0.00047297644710
H   -0.00000978838621     -6.73852780445195      0.00458867820736
H   -5.83530143450167      3.36927132229595      0.00410314985360
H   2.47330840367253     -6.74068500242887      0.00027980126949
H   -4.60067436136587      5.51237839860371      0.00002010017831
H   -5.83527902699321     -3.36928859177951     -0.00451481925734
H   -2.47329986759855     -6.74067870613986     -0.00016951527498
H   -7.07385728692578      1.22822084484047     -0.00046143985387
H   -4.60067330624313     -5.51236229778631      0.00021776644566
H   -7.07385645456741     -1.22822025997701     -0.00017736581114

    units angstrom      # Angstroms are the default
    no_reorient         # Geometry fixed, default
    symmetry c1         # C1 symmetry, default
}

set {
    scf_type DF         # Density fitting, faster than exact integrals
    freeze_core True    # Freeze core electrons
    basis jun-cc-pVDZ   # Jun-cc-pVDZ basis set, recommended for sSAPT0 in https://doi.org/10.1063/1.4867135
}

energy('ssapt0')        # Compute sSAPT0 energy, includes also SAPT0
--------------------------------------------------------------------------

  Memory set to  29.802 GiB by Python driver.

Scratch directory: /state/partition1/slurm_tmp/24778958.4294967291.0/
   => Loading Basis Set <=

    Name: JUN-CC-PVDZ
    Role: ORBITAL
    Keyword: BASIS
    atoms 1     entry B          line   130 file /home/gridsan/tfroembgen/.conda/envs/psi4test/share/psi4/basis/jun-cc-pvdz.gbs 
    atoms 2-5   entry F          line   266 file /home/gridsan/tfroembgen/.conda/envs/psi4test/share/psi4/basis/jun-cc-pvdz.gbs 
    atoms 6-59  entry C          line   164 file /home/gridsan/tfroembgen/.conda/envs/psi4test/share/psi4/basis/jun-cc-pvdz.gbs 
    atoms 60-77 entry H          line    36 file /home/gridsan/tfroembgen/.conda/envs/psi4test/share/psi4/basis/jun-cc-pvdz.gbs 

   => Loading Basis Set <=

    Name: JUN-CC-PVDZ
    Role: ORBITAL
    Keyword: BASIS
    atoms 1     entry B          line   130 file /home/gridsan/tfroembgen/.conda/envs/psi4test/share/psi4/basis/jun-cc-pvdz.gbs 
    atoms 2-5   entry F          line   266 file /home/gridsan/tfroembgen/.conda/envs/psi4test/share/psi4/basis/jun-cc-pvdz.gbs 
    atoms 6-59  entry C          line   164 file /home/gridsan/tfroembgen/.conda/envs/psi4test/share/psi4/basis/jun-cc-pvdz.gbs 
    atoms 60-77 entry H          line    36 file /home/gridsan/tfroembgen/.conda/envs/psi4test/share/psi4/basis/jun-cc-pvdz.gbs 


  //>>>>>>>>>>>>>>>>>>>>>>>>>>>>>>>>>>>//
  //              Dimer HF             //
  //<<<<<<<<<<<<<<<<<<<<<<<<<<<<<<<<<<<//

   => Libint2 <=

    Primary   basis highest AM E, G, H:  7, 7, 4
    Auxiliary basis highest AM E, G, H:  7, 7, 5
    Onebody   basis highest AM E, G, H:  7, 7, 5
    Solid Harmonics ordering:            gaussian

*** tstart() called on d-6-9-4
*** at Sat Jan 20 23:29:36 2024

   => Loading Basis Set <=

    Name: JUN-CC-PVDZ
    Role: ORBITAL
    Keyword: BASIS
    atoms 1     entry B          line   130 file /home/gridsan/tfroembgen/.conda/envs/psi4test/share/psi4/basis/jun-cc-pvdz.gbs 
    atoms 2-5   entry F          line   266 file /home/gridsan/tfroembgen/.conda/envs/psi4test/share/psi4/basis/jun-cc-pvdz.gbs 
    atoms 6-59  entry C          line   164 file /home/gridsan/tfroembgen/.conda/envs/psi4test/share/psi4/basis/jun-cc-pvdz.gbs 
    atoms 60-77 entry H          line    36 file /home/gridsan/tfroembgen/.conda/envs/psi4test/share/psi4/basis/jun-cc-pvdz.gbs 


         ---------------------------------------------------------
                                   SCF
               by Justin Turney, Rob Parrish, Andy Simmonett
                          and Daniel G. A. Smith
                              RHF Reference
                       12 Threads,  30517 MiB Core
         ---------------------------------------------------------

  ==> Geometry <==

    Molecular point group: c1
    Full point group: C1

    Geometry (in Angstrom), charge = -1, multiplicity = 1:

       Center              X                  Y                   Z               Mass       
    ------------   -----------------  -----------------  -----------------  -----------------
         B           -0.000198161052     0.000273808717     7.075878868184    11.009305360000
         F           -0.000000401852    -0.000000464183     8.488663868184    18.998403162730
         F            1.147859598148     0.675780735817     6.604737868184    18.998403162730
         F            0.011917658148    -1.332011464183     6.604939868184    18.998403162730
         F           -1.159666401852     0.656073035817     6.605018868184    18.998403162730
         C            1.225311973413     0.707538196736    -0.918017504532    12.000000000000
         C            1.225323934041    -0.707538986754    -0.930348314103    12.000000000000
         C           -0.000006075942     1.414965821907    -0.930881937624    12.000000000000
         C            2.456448831939     1.418327794995    -0.915130647133    12.000000000000
         C            0.000010905269    -1.414976590818    -0.920682380299    12.000000000000
         C           -1.225300870919     0.707545281801    -0.915765984210    12.000000000000
         C            2.456437833310    -1.418323396064    -0.932593470960    12.000000000000
         C           -0.000001254988     2.836800939098    -0.933285487758    12.000000000000
         C            3.681826775460     0.709317863818    -0.932244681162    12.000000000000
         C            2.455120126855     2.834223569306    -0.932347238123    12.000000000000
         C            3.681821183209    -0.709333931612    -0.916172197144    12.000000000000
         C           -1.225313520698    -0.707527607727    -0.929275552676    12.000000000000
         C            1.226699659192     3.543469391811    -0.915988165213    12.000000000000
         C            0.000004862847    -2.836782231419    -0.915834212678    12.000000000000
         C           -2.456435954859     1.418316826102    -0.915730588364    12.000000000000
         C            2.455123495769    -2.834230120772    -0.916324105511    12.000000000000
         C           -1.226714286599     3.543468971567    -0.915884831993    12.000000000000
         C            4.914517373191     1.427172780306    -0.925763998132    12.000000000000
         C            3.693150269466     3.542795200362    -0.925714198496    12.000000000000
         C           -2.456437522078    -1.418313373022    -0.932618509084    12.000000000000
         C            1.226704919933    -3.543474334090    -0.931958295962    12.000000000000
         C           -2.455125320518     2.834216570451    -0.932340861776    12.000000000000
         C            4.914524458772    -1.427187002127    -0.922791255398    12.000000000000
         C            1.221424691688     4.970133973077    -0.922652821138    12.000000000000
         C            4.893008307311     2.825187907843    -0.924547329774    12.000000000000
         C           -1.226696930499    -3.543471089260    -0.931691091553    12.000000000000
         C           -3.681818898536     0.709324874549    -0.932232000682    12.000000000000
         C            3.693147179140    -3.542801433574    -0.922673364837    12.000000000000
         C           -1.221432174004     4.970128205680    -0.922469325765    12.000000000000
         C            6.134771050916     0.680547854922    -0.924994223583    12.000000000000
         C            3.656788958600     4.972953151384    -0.924805560713    12.000000000000
         C           -2.455126829744    -2.834215185244    -0.916568463309    12.000000000000
         C           -3.681819101071    -0.709325795652    -0.916054575565    12.000000000000
         C            4.893012695903    -2.825200197815    -0.923936177878    12.000000000000
         C           -0.000000995123     5.650447273849    -0.923700634472    12.000000000000
         C            6.134775190322    -0.680554946258    -0.923728903067    12.000000000000
         C            2.478131560845     5.653576659148    -0.923516781064    12.000000000000
         C            1.221422482727    -4.970127147116    -0.925452318161    12.000000000000
         C           -3.693162305975     3.542796862009    -0.925548691037    12.000000000000
         C           -1.221428442955    -4.970118395779    -0.925565079993    12.000000000000
         C           -4.914521729952     1.427175354812    -0.925687053125    12.000000000000
         C            3.656787097669    -4.972955318422    -0.923355060179    12.000000000000
         C           -2.478138452116     5.653574330345    -0.923232256055    12.000000000000
         C           -3.693141660574    -3.542790311162    -0.922789490993    12.000000000000
         C           -4.914512405063    -1.427181092211    -0.922756558224    12.000000000000
         C           -0.000005930936    -5.650438379197    -0.924096138594    12.000000000000
         C           -4.893020406111     2.825188506736    -0.924557411634    12.000000000000
         C            2.478126071288    -5.653573636072    -0.924445660972    12.000000000000
         C           -3.656798632268     4.972956089858    -0.924628880339    12.000000000000
         C           -4.892999400866    -2.825191859243    -0.924090213576    12.000000000000
         C           -2.478128420093    -5.653566262190    -0.924720848619    12.000000000000
         C           -6.134770425341     0.680548674073    -0.925019775285    12.000000000000
         C           -3.656788755199    -4.972944115154    -0.923569347996    12.000000000000
         C           -6.134764964923    -0.680554007665    -0.923749378862    12.000000000000
         H            5.835288573806     3.369275802771    -0.920188004111     1.007825032230
         H            7.073859250737     1.228217156716    -0.924532580189     1.007825032230
         H            4.600663342164     5.512380710270    -0.924300359962     1.007825032230
         H            5.835283465295    -3.369306148912    -0.928390645193     1.007825032230
         H           -0.000012073316     6.738530581953    -0.928049879480     1.007825032230
         H            7.073861249820    -1.228227034927    -0.924237641161     1.007825032230
         H            2.473313809789     6.740684199211    -0.923983501994     1.007825032230
         H            4.600668569371    -5.512376221359    -0.923765057348     1.007825032230
         H           -2.473318602548     6.740681627423    -0.923682155369     1.007825032230
         H           -0.000010190238    -6.738528268635    -0.919566453609     1.007825032230
         H           -5.835301836354     3.369270858113    -0.920051981963     1.007825032230
         H            2.473308001821    -6.740685466612    -0.923875330547     1.007825032230
         H           -4.600674763218     5.512377934420    -0.924135031638     1.007825032230
         H           -5.835279428845    -3.369289055963    -0.928669951074     1.007825032230
         H           -2.473300269450    -6.740679170323    -0.924324647091     1.007825032230
         H           -7.073857688778     1.228220380657    -0.924616571670     1.007825032230
         H           -4.600673708095    -5.512362761970    -0.923937365371     1.007825032230
         H           -7.073856856419    -1.228220724160    -0.924332497627     1.007825032230

  Running in c1 symmetry.

  Rotational constants: A =      0.00134  B =      0.00133  C =      0.00110 [cm^-1]
  Rotational constants: A =     40.02372  B =     40.02001  C =     33.02251 [MHz]
  Nuclear repulsion = 7431.302574783105229

  Charge       = -1
  Multiplicity = 1
  Electrons    = 384
  Nalpha       = 192
  Nbeta        = 192

  ==> Algorithm <==

  SCF Algorithm Type is DF.
  DIIS enabled.
  MOM disabled.
  Fractional occupation disabled.
  Guess Type is SAD.
  Energy threshold   = 1.00e-08
  Density threshold  = 1.00e-08
  Integral threshold = 1.00e-12

  ==> Primary Basis <==

  Basis Set: JUN-CC-PVDZ
    Blend: JUN-CC-PVDZ
    Number of shells: 526
    Number of basis functions: 1152
    Number of Cartesian functions: 1211
    Spherical Harmonics?: true
    Max angular momentum: 2

   => Loading Basis Set <=

    Name: (JUN-CC-PVDZ AUX)
    Role: JKFIT
    Keyword: DF_BASIS_SCF
    atoms 1     entry B          line    90 file /home/gridsan/tfroembgen/.conda/envs/psi4test/share/psi4/basis/jun-cc-pvdz-jkfit.gbs 
    atoms 2-5   entry F          line   314 file /home/gridsan/tfroembgen/.conda/envs/psi4test/share/psi4/basis/jun-cc-pvdz-jkfit.gbs 
    atoms 6-59  entry C          line   146 file /home/gridsan/tfroembgen/.conda/envs/psi4test/share/psi4/basis/jun-cc-pvdz-jkfit.gbs 
    atoms 60-77 entry H          line    70 file /home/gridsan/tfroembgen/.conda/envs/psi4test/share/psi4/basis/jun-cc-pvdz-jkfit.gbs 

  ==> Integral Setup <==

  ==> DiskDFJK: Density-Fitted J/K Matrices <==

    J tasked:                  Yes
    K tasked:                  Yes
    wK tasked:                  No
    OpenMP threads:             12
    Integrals threads:          12
    Memory [MiB]:            22888
    Algorithm:                Core
    Integral Cache:           SAVE
    Schwarz Cutoff:          1E-12
    Fitting Condition:       1E-10

   => Auxiliary Basis Set <=

  Basis Set: (JUN-CC-PVDZ AUX)
    Blend: JUN-CC-PVDZ-JKFIT
    Number of shells: 1755
    Number of basis functions: 5075
    Number of Cartesian functions: 5819
    Spherical Harmonics?: true
    Max angular momentum: 3

  Minimum eigenvalue in the overlap matrix is 8.3996287224E-10.
  Reciprocal condition number of the overlap matrix is 3.7569017743E-11.
    Using canonical orthogonalization.
  Overall, 14 of 1152 possible MOs eliminated.


  ==> Pre-Iterations <==

  SCF Guess: Superposition of Atomic Densities via on-the-fly atomic UHF (no occupation information).

   -------------------------
    Irrep   Nso     Nmo    
   -------------------------
     A       1152    1138 
   -------------------------
    Total    1152    1138
   -------------------------

  ==> Iterations <==

                           Total Energy        Delta E     RMS |[F,P]|

   @DF-RHF iter SAD: -2483.25903153092577   -2.48326e+03   0.00000e+00 
   @DF-RHF iter   1: -2477.62983739649371    5.62919e+00   1.09598e-03 ADIIS/DIIS
   @DF-RHF iter   2: -2478.51403585957587   -8.84198e-01   4.71079e-04 ADIIS/DIIS
   @DF-RHF iter   3: -2478.64316363890839   -1.29128e-01   1.29172e-04 ADIIS/DIIS
   @DF-RHF iter   4: -2478.65594382945301   -1.27802e-02   5.04359e-05 DIIS
   @DF-RHF iter   5: -2478.65807492174281   -2.13109e-03   1.53516e-05 DIIS
   @DF-RHF iter   6: -2478.65833838692379   -2.63465e-04   5.35358e-06 DIIS
   @DF-RHF iter   7: -2478.65841790204422   -7.95151e-05   2.63484e-06 DIIS
   @DF-RHF iter   8: -2478.65843973383653   -2.18318e-05   1.21862e-06 DIIS
   @DF-RHF iter   9: -2478.65844623620114   -6.50236e-06   2.45801e-07 DIIS
   @DF-RHF iter  10: -2478.65844644892377   -2.12723e-07   8.65086e-08 DIIS
   @DF-RHF iter  11: -2478.65844646490632   -1.59826e-08   3.34344e-08 DIIS
   @DF-RHF iter  12: -2478.65844646822552   -3.31920e-09   1.11246e-08 DIIS
   @DF-RHF iter  13: -2478.65844646856567   -3.40151e-10   4.03792e-09 DIIS
  Energy and wave function converged.


  ==> Post-Iterations <==

    Orbital Energies [Eh]
    ---------------------

    Doubly Occupied:                                                      

       1A    -26.064497     2A    -26.063828     3A    -26.063732  
       4A    -26.063647     5A    -11.205143     6A    -11.205107  
       7A    -11.205104     8A    -11.205070     9A    -11.205064  
      10A    -11.205046    11A    -11.204995    12A    -11.204981  
      13A    -11.204976    14A    -11.204957    15A    -11.204951  
      16A    -11.204946    17A    -11.204945    18A    -11.204659  
      19A    -11.204659    20A    -11.204358    21A    -11.204357  
      22A    -11.204287    23A    -11.204048    24A    -11.203842  
      25A    -11.203841    26A    -11.203153    27A    -11.203152  
      28A    -11.203149    29A    -11.202875    30A    -11.202874  
      31A    -11.202790    32A    -11.202790    33A    -11.202658  
      34A    -11.202496    35A    -11.202162    36A    -11.202056  
      37A    -11.202055    38A    -11.201904    39A    -11.201904  
      40A    -11.201827    41A    -11.200190    42A    -11.200189  
      43A    -11.200188    44A    -11.200187    45A    -11.200186  
      46A    -11.200184    47A    -11.198769    48A    -11.198766  
      49A    -11.198765    50A    -11.198761    51A    -11.198760  
      52A    -11.198757    53A    -11.198259    54A    -11.198259  
      55A    -11.198258    56A    -11.198220    57A    -11.198219  
      58A    -11.198218    59A     -7.536216    60A     -1.407880  
      61A     -1.348486    62A     -1.347966    63A     -1.347801  
      64A     -1.189180    65A     -1.165575    66A     -1.165575  
      67A     -1.135715    68A     -1.135708    69A     -1.126603  
      70A     -1.104195    71A     -1.095246    72A     -1.081388  
      73A     -1.081381    74A     -1.059896    75A     -1.059892  
      76A     -1.028510    77A     -1.028502    78A     -1.024700  
      79A     -1.012811    80A     -1.012806    81A     -0.985957  
      82A     -0.970017    83A     -0.967556    84A     -0.967513  
      85A     -0.964478    86A     -0.959773    87A     -0.933256  
      88A     -0.933210    89A     -0.908576    90A     -0.908526  
      91A     -0.841046    92A     -0.841018    93A     -0.833799  
      94A     -0.831993    95A     -0.831935    96A     -0.827603  
      97A     -0.827555    98A     -0.808682    99A     -0.784774  
     100A     -0.764871   101A     -0.762711   102A     -0.758470  
     103A     -0.758461   104A     -0.741733   105A     -0.741722  
     106A     -0.692712   107A     -0.691126   108A     -0.679742  
     109A     -0.679733   110A     -0.679193   111A     -0.679170  
     112A     -0.663074   113A     -0.645768   114A     -0.645757  
     115A     -0.640181   116A     -0.640165   117A     -0.608343  
     118A     -0.599737   119A     -0.599162   120A     -0.597442  
     121A     -0.597436   122A     -0.597420   123A     -0.586249  
     124A     -0.586246   125A     -0.576216   126A     -0.574078  
     127A     -0.574063   128A     -0.553858   129A     -0.550827  
     130A     -0.547964   131A     -0.546741   132A     -0.546710  
     133A     -0.540014   134A     -0.537326   135A     -0.537315  
     136A     -0.532878   137A     -0.525466   138A     -0.525306  
     139A     -0.525221   140A     -0.521678   141A     -0.521672  
     142A     -0.514559   143A     -0.514544   144A     -0.512412  
     145A     -0.512394   146A     -0.505201   147A     -0.502093  
     148A     -0.502086   149A     -0.485742   150A     -0.485739  
     151A     -0.484120   152A     -0.484115   153A     -0.476478  
     154A     -0.473306   155A     -0.469639   156A     -0.469633  
     157A     -0.447752   158A     -0.444225   159A     -0.444183  
     160A     -0.442184   161A     -0.440300   162A     -0.433967  
     163A     -0.431463   164A     -0.428464   165A     -0.428456  
     166A     -0.415851   167A     -0.415830   168A     -0.405398  
     169A     -0.405353   170A     -0.405270   171A     -0.397087  
     172A     -0.397008   173A     -0.385786   174A     -0.385777  
     175A     -0.382001   176A     -0.381937   177A     -0.381666  
     178A     -0.350489   179A     -0.350465   180A     -0.349075  
     181A     -0.322335   182A     -0.322332   183A     -0.295427  
     184A     -0.282517   185A     -0.281544   186A     -0.281483  
     187A     -0.257612   188A     -0.245367   189A     -0.229977  
     190A     -0.229925   191A     -0.171270   192A     -0.171203  

    Virtual:                                                              

     193A      0.067506   194A      0.067568   195A      0.095413  
     196A      0.095417   197A      0.097451   198A      0.098029  
     199A      0.098033   200A      0.105202   201A      0.109175  
     202A      0.118707   203A      0.118758   204A      0.120133  
     205A      0.120135   206A      0.129533   207A      0.134907  
     208A      0.134916   209A      0.135122   210A      0.136586  
     211A      0.136609   212A      0.139215   213A      0.139229  
     214A      0.140436   215A      0.142545   216A      0.145623  
     217A      0.145628   218A      0.154399   219A      0.154708  
     220A      0.158566   221A      0.158578   222A      0.162834  
     223A      0.165375   224A      0.167990   225A      0.167992  
     226A      0.169166   227A      0.176315   228A      0.178596  
     229A      0.178611   230A      0.179061   231A      0.179156  
     232A      0.183667   233A      0.183770   234A      0.183786  
     235A      0.184004   236A      0.184009   237A      0.190552  
     238A      0.193945   239A      0.193960   240A      0.201514  
     241A      0.201521   242A      0.201889   243A      0.203160  
     244A      0.203161   245A      0.208324   246A      0.208326  
     247A      0.217909   248A      0.217933   249A      0.222069  
     250A      0.222112   251A      0.222909   252A      0.229649  
     253A      0.229670   254A      0.231046   255A      0.231087  
     256A      0.236960   257A      0.237106   258A      0.237114  
     259A      0.238948   260A      0.238965   261A      0.239311  
     262A      0.244614   263A      0.246482   264A      0.246493  
     265A      0.253281   266A      0.254707   267A      0.254713  
     268A      0.255020   269A      0.259320   270A      0.259342  
     271A      0.261446   272A      0.262256   273A      0.262273  
     274A      0.263848   275A      0.264427   276A      0.264983  
     277A      0.273421   278A      0.276156   279A      0.276203  
     280A      0.276221   281A      0.276747   282A      0.277960  
     283A      0.277997   284A      0.278827   285A      0.280855  
     286A      0.280879   287A      0.285550   288A      0.285565  
     289A      0.290022   290A      0.290039   291A      0.294049  
     292A      0.294918   293A      0.294923   294A      0.298235  
     295A      0.306137   296A      0.306154   297A      0.308156  
     298A      0.308198   299A      0.310334   300A      0.310346  
     301A      0.314784   302A      0.314814   303A      0.320598  
     304A      0.320602   305A      0.323522   306A      0.323639  
     307A      0.324378   308A      0.325720   309A      0.325726  
     310A      0.327950   311A      0.327970   312A      0.329662  
     313A      0.342618   314A      0.342631   315A      0.344517  
     316A      0.344526   317A      0.345606   318A      0.351273  
     319A      0.351729   320A      0.352448   321A      0.354234  
     322A      0.354243   323A      0.356290   324A      0.356310  
     325A      0.358238   326A      0.359575   327A      0.362765  
     328A      0.362778   329A      0.365563   330A      0.365568  
     331A      0.367265   332A      0.371571   333A      0.371589  
     334A      0.371862   335A      0.373016   336A      0.375096  
     337A      0.376189   338A      0.376359   339A      0.379806  
     340A      0.379849   341A      0.380588   342A      0.387077  
     343A      0.387115   344A      0.389844   345A      0.394608  
     346A      0.394617   347A      0.397487   348A      0.398414  
     349A      0.398457   350A      0.398812   351A      0.401080  
     352A      0.401672   353A      0.401682   354A      0.402788  
     355A      0.404431   356A      0.404444   357A      0.409347  
     358A      0.414767   359A      0.414817   360A      0.416152  
     361A      0.416193   362A      0.423252   363A      0.424127  
     364A      0.424170   365A      0.427462   366A      0.433503  
     367A      0.433574   368A      0.439731   369A      0.439753  
     370A      0.440446   371A      0.440478   372A      0.440796  
     373A      0.444353   374A      0.446188   375A      0.447807  
     376A      0.447811   377A      0.448737   378A      0.448798  
     379A      0.449720   380A      0.449740   381A      0.452301  
     382A      0.454078   383A      0.454082   384A      0.459005  
     385A      0.459093   386A      0.460243   387A      0.460290  
     388A      0.461721   389A      0.461797   390A      0.462007  
     391A      0.464826   392A      0.464874   393A      0.466290  
     394A      0.466337   395A      0.466355   396A      0.472802  
     397A      0.474906   398A      0.474990   399A      0.475284  
     400A      0.477081   401A      0.477086   402A      0.479531  
     403A      0.479565   404A      0.481191   405A      0.488991  
     406A      0.491892   407A      0.491911   408A      0.493106  
     409A      0.494836   410A      0.495335   411A      0.498110  
     412A      0.498151   413A      0.499319   414A      0.500306  
     415A      0.500425   416A      0.504651   417A      0.504680  
     418A      0.509444   419A      0.514915   420A      0.514931  
     421A      0.515344   422A      0.519486   423A      0.519512  
     424A      0.522029   425A      0.523058   426A      0.524640  
     427A      0.524788   428A      0.527439   429A      0.527479  
     430A      0.530801   431A      0.533052   432A      0.533098  
     433A      0.538720   434A      0.539651   435A      0.539696  
     436A      0.540042   437A      0.540075   438A      0.541329  
     439A      0.544210   440A      0.544259   441A      0.548008  
     442A      0.548025   443A      0.551821   444A      0.556153  
     445A      0.557672   446A      0.557706   447A      0.558521  
     448A      0.568141   449A      0.568157   450A      0.569027  
     451A      0.572896   452A      0.572969   453A      0.580516  
     454A      0.580700   455A      0.581972   456A      0.582072  
     457A      0.584656   458A      0.592557   459A      0.592758  
     460A      0.599440   461A      0.599527   462A      0.601560  
     463A      0.601867   464A      0.602054   465A      0.604345  
     466A      0.605287   467A      0.605352   468A      0.608492  
     469A      0.612675   470A      0.612707   471A      0.613815  
     472A      0.613850   473A      0.614337   474A      0.618626  
     475A      0.623021   476A      0.623086   477A      0.644524  
     478A      0.644649   479A      0.649116   480A      0.652325  
     481A      0.652522   482A      0.663852   483A      0.670631  
     484A      0.670726   485A      0.678802   486A      0.679006  
     487A      0.679635   488A      0.679669   489A      0.698292  
     490A      0.698645   491A      0.700351   492A      0.700987  
     493A      0.705260   494A      0.705299   495A      0.709389  
     496A      0.722056   497A      0.722084   498A      0.722893  
     499A      0.730853   500A      0.730876   501A      0.731813  
     502A      0.738468   503A      0.738796   504A      0.738826  
     505A      0.769332   506A      0.769439   507A      0.786751  
     508A      0.793690   509A      0.796373   510A      0.796546  
     511A      0.796652   512A      0.796818   513A      0.810061  
     514A      0.810074   515A      0.816592   516A      0.819509  
     517A      0.830247   518A      0.844151   519A      0.849716  
     520A      0.849778   521A      0.858627   522A      0.860689  
     523A      0.860873   524A      0.861116   525A      0.867101  
     526A      0.867702   527A      0.876700   528A      0.877039  
     529A      0.880248   530A      0.880300   531A      0.880977  
     532A      0.888660   533A      0.894515   534A      0.896360  
     535A      0.896551   536A      0.907983   537A      0.908052  
     538A      0.913482   539A      0.918234   540A      0.918307  
     541A      0.923221   542A      0.923261   543A      0.923944  
     544A      0.926184   545A      0.926676   546A      0.929213  
     547A      0.929266   548A      0.931358   549A      0.931819  
     550A      0.934799   551A      0.941561   552A      0.941620  
     553A      0.945047   554A      0.950276   555A      0.950391  
     556A      0.950739   557A      0.952825   558A      0.960626  
     559A      0.961031   560A      0.963492   561A      0.963759  
     562A      0.963964   563A      0.966155   564A      0.969752  
     565A      0.973911   566A      0.973960   567A      0.974275  
     568A      0.979976   569A      0.985464   570A      0.985616  
     571A      0.985859   572A      0.988834   573A      0.988872  
     574A      0.997019   575A      0.997138   576A      0.998394  
     577A      0.998423   578A      1.009838   579A      1.009964  
     580A      1.010586   581A      1.021493   582A      1.021702  
     583A      1.025144   584A      1.025522   585A      1.026525  
     586A      1.026570   587A      1.030824   588A      1.031843  
     589A      1.035371   590A      1.041394   591A      1.041450  
     592A      1.045498   593A      1.052496   594A      1.052576  
     595A      1.058964   596A      1.066853   597A      1.066859  
     598A      1.067514   599A      1.070184   600A      1.070202  
     601A      1.085004   602A      1.085024   603A      1.089572  
     604A      1.089802   605A      1.091266   606A      1.091364  
     607A      1.091738   608A      1.095848   609A      1.095932  
     610A      1.098125   611A      1.098145   612A      1.099535  
     613A      1.101197   614A      1.102703   615A      1.102877  
     616A      1.106210   617A      1.106257   618A      1.113374  
     619A      1.115301   620A      1.116873   621A      1.117350  
     622A      1.123047   623A      1.123067   624A      1.126239  
     625A      1.129180   626A      1.129230   627A      1.132760  
     628A      1.132819   629A      1.133752   630A      1.136316  
     631A      1.139340   632A      1.139850   633A      1.139930  
     634A      1.142373   635A      1.142515   636A      1.155418  
     637A      1.155511   638A      1.157188   639A      1.157212  
     640A      1.168880   641A      1.168924   642A      1.172988  
     643A      1.173135   644A      1.177051   645A      1.178501  
     646A      1.180868   647A      1.181017   648A      1.186448  
     649A      1.191104   650A      1.191183   651A      1.195765  
     652A      1.197008   653A      1.197058   654A      1.198667  
     655A      1.199065   656A      1.208173   657A      1.218138  
     658A      1.226175   659A      1.229126   660A      1.232318  
     661A      1.232589   662A      1.236760   663A      1.238711  
     664A      1.238751   665A      1.247652   666A      1.247765  
     667A      1.253703   668A      1.253808   669A      1.263855  
     670A      1.271137   671A      1.271188   672A      1.274566  
     673A      1.276251   674A      1.276285   675A      1.288255  
     676A      1.290304   677A      1.290410   678A      1.309245  
     679A      1.309269   680A      1.314781   681A      1.314907  
     682A      1.316467   683A      1.316607   684A      1.317756  
     685A      1.317862   686A      1.325360   687A      1.329757  
     688A      1.330139   689A      1.347148   690A      1.347244  
     691A      1.347393   692A      1.347440   693A      1.350611  
     694A      1.351559   695A      1.351674   696A      1.351811  
     697A      1.356511   698A      1.361613   699A      1.361631  
     700A      1.362378   701A      1.362771   702A      1.372081  
     703A      1.372096   704A      1.374987   705A      1.375006  
     706A      1.383684   707A      1.383782   708A      1.387226  
     709A      1.393348   710A      1.394939   711A      1.395860  
     712A      1.395912   713A      1.400848   714A      1.408959  
     715A      1.408986   716A      1.411793   717A      1.411821  
     718A      1.412895   719A      1.412940   720A      1.420183  
     721A      1.420208   722A      1.432462   723A      1.444862  
     724A      1.450612   725A      1.457506   726A      1.457530  
     727A      1.462148   728A      1.462168   729A      1.465054  
     730A      1.465086   731A      1.474018   732A      1.474272  
     733A      1.478720   734A      1.478764   735A      1.483107  
     736A      1.484166   737A      1.485962   738A      1.489434  
     739A      1.489467   740A      1.492745   741A      1.492840  
     742A      1.493062   743A      1.501214   744A      1.501227  
     745A      1.504114   746A      1.518045   747A      1.518076  
     748A      1.527271   749A      1.527459   750A      1.569859  
     751A      1.569922   752A      1.575340   753A      1.575369  
     754A      1.581442   755A      1.606523   756A      1.628734  
     757A      1.634814   758A      1.634895   759A      1.635344  
     760A      1.653061   761A      1.653796   762A      1.654350  
     763A      1.663372   764A      1.663400   765A      1.663457  
     766A      1.668447   767A      1.668615   768A      1.672725  
     769A      1.676275   770A      1.676396   771A      1.685157  
     772A      1.685506   773A      1.693778   774A      1.693819  
     775A      1.697876   776A      1.697945   777A      1.697964  
     778A      1.698610   779A      1.703591   780A      1.714713  
     781A      1.714735   782A      1.721092   783A      1.729994  
     784A      1.730057   785A      1.731147   786A      1.731271  
     787A      1.731295   788A      1.735557   789A      1.740707  
     790A      1.740760   791A      1.749613   792A      1.750540  
     793A      1.752677   794A      1.752727   795A      1.755188  
     796A      1.759562   797A      1.759632   798A      1.769005  
     799A      1.769026   800A      1.795498   801A      1.805668  
     802A      1.812979   803A      1.812999   804A      1.813311  
     805A      1.815200   806A      1.830345   807A      1.830365  
     808A      1.845031   809A      1.845051   810A      1.869581  
     811A      1.869621   812A      1.869803   813A      1.871865  
     814A      1.878975   815A      1.879074   816A      1.884430  
     817A      1.884506   818A      1.890021   819A      1.896640  
     820A      1.896982   821A      1.913638   822A      1.913685  
     823A      1.914116   824A      1.914155   825A      1.917205  
     826A      1.922106   827A      1.925843   828A      1.934162  
     829A      1.934218   830A      1.935310   831A      1.935397  
     832A      1.949932   833A      1.950030   834A      1.951996  
     835A      1.955524   836A      1.955648   837A      1.962658  
     838A      1.962803   839A      1.967063   840A      1.967316  
     841A      1.971461   842A      1.971614   843A      1.973155  
     844A      1.975786   845A      1.975871   846A      1.992535  
     847A      1.995018   848A      1.995180   849A      1.995581  
     850A      1.998494   851A      1.998519   852A      2.001197  
     853A      2.001339   854A      2.003899   855A      2.008169  
     856A      2.008173   857A      2.008345   858A      2.008407  
     859A      2.011756   860A      2.022868   861A      2.029618  
     862A      2.031555   863A      2.031685   864A      2.038032  
     865A      2.038074   866A      2.043344   867A      2.050678  
     868A      2.051736   869A      2.051791   870A      2.056421  
     871A      2.060561   872A      2.065611   873A      2.065771  
     874A      2.079764   875A      2.081990   876A      2.083598  
     877A      2.083719   878A      2.084125   879A      2.084837  
     880A      2.084938   881A      2.101511   882A      2.105211  
     883A      2.105541   884A      2.111324   885A      2.112018  
     886A      2.113264   887A      2.113446   888A      2.121197  
     889A      2.122342   890A      2.124882   891A      2.125158  
     892A      2.125449   893A      2.129505   894A      2.129555  
     895A      2.134835   896A      2.136665   897A      2.136777  
     898A      2.141369   899A      2.141455   900A      2.145248  
     901A      2.146047   902A      2.147547   903A      2.150001  
     904A      2.154038   905A      2.154100   906A      2.155621  
     907A      2.161760   908A      2.161809   909A      2.163753  
     910A      2.163839   911A      2.163908   912A      2.165378  
     913A      2.168805   914A      2.172414   915A      2.172483  
     916A      2.174444   917A      2.174515   918A      2.179415  
     919A      2.179436   920A      2.186999   921A      2.188132  
     922A      2.188838   923A      2.188909   924A      2.196367  
     925A      2.196387   926A      2.208956   927A      2.213928  
     928A      2.213966   929A      2.216510   930A      2.216546  
     931A      2.225811   932A      2.231650   933A      2.231727  
     934A      2.242825   935A      2.243191   936A      2.246016  
     937A      2.246570   938A      2.250714   939A      2.250831  
     940A      2.252910   941A      2.273186   942A      2.274700  
     943A      2.274738   944A      2.281010   945A      2.282366  
     946A      2.282701   947A      2.283806   948A      2.295292  
     949A      2.295607   950A      2.296466   951A      2.296875  
     952A      2.299574   953A      2.312530   954A      2.312644  
     955A      2.323434   956A      2.323443   957A      2.324917  
     958A      2.324963   959A      2.333197   960A      2.353178  
     961A      2.359808   962A      2.364383   963A      2.366124  
     964A      2.373986   965A      2.376427   966A      2.385068  
     967A      2.385761   968A      2.385861   969A      2.388187  
     970A      2.404780   971A      2.405397   972A      2.405944  
     973A      2.406078   974A      2.420422   975A      2.420516  
     976A      2.429527   977A      2.432736   978A      2.468786  
     979A      2.477748   980A      2.477914   981A      2.477951  
     982A      2.489532   983A      2.495101   984A      2.495142  
     985A      2.523772   986A      2.525767   987A      2.525924  
     988A      2.538637   989A      2.538649   990A      2.555873  
     991A      2.571992   992A      2.583163   993A      2.583616  
     994A      2.596080   995A      2.598263   996A      2.598307  
     997A      2.606564   998A      2.606636   999A      2.609268  
    1000A      2.613345  1001A      2.613351  1002A      2.626706  
    1003A      2.626741  1004A      2.627104  1005A      2.627657  
    1006A      2.639391  1007A      2.639521  1008A      2.641067  
    1009A      2.643202  1010A      2.643633  1011A      2.659037  
    1012A      2.676261  1013A      2.676331  1014A      2.678604  
    1015A      2.685317  1016A      2.685850  1017A      2.694028  
    1018A      2.694098  1019A      2.703468  1020A      2.703819  
    1021A      2.709990  1022A      2.735807  1023A      2.736943  
    1024A      2.737179  1025A      2.739083  1026A      2.756532  
    1027A      2.756864  1028A      2.767118  1029A      2.767125  
    1030A      2.772539  1031A      2.772556  1032A      2.776027  
    1033A      2.776255  1034A      2.791042  1035A      2.805065  
    1036A      2.805464  1037A      2.831263  1038A      2.848435  
    1039A      2.848587  1040A      2.869099  1041A      2.881045  
    1042A      2.881406  1043A      2.904720  1044A      2.904862  
    1045A      2.910833  1046A      2.913049  1047A      2.913345  
    1048A      2.913482  1049A      2.920188  1050A      2.945426  
    1051A      2.945573  1052A      2.945872  1053A      2.969523  
    1054A      2.969542  1055A      2.976414  1056A      2.986503  
    1057A      2.986563  1058A      3.002843  1059A      3.002870  
    1060A      3.015691  1061A      3.060150  1062A      3.060380  
    1063A      3.064261  1064A      3.081943  1065A      3.118375  
    1066A      3.118418  1067A      3.124186  1068A      3.124283  
    1069A      3.162390  1070A      3.163197  1071A      3.180016  
    1072A      3.182635  1073A      3.182918  1074A      3.190609  
    1075A      3.199024  1076A      3.199285  1077A      3.199331  
    1078A      3.201900  1079A      3.201907  1080A      3.210672  
    1081A      3.211054  1082A      3.218699  1083A      3.219169  
    1084A      3.244282  1085A      3.263812  1086A      3.268248  
    1087A      3.272448  1088A      3.290618  1089A      3.326445  
    1090A      3.330642  1091A      3.330791  1092A      3.335558  
    1093A      3.335722  1094A      3.470426  1095A      3.470895  
    1096A      3.499377  1097A      3.535829  1098A      3.538477  
    1099A      3.603821  1100A      3.631874  1101A      3.633831  
    1102A      3.648578  1103A      3.680266  1104A      3.682265  
    1105A      3.716446  1106A      3.720823  1107A      3.823304  
    1108A      3.837142  1109A      3.838113  1110A      3.923892  
    1111A      3.923904  1112A      3.966603  1113A      3.966716  
    1114A      4.031240  1115A      4.065250  1116A      4.088219  
    1117A      4.100132  1118A      4.136295  1119A      4.175400  
    1120A      4.175459  1121A      4.175658  1122A      4.203145  
    1123A      4.203171  1124A      4.203860  1125A      4.203946  
    1126A      4.204141  1127A      4.235724  1128A      4.235741  
    1129A      4.236394  1130A      4.450519  1131A      4.450822  
    1132A      4.451091  1133A      4.650478  1134A      4.650616  
    1135A      4.650699  1136A      4.752012  1137A      4.787376  
    1138A      4.787687  

    Final Occupation by Irrep:
              A 
    DOCC [   192 ]
    NA   [   192 ]
    NB   [   192 ]

  @DF-RHF Final Energy: -2478.65844646856567

   => Energetics <=

    Nuclear Repulsion Energy =           7431.3025747831052286
    One-Electron Energy =              -18212.5093984534178162
    Two-Electron Energy =                8302.5483772017469164
    Total Energy =                      -2478.6584464685656712

Computation Completed


Properties will be evaluated at   0.000000,   0.000000,   0.000000 [a0]

Properties computed using the SCF density matrix


 Multipole Moments:

 ------------------------------------------------------------------------------------
     Multipole            Electronic (a.u.)      Nuclear  (a.u.)        Total (a.u.)
 ------------------------------------------------------------------------------------

 L = 1.  Multiply by 2.5417464519 to convert [e a0] to [Debye]
 Dipole X            :         -0.0005732            0.0000481           -0.0005251
 Dipole Y            :          0.0011277           -0.0001453            0.0009824
 Dipole Z            :         36.3202343          -49.0425127          -12.7222784
 Magnitude           :                                                   12.7222784

 ------------------------------------------------------------------------------------

*** tstop() called on d-6-9-4 at Sat Jan 20 23:34:59 2024
Module time:
	user time   =    3141.44 seconds =      52.36 minutes
	system time =      63.38 seconds =       1.06 minutes
	total time  =        323 seconds =       5.38 minutes
Total time:
	user time   =    3141.44 seconds =      52.36 minutes
	system time =      63.38 seconds =       1.06 minutes
	total time  =        323 seconds =       5.38 minutes

  //>>>>>>>>>>>>>>>>>>>>>>>>>>>>>>>>>>>//
  //            Monomer A HF           //
  //<<<<<<<<<<<<<<<<<<<<<<<<<<<<<<<<<<<//

   => Libint2 <=

    Primary   basis highest AM E, G, H:  7, 7, 4
    Auxiliary basis highest AM E, G, H:  7, 7, 5
    Onebody   basis highest AM E, G, H:  7, 7, 5
    Solid Harmonics ordering:            gaussian

*** tstart() called on d-6-9-4
*** at Sat Jan 20 23:34:59 2024

   => Loading Basis Set <=

    Name: JUN-CC-PVDZ
    Role: ORBITAL
    Keyword: BASIS
    atoms 1     entry B          line   130 file /home/gridsan/tfroembgen/.conda/envs/psi4test/share/psi4/basis/jun-cc-pvdz.gbs 
    atoms 2-5   entry F          line   266 file /home/gridsan/tfroembgen/.conda/envs/psi4test/share/psi4/basis/jun-cc-pvdz.gbs 
    atoms 6-59  entry C          line   164 file /home/gridsan/tfroembgen/.conda/envs/psi4test/share/psi4/basis/jun-cc-pvdz.gbs 
    atoms 60-77 entry H          line    36 file /home/gridsan/tfroembgen/.conda/envs/psi4test/share/psi4/basis/jun-cc-pvdz.gbs 


         ---------------------------------------------------------
                                   SCF
               by Justin Turney, Rob Parrish, Andy Simmonett
                          and Daniel G. A. Smith
                              RHF Reference
                       12 Threads,  30517 MiB Core
         ---------------------------------------------------------

  ==> Geometry <==

    Molecular point group: c1
    Full point group: C1

    Geometry (in Angstrom), charge = -1, multiplicity = 1:

       Center              X                  Y                   Z               Mass       
    ------------   -----------------  -----------------  -----------------  -----------------
         B           -0.000198161052     0.000273808717     7.075878868184    11.009305360000
         F           -0.000000401852    -0.000000464183     8.488663868184    18.998403162730
         F            1.147859598148     0.675780735817     6.604737868184    18.998403162730
         F            0.011917658148    -1.332011464183     6.604939868184    18.998403162730
         F           -1.159666401852     0.656073035817     6.605018868184    18.998403162730
      Gh(C)           1.225311973413     0.707538196736    -0.918017504532    12.000000000000
      Gh(C)           1.225323934041    -0.707538986754    -0.930348314103    12.000000000000
      Gh(C)          -0.000006075942     1.414965821907    -0.930881937624    12.000000000000
      Gh(C)           2.456448831939     1.418327794995    -0.915130647133    12.000000000000
      Gh(C)           0.000010905269    -1.414976590818    -0.920682380299    12.000000000000
      Gh(C)          -1.225300870919     0.707545281801    -0.915765984210    12.000000000000
      Gh(C)           2.456437833310    -1.418323396064    -0.932593470960    12.000000000000
      Gh(C)          -0.000001254988     2.836800939098    -0.933285487758    12.000000000000
      Gh(C)           3.681826775460     0.709317863818    -0.932244681162    12.000000000000
      Gh(C)           2.455120126855     2.834223569306    -0.932347238123    12.000000000000
      Gh(C)           3.681821183209    -0.709333931612    -0.916172197144    12.000000000000
      Gh(C)          -1.225313520698    -0.707527607727    -0.929275552676    12.000000000000
      Gh(C)           1.226699659192     3.543469391811    -0.915988165213    12.000000000000
      Gh(C)           0.000004862847    -2.836782231419    -0.915834212678    12.000000000000
      Gh(C)          -2.456435954859     1.418316826102    -0.915730588364    12.000000000000
      Gh(C)           2.455123495769    -2.834230120772    -0.916324105511    12.000000000000
      Gh(C)          -1.226714286599     3.543468971567    -0.915884831993    12.000000000000
      Gh(C)           4.914517373191     1.427172780306    -0.925763998132    12.000000000000
      Gh(C)           3.693150269466     3.542795200362    -0.925714198496    12.000000000000
      Gh(C)          -2.456437522078    -1.418313373022    -0.932618509084    12.000000000000
      Gh(C)           1.226704919933    -3.543474334090    -0.931958295962    12.000000000000
      Gh(C)          -2.455125320518     2.834216570451    -0.932340861776    12.000000000000
      Gh(C)           4.914524458772    -1.427187002127    -0.922791255398    12.000000000000
      Gh(C)           1.221424691688     4.970133973077    -0.922652821138    12.000000000000
      Gh(C)           4.893008307311     2.825187907843    -0.924547329774    12.000000000000
      Gh(C)          -1.226696930499    -3.543471089260    -0.931691091553    12.000000000000
      Gh(C)          -3.681818898536     0.709324874549    -0.932232000682    12.000000000000
      Gh(C)           3.693147179140    -3.542801433574    -0.922673364837    12.000000000000
      Gh(C)          -1.221432174004     4.970128205680    -0.922469325765    12.000000000000
      Gh(C)           6.134771050916     0.680547854922    -0.924994223583    12.000000000000
      Gh(C)           3.656788958600     4.972953151384    -0.924805560713    12.000000000000
      Gh(C)          -2.455126829744    -2.834215185244    -0.916568463309    12.000000000000
      Gh(C)          -3.681819101071    -0.709325795652    -0.916054575565    12.000000000000
      Gh(C)           4.893012695903    -2.825200197815    -0.923936177878    12.000000000000
      Gh(C)          -0.000000995123     5.650447273849    -0.923700634472    12.000000000000
      Gh(C)           6.134775190322    -0.680554946258    -0.923728903067    12.000000000000
      Gh(C)           2.478131560845     5.653576659148    -0.923516781064    12.000000000000
      Gh(C)           1.221422482727    -4.970127147116    -0.925452318161    12.000000000000
      Gh(C)          -3.693162305975     3.542796862009    -0.925548691037    12.000000000000
      Gh(C)          -1.221428442955    -4.970118395779    -0.925565079993    12.000000000000
      Gh(C)          -4.914521729952     1.427175354812    -0.925687053125    12.000000000000
      Gh(C)           3.656787097669    -4.972955318422    -0.923355060179    12.000000000000
      Gh(C)          -2.478138452116     5.653574330345    -0.923232256055    12.000000000000
      Gh(C)          -3.693141660574    -3.542790311162    -0.922789490993    12.000000000000
      Gh(C)          -4.914512405063    -1.427181092211    -0.922756558224    12.000000000000
      Gh(C)          -0.000005930936    -5.650438379197    -0.924096138594    12.000000000000
      Gh(C)          -4.893020406111     2.825188506736    -0.924557411634    12.000000000000
      Gh(C)           2.478126071288    -5.653573636072    -0.924445660972    12.000000000000
      Gh(C)          -3.656798632268     4.972956089858    -0.924628880339    12.000000000000
      Gh(C)          -4.892999400866    -2.825191859243    -0.924090213576    12.000000000000
      Gh(C)          -2.478128420093    -5.653566262190    -0.924720848619    12.000000000000
      Gh(C)          -6.134770425341     0.680548674073    -0.925019775285    12.000000000000
      Gh(C)          -3.656788755199    -4.972944115154    -0.923569347996    12.000000000000
      Gh(C)          -6.134764964923    -0.680554007665    -0.923749378862    12.000000000000
      Gh(H)           5.835288573806     3.369275802771    -0.920188004111     1.007825032230
      Gh(H)           7.073859250737     1.228217156716    -0.924532580189     1.007825032230
      Gh(H)           4.600663342164     5.512380710270    -0.924300359962     1.007825032230
      Gh(H)           5.835283465295    -3.369306148912    -0.928390645193     1.007825032230
      Gh(H)          -0.000012073316     6.738530581953    -0.928049879480     1.007825032230
      Gh(H)           7.073861249820    -1.228227034927    -0.924237641161     1.007825032230
      Gh(H)           2.473313809789     6.740684199211    -0.923983501994     1.007825032230
      Gh(H)           4.600668569371    -5.512376221359    -0.923765057348     1.007825032230
      Gh(H)          -2.473318602548     6.740681627423    -0.923682155369     1.007825032230
      Gh(H)          -0.000010190238    -6.738528268635    -0.919566453609     1.007825032230
      Gh(H)          -5.835301836354     3.369270858113    -0.920051981963     1.007825032230
      Gh(H)           2.473308001821    -6.740685466612    -0.923875330547     1.007825032230
      Gh(H)          -4.600674763218     5.512377934420    -0.924135031638     1.007825032230
      Gh(H)          -5.835279428845    -3.369289055963    -0.928669951074     1.007825032230
      Gh(H)          -2.473300269450    -6.740679170323    -0.924324647091     1.007825032230
      Gh(H)          -7.073857688778     1.228220380657    -0.924616571670     1.007825032230
      Gh(H)          -4.600673708095    -5.512362761970    -0.923937365371     1.007825032230
      Gh(H)          -7.073856856419    -1.228220724160    -0.924332497627     1.007825032230

  Running in c1 symmetry.

  Rotational constants: A =      0.00134  B =      0.00133  C =      0.00110 [cm^-1]
  Rotational constants: A =     40.02372  B =     40.02001  C =     33.02251 [MHz]
  Nuclear repulsion =  178.879455044809163

  Charge       = -1
  Multiplicity = 1
  Electrons    = 42
  Nalpha       = 21
  Nbeta        = 21

  ==> Algorithm <==

  SCF Algorithm Type is DF.
  DIIS enabled.
  MOM disabled.
  Fractional occupation disabled.
  Guess Type is SAD.
  Energy threshold   = 1.00e-08
  Density threshold  = 1.00e-08
  Integral threshold = 1.00e-12

  ==> Primary Basis <==

  Basis Set: JUN-CC-PVDZ
    Blend: JUN-CC-PVDZ
    Number of shells: 526
    Number of basis functions: 1152
    Number of Cartesian functions: 1211
    Spherical Harmonics?: true
    Max angular momentum: 2

   => Loading Basis Set <=

    Name: (JUN-CC-PVDZ AUX)
    Role: JKFIT
    Keyword: DF_BASIS_SCF
    atoms 1     entry B          line    90 file /home/gridsan/tfroembgen/.conda/envs/psi4test/share/psi4/basis/jun-cc-pvdz-jkfit.gbs 
    atoms 2-5   entry F          line   314 file /home/gridsan/tfroembgen/.conda/envs/psi4test/share/psi4/basis/jun-cc-pvdz-jkfit.gbs 
    atoms 6-59  entry C          line   146 file /home/gridsan/tfroembgen/.conda/envs/psi4test/share/psi4/basis/jun-cc-pvdz-jkfit.gbs 
    atoms 60-77 entry H          line    70 file /home/gridsan/tfroembgen/.conda/envs/psi4test/share/psi4/basis/jun-cc-pvdz-jkfit.gbs 

  ==> Integral Setup <==

  ==> DiskDFJK: Density-Fitted J/K Matrices <==

    J tasked:                  Yes
    K tasked:                  Yes
    wK tasked:                  No
    OpenMP threads:             12
    Integrals threads:          12
    Memory [MiB]:            22888
    Algorithm:                Core
    Integral Cache:           LOAD
    Schwarz Cutoff:          1E-12
    Fitting Condition:       1E-10

   => Auxiliary Basis Set <=

  Basis Set: (JUN-CC-PVDZ AUX)
    Blend: JUN-CC-PVDZ-JKFIT
    Number of shells: 1755
    Number of basis functions: 5075
    Number of Cartesian functions: 5819
    Spherical Harmonics?: true
    Max angular momentum: 3

  Minimum eigenvalue in the overlap matrix is 8.3996287224E-10.
  Reciprocal condition number of the overlap matrix is 3.7569017743E-11.
    Using canonical orthogonalization.
  Overall, 14 of 1152 possible MOs eliminated.


  ==> Pre-Iterations <==

  SCF Guess: Superposition of Atomic Densities via on-the-fly atomic UHF (no occupation information).

   -------------------------
    Irrep   Nso     Nmo    
   -------------------------
     A       1152    1138 
   -------------------------
    Total    1152    1138
   -------------------------

  ==> Iterations <==

                           Total Energy        Delta E     RMS |[F,P]|

   @DF-RHF iter SAD:  -421.23044307576293   -4.21230e+02   0.00000e+00 
   @DF-RHF iter   1:  -422.64969654630659   -1.41925e+00   5.29772e-04 ADIIS/DIIS
   @DF-RHF iter   2:  -422.73246085335040   -8.27643e-02   3.22841e-04 ADIIS/DIIS
   @DF-RHF iter   3:  -422.77103262835584   -3.85718e-02   1.73757e-05 DIIS
   @DF-RHF iter   4:  -422.77139295088585   -3.60323e-04   2.74981e-06 DIIS
   @DF-RHF iter   5:  -422.77140158391126   -8.63303e-06   7.00050e-07 DIIS
   @DF-RHF iter   6:  -422.77140213878027   -5.54869e-07   1.44510e-07 DIIS
   @DF-RHF iter   7:  -422.77140215963578   -2.08555e-08   1.44535e-08 DIIS
   @DF-RHF iter   8:  -422.77140215984537   -2.09582e-10   4.96803e-09 DIIS
  Energy and wave function converged.


  ==> Post-Iterations <==

    Orbital Energies [Eh]
    ---------------------

    Doubly Occupied:                                                      

       1A    -26.067092     2A    -26.067025     3A    -26.066996  
       4A    -26.066912     5A     -7.539296     6A     -1.410958  
       7A     -1.351245     8A     -1.351193     9A     -1.351059  
      10A     -0.602241    11A     -0.528450    12A     -0.528420  
      13A     -0.528363    14A     -0.447304    15A     -0.447262  
      16A     -0.408463    17A     -0.408431    18A     -0.408368  
      19A     -0.384992    20A     -0.384954    21A     -0.384906  

    Virtual:                                                              

      22A      0.073395    23A      0.076181    24A      0.076183  
      25A      0.084874    26A      0.084877    27A      0.095265  
      28A      0.097978    29A      0.097991    30A      0.113261  
      31A      0.113263    32A      0.114296    33A      0.114297  
      34A      0.119830    35A      0.128935    36A      0.128939  
      37A      0.131615    38A      0.131634    39A      0.132949  
      40A      0.132950    41A      0.139043    42A      0.141884  
      43A      0.141891    44A      0.151779    45A      0.152950  
      46A      0.153684    47A      0.154544    48A      0.158857  
      49A      0.162479    50A      0.166027    51A      0.166027  
      52A      0.166447    53A      0.172096    54A      0.172098  
      55A      0.175303    56A      0.175309    57A      0.175880  
      58A      0.175893    59A      0.179732    60A      0.183259  
      61A      0.183274    62A      0.185091    63A      0.185093  
      64A      0.188765    65A      0.188779    66A      0.194412  
      67A      0.194433    68A      0.196697    69A      0.196706  
      70A      0.199214    71A      0.201058    72A      0.201059  
      73A      0.202658    74A      0.203770    75A      0.205246  
      76A      0.205265    77A      0.207005    78A      0.209857  
      79A      0.212788    80A      0.212791    81A      0.217247  
      82A      0.218174    83A      0.218178    84A      0.222583  
      85A      0.229718    86A      0.230912    87A      0.230953  
      88A      0.231089    89A      0.231241    90A      0.231253  
      91A      0.232465    92A      0.240822    93A      0.241090  
      94A      0.241102    95A      0.243578    96A      0.245677  
      97A      0.249182    98A      0.249434    99A      0.249579  
     100A      0.255394   101A      0.255404   102A      0.256062  
     103A      0.256079   104A      0.258949   105A      0.258954  
     106A      0.260380   107A      0.260391   108A      0.270746  
     109A      0.270768   110A      0.270806   111A      0.275900  
     112A      0.275904   113A      0.279141   114A      0.280226  
     115A      0.280239   116A      0.281879   117A      0.286225  
     118A      0.286243   119A      0.287535   120A      0.287584  
     121A      0.290465   122A      0.296805   123A      0.296908  
     124A      0.299451   125A      0.299465   126A      0.303705  
     127A      0.307158   128A      0.307165   129A      0.309994  
     130A      0.310003   131A      0.315042   132A      0.316161  
     133A      0.316168   134A      0.316640   135A      0.316648  
     136A      0.329549   137A      0.329553   138A      0.332035  
     139A      0.333220   140A      0.333227   141A      0.333705  
     142A      0.336708   143A      0.336711   144A      0.338469  
     145A      0.338476   146A      0.339327   147A      0.339356  
     148A      0.345380   149A      0.350292   150A      0.351982  
     151A      0.352016   152A      0.353363   153A      0.356876  
     154A      0.356890   155A      0.362271   156A      0.371806  
     157A      0.371810   158A      0.375757   159A      0.375775  
     160A      0.376027   161A      0.378186   162A      0.379805  
     163A      0.379857   164A      0.382288   165A      0.384506  
     166A      0.384508   167A      0.389966   168A      0.390058  
     169A      0.394016   170A      0.396057   171A      0.397701  
     172A      0.397723   173A      0.400934   174A      0.408599  
     175A      0.408626   176A      0.409545   177A      0.410984  
     178A      0.410998   179A      0.415172   180A      0.417339  
     181A      0.420157   182A      0.421197   183A      0.421248  
     184A      0.421338   185A      0.423293   186A      0.425076  
     187A      0.425172   188A      0.427642   189A      0.427760  
     190A      0.430386   191A      0.431255   192A      0.434577  
     193A      0.434609   194A      0.435311   195A      0.436656  
     196A      0.436684   197A      0.447757   198A      0.447840  
     199A      0.456616   200A      0.456710   201A      0.460220  
     202A      0.460279   203A      0.460744   204A      0.463287  
     205A      0.463491   206A      0.465083   207A      0.469626  
     208A      0.471696   209A      0.471724   210A      0.472248  
     211A      0.473907   212A      0.473910   213A      0.479728  
     214A      0.482950   215A      0.484614   216A      0.484647  
     217A      0.485347   218A      0.487955   219A      0.488114  
     220A      0.491522   221A      0.492188   222A      0.492252  
     223A      0.493728   224A      0.495286   225A      0.499934  
     226A      0.499968   227A      0.500952   228A      0.500997  
     229A      0.503282   230A      0.505279   231A      0.505304  
     232A      0.508910   233A      0.508980   234A      0.509204  
     235A      0.515451   236A      0.518921   237A      0.520119  
     238A      0.524612   239A      0.525200   240A      0.525704  
     241A      0.525765   242A      0.530557   243A      0.530596  
     244A      0.532704   245A      0.535195   246A      0.535226  
     247A      0.539537   248A      0.539578   249A      0.541008  
     250A      0.543356   251A      0.544186   252A      0.544192  
     253A      0.548845   254A      0.548873   255A      0.552301  
     256A      0.552458   257A      0.554747   258A      0.554912  
     259A      0.559092   260A      0.559330   261A      0.564506  
     262A      0.569748   263A      0.569869   264A      0.572283  
     265A      0.572915   266A      0.572939   267A      0.579781  
     268A      0.582413   269A      0.582726   270A      0.583649  
     271A      0.583789   272A      0.585115   273A      0.585360  
     274A      0.585826   275A      0.587437   276A      0.601177  
     277A      0.601188   278A      0.602668   279A      0.603622  
     280A      0.605119   281A      0.606596   282A      0.606651  
     283A      0.621990   284A      0.621995   285A      0.625468  
     286A      0.625503   287A      0.625776   288A      0.626150  
     289A      0.633585   290A      0.635057   291A      0.635074  
     292A      0.635868   293A      0.635888   294A      0.642063  
     295A      0.645769   296A      0.652260   297A      0.652272  
     298A      0.661623   299A      0.661656   300A      0.663948  
     301A      0.663974   302A      0.665189   303A      0.665245  
     304A      0.667829   305A      0.669359   306A      0.669364  
     307A      0.674669   308A      0.674684   309A      0.681922  
     310A      0.691335   311A      0.693979   312A      0.694045  
     313A      0.696219   314A      0.696310   315A      0.696558  
     316A      0.699865   317A      0.699949   318A      0.699966  
     319A      0.700865   320A      0.700874   321A      0.703259  
     322A      0.716143   323A      0.717704   324A      0.721701  
     325A      0.727675   326A      0.731904   327A      0.732640  
     328A      0.732641   329A      0.733673   330A      0.733693  
     331A      0.737224   332A      0.738648   333A      0.738669  
     334A      0.740811   335A      0.748626   336A      0.748635  
     337A      0.753402   338A      0.753437   339A      0.755224  
     340A      0.763953   341A      0.764071   342A      0.765693  
     343A      0.767873   344A      0.767940   345A      0.769578  
     346A      0.769602   347A      0.774190   348A      0.782337  
     349A      0.782360   350A      0.784439   351A      0.784765  
     352A      0.797031   353A      0.800113   354A      0.800136  
     355A      0.814058   356A      0.814076   357A      0.816049  
     358A      0.820253   359A      0.824365   360A      0.824991  
     361A      0.825009   362A      0.826311   363A      0.827965  
     364A      0.828006   365A      0.833159   366A      0.833336  
     367A      0.833417   368A      0.838370   369A      0.838535  
     370A      0.840813   371A      0.845331   372A      0.848868  
     373A      0.848885   374A      0.851342   375A      0.853859  
     376A      0.853939   377A      0.858585   378A      0.858616  
     379A      0.860347   380A      0.862815   381A      0.869448  
     382A      0.892707   383A      0.892714   384A      0.903254  
     385A      0.903275   386A      0.921855   387A      0.921996  
     388A      0.923657   389A      0.925147   390A      0.925277  
     391A      0.929772   392A      0.936537   393A      0.936562  
     394A      0.938226   395A      0.944246   396A      0.944327  
     397A      0.952235   398A      0.953228   399A      0.953263  
     400A      0.958942   401A      0.982616   402A      0.986778  
     403A      0.986797   404A      1.003903   405A      1.013636  
     406A      1.013662   407A      1.023641   408A      1.023684  
     409A      1.031738   410A      1.040346   411A      1.048807  
     412A      1.048823   413A      1.061573   414A      1.066364  
     415A      1.088252   416A      1.088302   417A      1.107348  
     418A      1.107405   419A      1.115154   420A      1.118184  
     421A      1.118200   422A      1.126371   423A      1.126408  
     424A      1.152091   425A      1.155330   426A      1.155347  
     427A      1.161906   428A      1.213570   429A      1.213625  
     430A      1.218428   431A      1.218577   432A      1.225565  
     433A      1.232333   434A      1.236356   435A      1.236363  
     436A      1.253920   437A      1.253972   438A      1.268782  
     439A      1.276414   440A      1.276420   441A      1.282759  
     442A      1.289209   443A      1.344260   444A      1.344363  
     445A      1.347086   446A      1.352619   447A      1.354134  
     448A      1.354184   449A      1.361300   450A      1.363346  
     451A      1.363394   452A      1.377580   453A      1.377676  
     454A      1.385816   455A      1.388269   456A      1.418575  
     457A      1.428765   458A      1.428815   459A      1.476591  
     460A      1.502769   461A      1.503322   462A      1.520991  
     463A      1.521024   464A      1.525294   465A      1.527334  
     466A      1.527462   467A      1.530697   468A      1.541173  
     469A      1.542044   470A      1.605073   471A      1.613932  
     472A      1.614058   473A      1.616751   474A      1.618022  
     475A      1.628354   476A      1.631088   477A      1.631161  
     478A      1.631780   479A      1.682431   480A      1.695380  
     481A      1.697933   482A      1.708064   483A      1.711071  
     484A      1.719194   485A      1.722936   486A      1.723241  
     487A      1.743410   488A      1.744177   489A      1.744724  
     490A      1.747975   491A      1.758970   492A      1.800263  
     493A      1.801442   494A      1.801786   495A      1.802625  
     496A      1.803841   497A      1.810921   498A      1.814028  
     499A      1.814369   500A      1.815413   501A      1.822227  
     502A      1.822339   503A      1.838182   504A      1.847236  
     505A      1.848261   506A      1.852672   507A      1.853398  
     508A      1.857967   509A      1.868760   510A      1.871223  
     511A      1.882137   512A      1.882352   513A      1.886181  
     514A      1.886442   515A      1.886746   516A      1.888156  
     517A      1.891567   518A      1.891850   519A      1.896606  
     520A      1.896681   521A      1.897539   522A      1.897585  
     523A      1.909147   524A      1.916659   525A      1.917286  
     526A      1.926543   527A      1.926555   528A      1.932071  
     529A      1.934910   530A      1.939036   531A      1.939129  
     532A      1.940752   533A      1.945149   534A      1.946339  
     535A      1.947828   536A      1.948136   537A      1.963552  
     538A      1.964892   539A      1.965116   540A      1.965926  
     541A      1.966233   542A      1.966317   543A      1.977447  
     544A      1.977714   545A      1.984798   546A      1.985713  
     547A      1.987749   548A      1.990165   549A      1.990281  
     550A      1.990345   551A      1.994403   552A      1.998399  
     553A      1.998558   554A      2.005590   555A      2.005793  
     556A      2.006103   557A      2.026634   558A      2.026721  
     559A      2.026774   560A      2.026868   561A      2.029246  
     562A      2.029326   563A      2.033991   564A      2.034128  
     565A      2.044662   566A      2.044715   567A      2.050411  
     568A      2.053427   569A      2.055412   570A      2.055423  
     571A      2.059798   572A      2.059955   573A      2.059991  
     574A      2.066358   575A      2.077834   576A      2.077898  
     577A      2.087610   578A      2.087821   579A      2.115417  
     580A      2.124200   581A      2.124218   582A      2.129336  
     583A      2.130810   584A      2.135059   585A      2.135142  
     586A      2.137993   587A      2.140479   588A      2.140532  
     589A      2.149673   590A      2.152253   591A      2.152475  
     592A      2.157555   593A      2.159544   594A      2.173068  
     595A      2.173145   596A      2.176994   597A      2.179347  
     598A      2.179837   599A      2.186014   600A      2.186056  
     601A      2.196469   602A      2.196620   603A      2.196936  
     604A      2.200094   605A      2.200114   606A      2.203830  
     607A      2.203889   608A      2.206010   609A      2.206758  
     610A      2.207233   611A      2.207335   612A      2.207397  
     613A      2.212059   614A      2.212110   615A      2.218801  
     616A      2.218821   617A      2.218879   618A      2.222158  
     619A      2.222565   620A      2.222575   621A      2.226589  
     622A      2.227068   623A      2.227301   624A      2.227955  
     625A      2.230208   626A      2.232408   627A      2.232519  
     628A      2.233456   629A      2.233616   630A      2.236674  
     631A      2.236745   632A      2.239928   633A      2.239961  
     634A      2.242696   635A      2.244841   636A      2.244959  
     637A      2.247904   638A      2.249133   639A      2.249179  
     640A      2.249535   641A      2.251830   642A      2.272952  
     643A      2.272981   644A      2.295114   645A      2.297286  
     646A      2.300445   647A      2.300482   648A      2.304889  
     649A      2.305112   650A      2.305592   651A      2.310042  
     652A      2.310049   653A      2.324136   654A      2.324963  
     655A      2.325082   656A      2.332154   657A      2.332241  
     658A      2.333160   659A      2.344117   660A      2.344169  
     661A      2.350593   662A      2.350628   663A      2.355841  
     664A      2.367894   665A      2.367980   666A      2.375506  
     667A      2.383272   668A      2.383284   669A      2.386643  
     670A      2.386708   671A      2.392201   672A      2.398969  
     673A      2.401779   674A      2.402024   675A      2.402070  
     676A      2.416669   677A      2.417870   678A      2.420846  
     679A      2.420947   680A      2.425377   681A      2.425412  
     682A      2.427328   683A      2.427529   684A      2.428146  
     685A      2.430566   686A      2.436964   687A      2.437883  
     688A      2.437951   689A      2.438252   690A      2.438300  
     691A      2.445250   692A      2.452381   693A      2.453114  
     694A      2.455849   695A      2.464414   696A      2.464696  
     697A      2.468533   698A      2.468591   699A      2.475356  
     700A      2.475501   701A      2.476009   702A      2.481039  
     703A      2.481065   704A      2.490532   705A      2.491493  
     706A      2.491552   707A      2.492547   708A      2.506367  
     709A      2.506384   710A      2.512944   711A      2.513004  
     712A      2.522151   713A      2.524364   714A      2.528250  
     715A      2.528291   716A      2.534325   717A      2.543432  
     718A      2.544766   719A      2.544946   720A      2.559572  
     721A      2.559596   722A      2.564267   723A      2.564310  
     724A      2.572969   725A      2.582882   726A      2.585572  
     727A      2.593529   728A      2.593585   729A      2.597789  
     730A      2.600996   731A      2.605439   732A      2.605483  
     733A      2.605642   734A      2.605733   735A      2.612321  
     736A      2.618739   737A      2.618810   738A      2.623360  
     739A      2.631749   740A      2.636674   741A      2.638322  
     742A      2.638388   743A      2.663398   744A      2.663458  
     745A      2.679212   746A      2.683203   747A      2.683268  
     748A      2.689909   749A      2.689944   750A      2.691349  
     751A      2.691415   752A      2.692411   753A      2.705719  
     754A      2.706068   755A      2.707604   756A      2.711877  
     757A      2.715613   758A      2.715969   759A      2.716303  
     760A      2.716340   761A      2.734865   762A      2.734947  
     763A      2.751343   764A      2.751354   765A      2.759628  
     766A      2.759924   767A      2.766365   768A      2.767421  
     769A      2.770835   770A      2.771690   771A      2.771860  
     772A      2.778050   773A      2.778069   774A      2.783172  
     775A      2.783260   776A      2.800759   777A      2.800893  
     778A      2.802549   779A      2.802616   780A      2.805108  
     781A      2.809437   782A      2.815787   783A      2.815932  
     784A      2.817897   785A      2.818374   786A      2.822984  
[...]
     706A      1.359098   707A      1.359135   708A      1.365739  
     709A      1.365761   710A      1.380069   711A      1.391318  
     712A      1.397528   713A      1.403965   714A      1.403986  
     715A      1.407845   716A      1.407868   717A      1.412137  
     718A      1.412173   719A      1.420043   720A      1.420910  
     721A      1.425066   722A      1.425106   723A      1.429102  
     724A      1.429255   725A      1.429564   726A      1.436298  
     727A      1.436329   728A      1.439309   729A      1.439551  
     730A      1.439752   731A      1.447870   732A      1.447886  
     733A      1.450499   734A      1.463386   735A      1.463417  
     736A      1.472592   737A      1.472783   738A      1.516466  
     739A      1.516525   740A      1.521183   741A      1.521211  
     742A      1.528650   743A      1.552339   744A      1.564038  
     745A      1.575628   746A      1.598053   747A      1.599514  
     748A      1.600082   749A      1.608572   750A      1.608615  
     751A      1.609156   752A      1.612875   753A      1.613056  
     754A      1.616944   755A      1.621756   756A      1.621885  
     757A      1.629353   758A      1.629598   759A      1.631168  
     760A      1.631306   761A      1.631783   762A      1.639954  
     763A      1.639998   764A      1.643516   765A      1.643610  
     766A      1.643690   767A      1.644000   768A      1.650038  
     769A      1.661005   770A      1.661025   771A      1.667392  
     772A      1.676248   773A      1.676326   774A      1.676722  
     775A      1.676736   776A      1.677006   777A      1.682253  
     778A      1.686597   779A      1.686651   780A      1.696032  
     781A      1.697257   782A      1.699322   783A      1.699373  
     784A      1.700702   785A      1.704739   786A      1.704810  
     787A      1.715707   788A      1.715727   789A      1.738108  
     790A      1.738298   791A      1.741668   792A      1.751379  
     793A      1.760247   794A      1.760268   795A      1.761059  
     796A      1.761730   797A      1.776724   798A      1.776746  
     799A      1.791464   800A      1.791485   801A      1.816498  
     802A      1.816541   803A      1.816640   804A      1.817995  
     805A      1.823021   806A      1.824638   807A      1.824738  
     808A      1.830747   809A      1.830824   810A      1.836856  
     811A      1.842393   812A      1.842671   813A      1.860718  
     814A      1.860747   815A      1.860769   816A      1.860789  
     817A      1.864018   818A      1.868708   819A      1.872145  
     820A      1.880138   821A      1.880193   822A      1.896105  
     823A      1.896198   824A      1.899376   825A      1.902931  
     826A      1.903057   827A      1.908511   828A      1.908656  
     829A      1.913726   830A      1.913982   831A      1.917628  
     832A      1.917779   833A      1.919217   834A      1.921952  
     835A      1.922038   836A      1.940427   837A      1.940942  
     838A      1.941735   839A      1.941906   840A      1.946361  
     841A      1.946393   842A      1.953921   843A      1.953951  
     844A      1.954206   845A      1.954283   846A      1.957979  
     847A      1.970048   848A      1.982857   849A      1.982935  
     850A      1.989797   851A      1.997087   852A      1.998499  
     853A      1.998525   854A      2.003653   855A      2.008001  
     856A      2.012222   857A      2.012385   858A      2.026942  
     859A      2.027815   860A      2.029939   861A      2.030065  
     862A      2.030442   863A      2.031204   864A      2.031322  
     865A      2.047813   866A      2.051715   867A      2.052096  
     868A      2.057307   869A      2.058056   870A      2.059030  
     871A      2.059196   872A      2.068185   873A      2.070065  
     874A      2.071106   875A      2.071472   876A      2.075243  
     877A      2.075296   878A      2.080063   879A      2.084182  
     880A      2.084223   881A      2.092692   882A      2.094171  
     883A      2.095393   884A      2.096842   885A      2.100467  
     886A      2.100535   887A      2.105867   888A      2.108166  
     889A      2.108227   890A      2.109234   891A      2.109260  
     892A      2.110513   893A      2.114168   894A      2.119178  
     895A      2.119232   896A      2.120229   897A      2.120297  
     898A      2.126036   899A      2.126053   900A      2.133349  
     901A      2.134551   902A      2.135736   903A      2.135816  
     904A      2.143150   905A      2.143169   906A      2.155395  
     907A      2.159513   908A      2.159548   909A      2.162684  
     910A      2.162719   911A      2.171228   912A      2.178192  
     913A      2.178264   914A      2.190311   915A      2.190696  
     916A      2.192480   917A      2.193732   918A      2.195754  
     919A      2.195865   920A      2.198251   921A      2.219647  
     922A      2.220233   923A      2.220265   924A      2.227747  
     925A      2.228102   926A      2.228447   927A      2.228855  
     928A      2.243206   929A      2.243543   930A      2.243760  
     931A      2.244148   932A      2.247046   933A      2.260006  
     934A      2.260117   935A      2.270104   936A      2.270115  
     937A      2.271998   938A      2.272044   939A      2.281037  
     940A      2.300168   941A      2.306655   942A      2.310262  
     943A      2.312066   944A      2.319620   945A      2.322250  
     946A      2.330896   947A      2.330958   948A      2.331062  
     949A      2.333786   950A      2.350638   951A      2.351319  
     952A      2.352325   953A      2.352405   954A      2.366214  
     955A      2.366324   956A      2.374562   957A      2.379299  
     958A      2.415808   959A      2.423985   960A      2.424353  
     961A      2.424378   962A      2.436436   963A      2.441046  
     964A      2.441088   965A      2.469863   966A      2.472508  
     967A      2.472668   968A      2.485294   969A      2.485315  
     970A      2.502281   971A      2.519041   972A      2.529653  
     973A      2.529812   974A      2.543223   975A      2.545229  
     976A      2.545264   977A      2.554141   978A      2.554210  
     979A      2.554776   980A      2.559801   981A      2.559807  
     982A      2.572949   983A      2.572984   984A      2.574634  
     985A      2.575186   986A      2.586198   987A      2.586312  
     988A      2.587174   989A      2.589682   990A      2.591377  
     991A      2.605914   992A      2.623338   993A      2.623410  
     994A      2.624846   995A      2.631270   996A      2.631812  
     997A      2.641121   998A      2.641190   999A      2.650729  
    1000A      2.651085  1001A      2.656828  1002A      2.681772  
    1003A      2.682944  1004A      2.683948  1005A      2.686702  
    1006A      2.701854  1007A      2.702180  1008A      2.712985  
    1009A      2.712991  1010A      2.718619  1011A      2.718640  
    1012A      2.722400  1013A      2.722631  1014A      2.736874  
    1015A      2.751944  1016A      2.752335  1017A      2.776805  
    1018A      2.794311  1019A      2.794463  1020A      2.808082  
    1021A      2.808716  1022A      2.809862  1023A      2.815949  
    1024A      2.827069  1025A      2.827333  1026A      2.851208  
    1027A      2.851354  1028A      2.855995  1029A      2.858285  
    1030A      2.859227  1031A      2.859324  1032A      2.867016  
    1033A      2.916602  1034A      2.916623  1035A      2.923412  
    1036A      2.933457  1037A      2.933516  1038A      2.949515  
    1039A      2.949539  1040A      2.962665  1041A      3.006244  
    1042A      3.006481  1043A      3.011845  1044A      3.029214  
    1045A      3.064013  1046A      3.064057  1047A      3.070312  
    1048A      3.070411  1049A      3.109297  1050A      3.110106  
    1051A      3.127378  1052A      3.129333  1053A      3.129616  
    1054A      3.137432  1055A      3.145803  1056A      3.146124  
    1057A      3.146169  1058A      3.148862  1059A      3.148866  
    1060A      3.157512  1061A      3.157888  1062A      3.165466  
    1063A      3.165941  1064A      3.191571  1065A      3.211125  
    1066A      3.218221  1067A      3.237223  1068A      3.271973  
    1069A      3.276862  1070A      3.277005  1071A      3.281678  
    1072A      3.281853  1073A      3.416105  1074A      3.416582  
    1075A      3.442734  1076A      3.481196  1077A      3.483858  
    1078A      3.548965  1079A      3.576957  1080A      3.578928  
    1081A      3.593788  1082A      3.626429  1083A      3.628421  
    1084A      3.662662  1085A      3.667089  1086A      3.769201  
    1087A      3.782603  1088A      3.783559  1089A      3.870660  
    1090A      3.870672  1091A      3.913025  1092A      3.913139  
    1093A      3.976882  1094A      4.010834  1095A      4.032587  
    1096A      4.044480  1097A      4.080534  1098A      4.178521  
    1099A      4.179341  1100A      4.179380  1101A      4.318515  
    1102A      5.745750  1103A      5.745750  1104A      5.746632  
    1105A      5.749845  1106A      5.749849  1107A      5.755871  
    1108A      5.755871  1109A      5.756495  1110A      5.774943  
    1111A      5.774983  1112A      5.776325  1113A      6.016744  
    1114A      6.017062  1115A      6.017667  1116A      6.189137  
    1117A      6.323736  1118A      6.324065  1119A      6.369643  
    1120A      6.370343  1121A      6.370683  1122A      7.139265  
    1123A      7.139369  1124A      7.219288  1125A      7.219409  
    1126A      7.222789  1127A      7.237627  1128A      7.239783  
    1129A      7.239799  1130A      7.449193  1131A      7.449339  
    1132A      7.457320  1133A      7.584080  1134A     12.586758  
    1135A     42.904103  1136A     42.905631  1137A     42.905685  
    1138A     42.934136  

    Final Occupation by Irrep:
              A 
    DOCC [   171 ]
    NA   [   171 ]
    NB   [   171 ]

  @DF-RHF Final Energy: -2055.89159929439438

   => Energetics <=

    Nuclear Repulsion Energy =           6452.5568002797772351
    One-Electron Energy =              -15636.4238304272275855
    Two-Electron Energy =                7127.9754308530555136
    Total Energy =                      -2055.8915992943948368

Computation Completed


Properties will be evaluated at   0.000000,   0.000000,   0.000000 [a0]

Properties computed using the SCF density matrix


 Multipole Moments:

 ------------------------------------------------------------------------------------
     Multipole            Electronic (a.u.)      Nuclear  (a.u.)        Total (a.u.)
 ------------------------------------------------------------------------------------

 L = 1.  Multiply by 2.5417464519 to convert [e a0] to [Debye]
 Dipole X            :          0.0000524            0.0000419            0.0000943
 Dipole Y            :          0.0000277           -0.0000426           -0.0000149
 Dipole Z            :        597.2698905         -597.2702760           -0.0003855
 Magnitude           :                                                    0.0003971

 ------------------------------------------------------------------------------------

*** tstop() called on d-6-9-4 at Sat Jan 20 23:41:24 2024
Module time:
	user time   =    2338.45 seconds =      38.97 minutes
	system time =      57.99 seconds =       0.97 minutes
	total time  =        257 seconds =       4.28 minutes
Total time:
	user time   =    6698.95 seconds =     111.65 minutes
	system time =     145.71 seconds =       2.43 minutes
	total time  =        708 seconds =      11.80 minutes
  Constructing Basis Sets for SAPT...

   => Loading Basis Set <=

    Name: (JUN-CC-PVDZ AUX)
    Role: RIFIT
    Keyword: DF_BASIS_SAPT
    atoms 1     entry B          line    56 file /home/gridsan/tfroembgen/.conda/envs/psi4test/share/psi4/basis/jun-cc-pvdz-ri.gbs 
    atoms 2-5   entry F          line   232 file /home/gridsan/tfroembgen/.conda/envs/psi4test/share/psi4/basis/jun-cc-pvdz-ri.gbs 
    atoms 6-59  entry C          line   100 file /home/gridsan/tfroembgen/.conda/envs/psi4test/share/psi4/basis/jun-cc-pvdz-ri.gbs 
    atoms 60-77 entry H          line    30 file /home/gridsan/tfroembgen/.conda/envs/psi4test/share/psi4/basis/jun-cc-pvdz-ri.gbs 

   => Loading Basis Set <=

    Name: (JUN-CC-PVDZ AUX)
    Role: JKFIT
    Keyword: DF_BASIS_ELST
    atoms 1     entry B          line    90 file /home/gridsan/tfroembgen/.conda/envs/psi4test/share/psi4/basis/jun-cc-pvdz-jkfit.gbs 
    atoms 2-5   entry F          line   314 file /home/gridsan/tfroembgen/.conda/envs/psi4test/share/psi4/basis/jun-cc-pvdz-jkfit.gbs 
    atoms 6-59  entry C          line   146 file /home/gridsan/tfroembgen/.conda/envs/psi4test/share/psi4/basis/jun-cc-pvdz-jkfit.gbs 
    atoms 60-77 entry H          line    70 file /home/gridsan/tfroembgen/.conda/envs/psi4test/share/psi4/basis/jun-cc-pvdz-jkfit.gbs 


  //>>>>>>>>>>>>>>>>>>>>>>>>>>>>>>>>>>>//
  //               SSAPT0              //
  //<<<<<<<<<<<<<<<<<<<<<<<<<<<<<<<<<<<//


*** tstart() called on d-6-9-4
*** at Sat Jan 20 23:41:25 2024

        SAPT0  
    Ed Hohenstein
     6 June 2009

      Orbital Information
  --------------------------
    NSO        =      1152
    NMO        =      1138
    NRI        =      4087
    NRI (Elst) =      5075
    NOCC A     =        21
    NOCC B     =       171
    FOCC A     =         5
    FOCC B     =        54
    NVIR A     =      1117
    NVIR B     =       967

    Elst10,r            =     0.006035177442 [Eh]
    Exch10              =    -0.000000065263 [Eh]
    Exch10 (S^2)        =    -0.000000065263 [Eh]

    Iter     Energy [mEh]          dE [mEh]         Residual      Time [s]
       1      -0.00283557       0.002835571       0.376290007           263
       2      -0.00331513       0.000479563       0.193129791           674
       3      -0.00349428       0.000179151       0.040696244           904
       4      -0.00350324       0.000008956       0.007657487          1066
       5      -0.00349679      -0.000006451       0.000989840          1082
       6      -0.00349734       0.000000551       0.000265444          1097
       7      -0.00349736       0.000000019       0.000085657          1112
       8      -0.00349734      -0.000000020       0.000020383          1124
       9      -0.00349734      -0.000000004       0.000003161          1138
      10      -0.00349734       0.000000001       0.000000739          1150

    CHF Iterations converged


    Iter     Energy [mEh]          dE [mEh]         Residual      Time [s]
       1      -2.11686844       2.116868442      23.981542861           289
       2      -1.44434555      -0.672522891       2.940506223           374
       3      -1.44810317       0.003757618       1.096512285           402
       4      -1.48293998       0.034836812       0.245484757           422
       5      -1.48443588       0.001495900       0.067344903           444
       6      -1.48375881      -0.000677069       0.029993926           463
       7      -1.48354558      -0.000213230       0.012905770           479
       8      -1.48365207       0.000106485       0.008951318           500
       9      -1.48368904       0.000036971       0.005608615           524
      10      -1.48365392      -0.000035120       0.002811286           544
      11      -1.48365074      -0.000003181       0.001100655           566
      12      -1.48365517       0.000004437       0.000474566           585
      13      -1.48365614       0.000000968       0.000175816           605
      14      -1.48365584      -0.000000298       0.000068821           621
      15      -1.48365552      -0.000000326       0.000020387           637
      16      -1.48365556       0.000000039       0.000010682           656
      17      -1.48365559       0.000000033       0.000005553           673
      18      -1.48365559      -0.000000000       0.000002012           690
      19      -1.48365558      -0.000000007       0.000000878           707

    CHF Iterations converged

    Ind20,r (A<-B)      =    -0.000003497337 [Eh]
    Ind20,r (B<-A)      =    -0.001483655583 [Eh]
    Ind20,r             =    -0.001487152920 [Eh]
    Exch-Ind20,r (A<-B) =     0.000000006541 [Eh]
    Exch-Ind20,r (B<-A) =     0.000000008215 [Eh]
    Exch-Ind20,r        =     0.000000014756 [Eh]
    Disp20              =    -0.000191872145 [Eh]
    Disp20 (SS)         =    -0.000095936073 [Eh]
    Disp20 (OS)         =    -0.000095936073 [Eh]
    Exch-Disp20         =     0.000000010023 [Eh]
    Exch-Disp20 (SS)    =     0.000000007773 [Eh]
    Exch-Disp20 (OS)    =     0.000000002250 [Eh]

    SAPT Results 
  --------------------------------------------------------------------------------------------------------
    Electrostatics                  6.03517744 [mEh]       3.78713102 [kcal/mol]      15.84535619 [kJ/mol]
      Elst10,r                      6.03517744 [mEh]       3.78713102 [kcal/mol]      15.84535619 [kJ/mol]

    Exchange                       -0.00006526 [mEh]      -0.00004095 [kcal/mol]      -0.00017135 [kJ/mol]
      Exch10                       -0.00006526 [mEh]      -0.00004095 [kcal/mol]      -0.00017135 [kJ/mol]
      Exch10(S^2)                  -0.00006526 [mEh]      -0.00004095 [kcal/mol]      -0.00017135 [kJ/mol]

    Induction                      -1.48012650 [mEh]      -0.92879340 [kcal/mol]      -3.88607160 [kJ/mol]
      Ind20,r                      -1.48715292 [mEh]      -0.93320255 [kcal/mol]      -3.90451945 [kJ/mol]
      Exch-Ind20,r                  0.00001476 [mEh]       0.00000926 [kcal/mol]       0.00003874 [kJ/mol]
      delta HF,r (2)                0.00701166 [mEh]       0.00439988 [kcal/mol]       0.01840911 [kJ/mol]

    Dispersion                     -0.19186212 [mEh]      -0.12039530 [kcal/mol]      -0.50373393 [kJ/mol]
      Disp20                       -0.19187215 [mEh]      -0.12040159 [kcal/mol]      -0.50376025 [kJ/mol]
      Exch-Disp20                   0.00001002 [mEh]       0.00000629 [kcal/mol]       0.00002632 [kJ/mol]
      Disp20 (SS)                  -0.09593607 [mEh]      -0.06020079 [kcal/mol]      -0.25188012 [kJ/mol]
      Disp20 (OS)                  -0.09593607 [mEh]      -0.06020079 [kcal/mol]      -0.25188012 [kJ/mol]
      Exch-Disp20 (SS)              0.00000777 [mEh]       0.00000488 [kcal/mol]       0.00002041 [kJ/mol]
      Exch-Disp20 (OS)              0.00000225 [mEh]       0.00000141 [kcal/mol]       0.00000591 [kJ/mol]

  Total HF                          4.55498567 [mEh]       2.85829666 [kcal/mol]      11.95911324 [kJ/mol]
  Total SAPT0                       4.36312355 [mEh]       2.73790136 [kcal/mol]      11.45537931 [kJ/mol]

  Special recipe for scaled SAPT0 (see Manual):
    Electrostatics sSAPT0           6.03517744 [mEh]       3.78713102 [kcal/mol]      15.84535619 [kJ/mol]
    Exchange sSAPT0                -0.00006526 [mEh]      -0.00004095 [kcal/mol]      -0.00017135 [kJ/mol]
    Induction sSAPT0               -1.48012650 [mEh]      -0.92879340 [kcal/mol]      -3.88607160 [kJ/mol]
    Dispersion sSAPT0              -0.19186212 [mEh]      -0.12039530 [kcal/mol]      -0.50373393 [kJ/mol]
  Total sSAPT0                      4.36312355 [mEh]       2.73790136 [kcal/mol]      11.45537931 [kJ/mol]
  --------------------------------------------------------------------------------------------------------

*** tstop() called on d-6-9-4 at Sun Jan 21 00:40:50 2024
Module time:
	user time   =    6821.13 seconds =     113.69 minutes
	system time =     697.33 seconds =      11.62 minutes
	total time  =       3565 seconds =      59.42 minutes
Total time:
	user time   =   13521.73 seconds =     225.36 minutes
	system time =     843.08 seconds =      14.05 minutes
	total time  =       4274 seconds =      71.23 minutes

    Psi4 stopped on: Sunday, 21 January 2024 12:40AM
    Psi4 wall time for execution: 1:11:15.61

*** Psi4 exiting successfully. Buy a developer a beer!
