
    -----------------------------------------------------------------------
          Psi4: An Open-Source Ab Initio Electronic Structure Package
                               Psi4 1.9 release

                         Git: Rev {} zzzzzzz 


    D. G. A. Smith, L. A. Burns, A. C. Simmonett, R. M. Parrish,
    M. C. Schieber, R. Galvelis, P. Kraus, H. Kruse, R. Di Remigio,
    A. Alenaizan, A. M. James, S. Lehtola, J. P. Misiewicz, M. Scheurer,
    R. A. Shaw, J. B. Schriber, Y. Xie, Z. L. Glick, D. A. Sirianni,
    J. S. O'Brien, J. M. Waldrop, A. Kumar, E. G. Hohenstein,
    B. P. Pritchard, B. R. Brooks, H. F. Schaefer III, A. Yu. Sokolov,
    K. Patkowski, A. E. DePrince III, U. Bozkaya, R. A. King,
    F. A. Evangelista, J. M. Turney, T. D. Crawford, C. D. Sherrill,
    J. Chem. Phys. 152(18) 184108 (2020). https://doi.org/10.1063/5.0006002

                            Additional Code Authors
    E. T. Seidl, C. L. Janssen, E. F. Valeev, M. L. Leininger,
    J. F. Gonthier, R. M. Richard, H. R. McAlexander, M. Saitow, X. Wang,
    P. Verma, M. H. Lechner, A. Jiang, S. Behnle, A. G. Heide,
    M. F. Herbst, and D. L. Poole

             Previous Authors, Complete List of Code Contributors,
                       and Citations for Specific Modules
    https://github.com/psi4/psi4/blob/master/codemeta.json
    https://github.com/psi4/psi4/graphs/contributors
    http://psicode.org/psi4manual/master/introduction.html#citing-psifour

    -----------------------------------------------------------------------


    Psi4 started on: Monday, 22 January 2024 10:09PM

    Process ID: 1895548
    Host:       d-6-11-4
    PSIDATADIR: /home/gridsan/tfroembgen/.conda/envs/psi4test/share/psi4
    Memory:     500.0 MiB
    Threads:    12
    
  ==> Input File <==

--------------------------------------------------------------------------
memory 32 GB # how much memory is available ! Depends on the nodes/cores !

molecule dimer {
# monomer A
+1 1    # Charge and multiplicity
C  0.680067 1.417258 -7.215929
C -0.680504 1.419286 -7.215545
N -1.085635 1.420284 -5.897221
C  0.000108 1.423560 -5.115820
C -2.477365 1.469690 -5.429242
N  1.085222 1.420284 -5.897221
H  1.385146 1.409430 -8.033368
H -1.385302 1.419096 -8.033214
H -0.000009 1.425307 -4.034731
C  2.478117 1.403392 -5.432123
H  2.490592 1.430737 -4.341870
H  2.967028 0.489946 -5.779299
H  3.001428 2.278875 -5.823595
H -2.857359 2.491761 -5.509201
H -3.082679 0.799606 -6.042306
H -2.518128 1.142706 -4.389294
--
# monomer B
0 1     # Charge and multiplicity
C   1.22531237526482      0.70753866091955      0.00613762728373
C   1.22532433589282     -0.70753852257020     -0.00619318228664
C   -0.00000567409046      1.41496628609039     -0.00672680580738
C   2.45644923379077      1.41832825917820      0.00902448468363
C   0.00001130712078     -1.41497612663474      0.00347275151708
C   -1.22530046906674      0.70754574598412      0.00838914760619
C   2.45643823516184     -1.41832293188077     -0.00843833914343
C   -0.00000085313587      2.83680140328112     -0.00913035594137
C   3.68182717731192      0.70931832800114     -0.00808954934571
C   2.45512052870677      2.83422403348893     -0.00819210630633
C   3.68182158506039     -0.70933346742900      0.00798293467272
C   -1.22531311884624     -0.70752714354401     -0.00512042085974
C   1.22670006104402      3.54346985599427      0.00816696660346
C   0.00000526469929     -2.83678176723568      0.00832091913869
C   -2.45643555300670      1.41831729028492      0.00842454345199
C   2.45512389762097     -2.83422965658853      0.00783102630520
C   -1.22671388474763      3.54346943575023      0.00827029982280
C   4.91451777504333      1.42717324448953     -0.00160886631602
C   3.69315067131765      3.54279566454522     -0.00155906667985
C   -2.45643712022637     -1.41831290883911     -0.00846337726810
C   1.22670532178455     -3.54347386990643     -0.00780316414624
C   -2.45512491866593      2.83421703463423     -0.00818572995999
C   4.91452486062398     -1.42718653794377      0.00136387641845
C   1.22142509354026      4.97013443726031      0.00150231067809
C   4.89300870916237      2.82518837202648     -0.00039219795739
C   -1.22669652864725     -3.54347062507680     -0.00753595973677
C   -3.68181849668397      0.70932533873199     -0.00807686886569
C   3.69314758099218     -3.54280096939050      0.00148176697923
C   -1.22143177215231      4.97012866986289      0.00168580605083
C   6.13477145276790      0.68054831910577     -0.00083909176631
C   3.65678936045204      4.97295361556775     -0.00065042889723
C   -2.45512642789169     -2.83421472106065      0.00758666850712
C   -3.68181869921921     -0.70932533146830      0.00810055625144
C   4.89301309775526     -2.82519973363176      0.00021895393805
C   -0.00000059327114      5.65044773803267      0.00045449734393
C   6.13477559217374     -0.68055448207492      0.00042622874941
C   2.47813196269732      5.65357712333155      0.00063835075260
C   1.22142288457925     -4.97012668293268     -0.00129718634452
C   -3.69316190412301      3.54279732619245     -0.00139355922051
C   -1.22142804110313     -4.97011793159564     -0.00140994817719
C   -4.91452132810043      1.42717581899491     -0.00153192130862
C   3.65678749952045     -4.97295485423912      0.00080007163680
C   -2.47813805026426      5.65357479452875      0.00092287576113
C   -3.69314125872231     -3.54278984697859      0.00136564082345
C   -4.91451200321153     -1.42718062802730      0.00139857359209
C   -0.00000552908399     -5.65043791501335      0.00005899322272
C   -4.89302000425900      2.82518897091939     -0.00040227981744
C   2.47812647313991     -5.65357317188818     -0.00029052915548
C   -3.65679823041642      4.97295655404175     -0.00047374852278
C   -4.89299899901461     -2.82519139505969      0.00006491824035
C   -2.47812801824129     -5.65356579800621     -0.00056571680280
C   -6.13477002348955      0.68054913825639     -0.00086464346868
C   -3.65678835334731     -4.97294365097028      0.00058578382008
C   -6.13476456307132     -0.68055354348201      0.00040575295444
H   5.83528897565761      3.36927626695423      0.00396712770529
H   7.07385965258860      1.22821762089947     -0.00037744837300
H   4.60066374401555      5.51238117445323     -0.00014522814529
H   5.83528386714679     -3.36930568472863     -0.00423551337640
H   -0.00001167146422      6.73853104613662     -0.00389474766392
H   7.07386165167227     -1.22822657074368     -0.00008250934481
H   2.47331421164041      6.74068466339473      0.00017162982210
H   4.60066897122302     -5.51237575717576      0.00039007446835
H   -2.47331820069565      6.74068209160650      0.00047297644710
H   -0.00000978838621     -6.73852780445195      0.00458867820736
H   -5.83530143450167      3.36927132229595      0.00410314985360
H   2.47330840367253     -6.74068500242887      0.00027980126949
H   -4.60067436136587      5.51237839860371      0.00002010017831
H   -5.83527902699321     -3.36928859177951     -0.00451481925734
H   -2.47329986759855     -6.74067870613986     -0.00016951527498
H   -7.07385728692578      1.22822084484047     -0.00046143985387
H   -4.60067330624313     -5.51236229778631      0.00021776644566
H   -7.07385645456741     -1.22822025997701     -0.00017736581114

    units angstrom      # Angstroms are the default
    no_reorient         # Geometry fixed, default
    symmetry c1         # C1 symmetry, default
}

set {
    scf_type DF         # Density fitting, faster than exact integrals
    freeze_core True    # Freeze core electrons
    basis jun-cc-pVDZ   # Jun-cc-pVDZ basis set, recommended for sSAPT0 in https://doi.org/10.1063/1.4867135
}

energy('ssapt0')        # Compute sSAPT0 energy, includes also SAPT0
--------------------------------------------------------------------------

  Memory set to  29.802 GiB by Python driver.

Scratch directory: /state/partition1/slurm_tmp/24798303.4294967291.0/
   => Loading Basis Set <=

    Name: JUN-CC-PVDZ
    Role: ORBITAL
    Keyword: BASIS
    atoms 1-2, 4-5, 10, 17-70 entry C          line   164 file /home/gridsan/tfroembgen/.conda/envs/psi4test/share/psi4/basis/jun-cc-pvdz.gbs 
    atoms 3, 6                entry N          line   198 file /home/gridsan/tfroembgen/.conda/envs/psi4test/share/psi4/basis/jun-cc-pvdz.gbs 
    atoms 7-9, 11-16, 71-88   entry H          line    36 file /home/gridsan/tfroembgen/.conda/envs/psi4test/share/psi4/basis/jun-cc-pvdz.gbs 

   => Loading Basis Set <=

    Name: JUN-CC-PVDZ
    Role: ORBITAL
    Keyword: BASIS
    atoms 1-2, 4-5, 10, 17-70 entry C          line   164 file /home/gridsan/tfroembgen/.conda/envs/psi4test/share/psi4/basis/jun-cc-pvdz.gbs 
    atoms 3, 6                entry N          line   198 file /home/gridsan/tfroembgen/.conda/envs/psi4test/share/psi4/basis/jun-cc-pvdz.gbs 
    atoms 7-9, 11-16, 71-88   entry H          line    36 file /home/gridsan/tfroembgen/.conda/envs/psi4test/share/psi4/basis/jun-cc-pvdz.gbs 


  //>>>>>>>>>>>>>>>>>>>>>>>>>>>>>>>>>>>//
  //              Dimer HF             //
  //<<<<<<<<<<<<<<<<<<<<<<<<<<<<<<<<<<<//

   => Libint2 <=

    Primary   basis highest AM E, G, H:  7, 7, 4
    Auxiliary basis highest AM E, G, H:  7, 7, 5
    Onebody   basis highest AM E, G, H:  7, 7, 5
    Solid Harmonics ordering:            gaussian

*** tstart() called on d-6-11-4
*** at Mon Jan 22 22:09:28 2024

   => Loading Basis Set <=

    Name: JUN-CC-PVDZ
    Role: ORBITAL
    Keyword: BASIS
    atoms 1-2, 4-5, 10, 17-70 entry C          line   164 file /home/gridsan/tfroembgen/.conda/envs/psi4test/share/psi4/basis/jun-cc-pvdz.gbs 
    atoms 3, 6                entry N          line   198 file /home/gridsan/tfroembgen/.conda/envs/psi4test/share/psi4/basis/jun-cc-pvdz.gbs 
    atoms 7-9, 11-16, 71-88   entry H          line    36 file /home/gridsan/tfroembgen/.conda/envs/psi4test/share/psi4/basis/jun-cc-pvdz.gbs 


         ---------------------------------------------------------
                                   SCF
               by Justin Turney, Rob Parrish, Andy Simmonett
                          and Daniel G. A. Smith
                              RHF Reference
                       12 Threads,  30517 MiB Core
         ---------------------------------------------------------

  ==> Geometry <==

    Molecular point group: c1
    Full point group: C1

    Geometry (in Angstrom), charge = 1, multiplicity = 1:

       Center              X                  Y                   Z               Mass       
    ------------   -----------------  -----------------  -----------------  -----------------
         C            0.680066520158     1.235968212970    -6.452768084598    12.000000000000
         C           -0.680504479842     1.237996212970    -6.452384084598    12.000000000000
         N           -1.085635479842     1.238994212970    -5.134060084598    14.003074004430
         C            0.000107520158     1.242270212970    -4.352659084598    12.000000000000
         C           -2.477365479842     1.288400212970    -4.666081084598    12.000000000000
         N            1.085221520158     1.238994212970    -5.134060084598    14.003074004430
         H            1.385145520158     1.228140212970    -7.270207084598     1.007825032230
         H           -1.385302479842     1.237806212970    -7.270053084598     1.007825032230
         H           -0.000009479842     1.244017212970    -3.271570084598     1.007825032230
         C            2.478116520158     1.222102212970    -4.668962084598    12.000000000000
         H            2.490591520158     1.249447212970    -3.578709084598     1.007825032230
         H            2.967027520158     0.308656212970    -5.016138084598     1.007825032230
         H            3.001427520158     2.097585212970    -5.060434084598     1.007825032230
         H           -2.857359479842     2.310471212970    -4.746040084598     1.007825032230
         H           -3.082679479842     0.618316212970    -5.279145084598     1.007825032230
         H           -2.518128479842     0.961416212970    -3.626133084598     1.007825032230
         C            1.225311895423     0.526248873889     0.769298542685    12.000000000000
         C            1.225323856051    -0.888828309601     0.756967733115    12.000000000000
         C           -0.000006153932     1.233676499060     0.756434109594    12.000000000000
         C            2.456448753949     1.237038472148     0.772185400085    12.000000000000
         C            0.000010827279    -1.596265913665     0.766633666919    12.000000000000
         C           -1.225300948908     0.526255958954     0.771550063008    12.000000000000
         C            2.456437755320    -1.599612718911     0.754722576258    12.000000000000
         C           -0.000001332978     2.655511616251     0.754030559460    12.000000000000
         C            3.681826697470     0.528028540971     0.755071366056    12.000000000000
         C            2.455120048865     2.652934246459     0.754968809095    12.000000000000
         C            3.681821105219    -0.890623254459     0.771143850074    12.000000000000
         C           -1.225313598688    -0.888816930574     0.758040494542    12.000000000000
         C            1.226699581202     3.362180068964     0.771327882005    12.000000000000
         C            0.000004784858    -3.018071554266     0.771481834540    12.000000000000
         C           -2.456436032848     1.237027503255     0.771585458854    12.000000000000
         C            2.455123417779    -3.015519443619     0.770991941707    12.000000000000
         C           -1.226714364589     3.362179648720     0.771431215225    12.000000000000
         C            4.914517295202     1.245883457459     0.761552049086    12.000000000000
         C            3.693150191476     3.361505877515     0.761601848722    12.000000000000
         C           -2.456437600068    -1.599602695869     0.754697538134    12.000000000000
         C            1.226704841943    -3.724763656937     0.755357751255    12.000000000000
         C           -2.455125398508     2.652927247604     0.754975185442    12.000000000000
         C            4.914524380782    -1.608476324974     0.764524791820    12.000000000000
         C            1.221424613699     4.788844650230     0.764663226080    12.000000000000
         C            4.893008229321     2.643898584996     0.762768717444    12.000000000000
         C           -1.226697008489    -3.724760412107     0.755624955665    12.000000000000
         C           -3.681818976526     0.528035551702     0.755084046536    12.000000000000
         C            3.693147101150    -3.724090756421     0.764642682381    12.000000000000
         C           -1.221432251994     4.788838882833     0.764846721453    12.000000000000
         C            6.134770972926     0.499258532075     0.762321823635    12.000000000000
         C            3.656788880610     4.791663828537     0.762510486504    12.000000000000
         C           -2.455126907733    -3.015504508091     0.770747583909    12.000000000000
         C           -3.681819179061    -0.890615118499     0.771261471653    12.000000000000
         C            4.893012617914    -3.006489520662     0.763379869340    12.000000000000
         C           -0.000001073113     5.469157951002     0.763615412746    12.000000000000
         C            6.134775112332    -0.861844269105     0.763587144151    12.000000000000
         C            2.478131482856     5.472287336301     0.763799266154    12.000000000000
         C            1.221422404738    -5.151416469963     0.761863729057    12.000000000000
         C           -3.693162383965     3.361507539162     0.761767356181    12.000000000000
         C           -1.221428520945    -5.151407718626     0.761750967225    12.000000000000
         C           -4.914521807942     1.245886031965     0.761628994093    12.000000000000
         C            3.656787019679    -5.154244641269     0.763960987039    12.000000000000
         C           -2.478138530106     5.472285007498     0.764083791163    12.000000000000
         C           -3.693141738564    -3.724079634009     0.764526556225    12.000000000000
         C           -4.914512483053    -1.608470415058     0.764559488994    12.000000000000
         C           -0.000006008926    -5.831727702044     0.763219908624    12.000000000000
         C           -4.893020484101     2.643899183889     0.762758635584    12.000000000000
         C            2.478125993298    -5.834862958919     0.762870386246    12.000000000000
         C           -3.656798710258     4.791666767011     0.762687166879    12.000000000000
         C           -4.892999478856    -3.006481182090     0.763225833642    12.000000000000
         C           -2.478128498083    -5.834855585037     0.762595198599    12.000000000000
         C           -6.134770503331     0.499259351226     0.762296271933    12.000000000000
         C           -3.656788833189    -5.154233438001     0.763746699222    12.000000000000
         C           -6.134765042913    -0.861843330512     0.763566668356    12.000000000000
         H            5.835288495816     3.187986479924     0.767128043107     1.007825032230
         H            7.073859172747     1.046927833869     0.762783467029     1.007825032230
         H            4.600663264174     5.331091387423     0.763015687256     1.007825032230
         H            5.835283387305    -3.550595471759     0.758925402025     1.007825032230
         H           -0.000012151306     6.557241259106     0.759266167738     1.007825032230
         H            7.073861171831    -1.409516357774     0.763078406057     1.007825032230
         H            2.473313731799     6.559394876364     0.763332545224     1.007825032230
         H            4.600668491381    -5.693665544206     0.763550989870     1.007825032230
         H           -2.473318680537     6.559392304576     0.763633891849     1.007825032230
         H           -0.000010268228    -6.919817591482     0.767749593609     1.007825032230
         H           -5.835301914343     3.187981535266     0.767264065255     1.007825032230
         H            2.473307923831    -6.921974789459     0.763440716671     1.007825032230
         H           -4.600674841208     5.331088611573     0.763181015580     1.007825032230
         H           -5.835279506835    -3.550578378810     0.758646096144     1.007825032230
         H           -2.473300347440    -6.921968493170     0.762991400127     1.007825032230
         H           -7.073857766768     1.046931057810     0.762699475548     1.007825032230
         H           -4.600673786085    -5.693652084817     0.763378681847     1.007825032230
         H           -7.073856934409    -1.409510047007     0.762983549591     1.007825032230

  Running in c1 symmetry.

  Rotational constants: A =      0.00155  B =      0.00155  C =      0.00107 [cm^-1]
  Rotational constants: A =     46.55512  B =     46.37059  C =     32.12417 [MHz]
  Nuclear repulsion = 8009.189314451039536

  Charge       = 1
  Multiplicity = 1
  Electrons    = 394
  Nalpha       = 197
  Nbeta        = 197

  ==> Algorithm <==

  SCF Algorithm Type is DF.
  DIIS enabled.
  MOM disabled.
  Fractional occupation disabled.
  Guess Type is SAD.
  Energy threshold   = 1.00e-08
  Density threshold  = 1.00e-08
  Integral threshold = 1.00e-12

  ==> Primary Basis <==

  Basis Set: JUN-CC-PVDZ
    Blend: JUN-CC-PVDZ
    Number of shells: 569
    Number of basis functions: 1233
    Number of Cartesian functions: 1294
    Spherical Harmonics?: true
    Max angular momentum: 2

   => Loading Basis Set <=

    Name: (JUN-CC-PVDZ AUX)
    Role: JKFIT
    Keyword: DF_BASIS_SCF
    atoms 1-2, 4-5, 10, 17-70 entry C          line   146 file /home/gridsan/tfroembgen/.conda/envs/psi4test/share/psi4/basis/jun-cc-pvdz-jkfit.gbs 
    atoms 3, 6                entry N          line   202 file /home/gridsan/tfroembgen/.conda/envs/psi4test/share/psi4/basis/jun-cc-pvdz-jkfit.gbs 
    atoms 7-9, 11-16, 71-88   entry H          line    70 file /home/gridsan/tfroembgen/.conda/envs/psi4test/share/psi4/basis/jun-cc-pvdz-jkfit.gbs 

  ==> Integral Setup <==

  ==> DiskDFJK: Density-Fitted J/K Matrices <==

    J tasked:                  Yes
    K tasked:                  Yes
    wK tasked:                  No
    OpenMP threads:             12
    Integrals threads:          12
    Memory [MiB]:            22888
    Algorithm:                Disk
    Integral Cache:           SAVE
    Schwarz Cutoff:          1E-12
    Fitting Condition:       1E-10

   => Auxiliary Basis Set <=

  Basis Set: (JUN-CC-PVDZ AUX)
    Blend: JUN-CC-PVDZ-JKFIT
    Number of shells: 1890
    Number of basis functions: 5440
    Number of Cartesian functions: 6226
    Spherical Harmonics?: true
    Max angular momentum: 3

  Minimum eigenvalue in the overlap matrix is 8.2907451084E-10.
  Reciprocal condition number of the overlap matrix is 3.6818828102E-11.
    Using canonical orthogonalization.
  Overall, 14 of 1233 possible MOs eliminated.


  ==> Pre-Iterations <==

  SCF Guess: Superposition of Atomic Densities via on-the-fly atomic UHF (no occupation information).

   -------------------------
    Irrep   Nso     Nmo    
   -------------------------
     A       1233    1219 
   -------------------------
    Total    1233    1219
   -------------------------

  ==> Iterations <==

                           Total Energy        Delta E     RMS |[F,P]|

   @DF-RHF iter SAD: -2365.40581709952949   -2.36541e+03   0.00000e+00 
   @DF-RHF iter   1: -2358.20223755154575    7.20358e+00   9.45637e-04 ADIIS/DIIS
   @DF-RHF iter   2: -2359.09905596941280   -8.96818e-01   3.20708e-04 ADIIS/DIIS
   @DF-RHF iter   3: -2359.18940224228527   -9.03463e-02   1.17456e-04 ADIIS/DIIS
   @DF-RHF iter   4: -2359.20237348502906   -1.29712e-02   4.33186e-05 DIIS
   @DF-RHF iter   5: -2359.20419770832905   -1.82422e-03   9.32352e-06 DIIS
   @DF-RHF iter   6: -2359.20436756491563   -1.69857e-04   4.75357e-06 DIIS
   @DF-RHF iter   7: -2359.20443063663879   -6.30717e-05   2.16074e-06 DIIS
   @DF-RHF iter   8: -2359.20444985262338   -1.92160e-05   1.13928e-06 DIIS
   @DF-RHF iter   9: -2359.20445426116748   -4.40854e-06   2.68195e-07 DIIS
   @DF-RHF iter  10: -2359.20445450234502   -2.41178e-07   9.45108e-08 DIIS
   @DF-RHF iter  11: -2359.20445452142212   -1.90771e-08   3.80959e-08 DIIS
   @DF-RHF iter  12: -2359.20445452583408   -4.41196e-09   2.15799e-08 DIIS
   @DF-RHF iter  13: -2359.20445452694821   -1.11413e-09   9.75371e-09 DIIS
  Energy and wave function converged.


  ==> Post-Iterations <==

    Orbital Energies [Eh]
    ---------------------

    Doubly Occupied:                                                      

       1A    -15.817036     2A    -15.816533     3A    -11.511400  
       4A    -11.444208     5A    -11.442652     6A    -11.431771  
       7A    -11.431715     8A    -11.331563     9A    -11.330588  
      10A    -11.330252    11A    -11.329576    12A    -11.329357  
      13A    -11.329009    14A    -11.328605    15A    -11.328568  
      16A    -11.327936    17A    -11.327390    18A    -11.327221  
      19A    -11.326456    20A    -11.326434    21A    -11.325945  
      22A    -11.325925    23A    -11.325834    24A    -11.325830  
      25A    -11.325642    26A    -11.325638    27A    -11.325370  
      28A    -11.325347    29A    -11.324757    30A    -11.324745  
      31A    -11.324364    32A    -11.323734    33A    -11.323731  
      34A    -11.322880    35A    -11.322840    36A    -11.322605  
      37A    -11.322602    38A    -11.321929    39A    -11.321843  
      40A    -11.321457    41A    -11.321421    42A    -11.320617  
      43A    -11.320598    44A    -11.318858    45A    -11.317974  
      46A    -11.317965    47A    -11.317900    48A    -11.317892  
      49A    -11.316480    50A    -11.316465    51A    -11.315745  
      52A    -11.315735    53A    -11.315285    54A    -11.315282  
      55A    -11.314191    56A    -11.314182    57A    -11.313773  
      58A    -11.312635    59A    -11.312625    60A    -11.311182  
      61A    -11.311172    62A     -1.560946    63A     -1.416403  
      64A     -1.313022    65A     -1.287344    66A     -1.287050  
      67A     -1.256019    68A     -1.256007    69A     -1.248637  
      70A     -1.223086    71A     -1.221809    72A     -1.215233  
      73A     -1.202811    74A     -1.202621    75A     -1.178593  
      76A     -1.178565    77A     -1.171721    78A     -1.149204  
      79A     -1.149167    80A     -1.145434    81A     -1.131121  
      82A     -1.131083    83A     -1.105152    84A     -1.101299  
      85A     -1.091692    86A     -1.089326    87A     -1.089164  
      88A     -1.082928    89A     -1.077645    90A     -1.053445  
      91A     -1.053381    92A     -1.027257    93A     -1.027233  
      94A     -1.005726    95A     -0.979304    96A     -0.960088  
      97A     -0.959992    98A     -0.955384    99A     -0.953356  
     100A     -0.953236   101A     -0.947794   102A     -0.947725  
     103A     -0.927206   104A     -0.901574   105A     -0.899571  
     106A     -0.883971   107A     -0.883411   108A     -0.878401  
     109A     -0.878325   110A     -0.859523   111A     -0.859496  
     112A     -0.833218   113A     -0.813470   114A     -0.811388  
     115A     -0.799996   116A     -0.799871   117A     -0.799639  
     118A     -0.797091   119A     -0.796963   120A     -0.794785  
     121A     -0.782342   122A     -0.773233   123A     -0.768875  
     124A     -0.765616   125A     -0.764441   126A     -0.764264  
     127A     -0.759438   128A     -0.759272   129A     -0.726054  
     130A     -0.719145   131A     -0.717708   132A     -0.714889  
     133A     -0.714874   134A     -0.711565   135A     -0.707802  
     136A     -0.704507   137A     -0.704484   138A     -0.699870  
     139A     -0.695664   140A     -0.693476   141A     -0.693458  
     142A     -0.676421   143A     -0.668767   144A     -0.667910  
     145A     -0.664928   146A     -0.664771   147A     -0.659874  
     148A     -0.657812   149A     -0.657748   150A     -0.649134  
     151A     -0.644479   152A     -0.643998   153A     -0.632327  
     154A     -0.632159   155A     -0.631626   156A     -0.631536  
     157A     -0.624855   158A     -0.619419   159A     -0.619315  
     160A     -0.604879   161A     -0.604862   162A     -0.603366  
     163A     -0.603170   164A     -0.596457   165A     -0.594913  
     166A     -0.588210   167A     -0.588100   168A     -0.579340  
     169A     -0.565024   170A     -0.561043   171A     -0.558070  
     172A     -0.554100   173A     -0.551077   174A     -0.547287  
     175A     -0.547146   176A     -0.538157   177A     -0.537913  
     178A     -0.517820   179A     -0.517625   180A     -0.507685  
     181A     -0.504258   182A     -0.504218   183A     -0.471884  
     184A     -0.471877   185A     -0.470678   186A     -0.440195  
     187A     -0.440185   188A     -0.415102   189A     -0.406319  
     190A     -0.405355   191A     -0.405238   192A     -0.376538  
     193A     -0.362194   194A     -0.351682   195A     -0.351592  
     196A     -0.290804   197A     -0.290697  

    Virtual:                                                              

     198A     -0.051965   199A     -0.051918   200A     -0.051001  
     201A     -0.047054   202A     -0.041020   203A     -0.029934  
     204A     -0.019181   205A     -0.018001   206A     -0.014981  
     207A     -0.006948   208A     -0.003023   209A     -0.002457  
     210A     -0.002312   211A     -0.002172   212A      0.000728  
     213A      0.002274   214A      0.002863   215A      0.006401  
     216A      0.007866   217A      0.008675   218A      0.012818  
     219A      0.013080   220A      0.016336   221A      0.018254  
     222A      0.020642   223A      0.022139   224A      0.022719  
     225A      0.023989   226A      0.024069   227A      0.024305  
     228A      0.025869   229A      0.033109   230A      0.034605  
     231A      0.035046   232A      0.036654   233A      0.038926  
     234A      0.039120   235A      0.040470   236A      0.042127  
     237A      0.051366   238A      0.052272   239A      0.053615  
     240A      0.055366   241A      0.055513   242A      0.058149  
     243A      0.058618   244A      0.060918   245A      0.061593  
     246A      0.064831   247A      0.066047   248A      0.066248  
     249A      0.072518   250A      0.074253   251A      0.076986  
     252A      0.077294   253A      0.077719   254A      0.080499  
     255A      0.081663   256A      0.081724   257A      0.085220  
     258A      0.088460   259A      0.090658   260A      0.091690  
     261A      0.095953   262A      0.097037   263A      0.097907  
     264A      0.098701   265A      0.102248   266A      0.103736  
     267A      0.104345   268A      0.106217   269A      0.106933  
     270A      0.114786   271A      0.115772   272A      0.116762  
     273A      0.117712   274A      0.120885   275A      0.122205  
     276A      0.123354   277A      0.124779   278A      0.126455  
     279A      0.126723   280A      0.130008   281A      0.130153  
     282A      0.132120   283A      0.134263   284A      0.136067  
     285A      0.138236   286A      0.139214   287A      0.141719  
     288A      0.142882   289A      0.145265   290A      0.147988  
     291A      0.152289   292A      0.153213   293A      0.153878  
     294A      0.154373   295A      0.155811   296A      0.156440  
     297A      0.156715   298A      0.156976   299A      0.158091  
     300A      0.161448   301A      0.162865   302A      0.163895  
     303A      0.165297   304A      0.167087   305A      0.167238  
     306A      0.169728   307A      0.171163   308A      0.171366  
     309A      0.172649   310A      0.175694   311A      0.176687  
     312A      0.177328   313A      0.177687   314A      0.178540  
     315A      0.180666   316A      0.181072   317A      0.181583  
     318A      0.183807   319A      0.185959   320A      0.186060  
     321A      0.192341   322A      0.193205   323A      0.194773  
     324A      0.195463   325A      0.197053   326A      0.197238  
     327A      0.198022   328A      0.199161   329A      0.200250  
     330A      0.204381   331A      0.205995   332A      0.206654  
     333A      0.207408   334A      0.208884   335A      0.210126  
     336A      0.212289   337A      0.212377   338A      0.213576  
     339A      0.214269   340A      0.216570   341A      0.221366  
     342A      0.221989   343A      0.223055   344A      0.226721  
     345A      0.228992   346A      0.230234   347A      0.232446  
     348A      0.238484   349A      0.240499   350A      0.241005  
     351A      0.242260   352A      0.243798   353A      0.244530  
     354A      0.245747   355A      0.247531   356A      0.248580  
     357A      0.248798   358A      0.249406   359A      0.250147  
     360A      0.250933   361A      0.252783   362A      0.253827  
     363A      0.254258   364A      0.254828   365A      0.256459  
     366A      0.256653   367A      0.257904   368A      0.260438  
     369A      0.260899   370A      0.261406   371A      0.262408  
     372A      0.264011   373A      0.268075   374A      0.270255  
     375A      0.270457   376A      0.271096   377A      0.276163  
     378A      0.276956   379A      0.281149   380A      0.281967  
     381A      0.282799   382A      0.284118   383A      0.284399  
     384A      0.286282   385A      0.287554   386A      0.291055  
     387A      0.291588   388A      0.292253   389A      0.293730  
     390A      0.294405   391A      0.294697   392A      0.297772  
     393A      0.300975   394A      0.302642   395A      0.303067  
     396A      0.306561   397A      0.307009   398A      0.309080  
     399A      0.310897   400A      0.312970   401A      0.313558  
     402A      0.316071   403A      0.319185   404A      0.320881  
     405A      0.322338   406A      0.324152   407A      0.326066  
     408A      0.326973   409A      0.327644   410A      0.327709  
     411A      0.328640   412A      0.330625   413A      0.330980  
     414A      0.333062   415A      0.334149   416A      0.335720  
     417A      0.336152   418A      0.338907   419A      0.341182  
     420A      0.341891   421A      0.344085   422A      0.344425  
     423A      0.345699   424A      0.346142   425A      0.347211  
     426A      0.348218   427A      0.348417   428A      0.350718  
     429A      0.354999   430A      0.356110   431A      0.357705  
     432A      0.359666   433A      0.360593   434A      0.361320  
     435A      0.363162   436A      0.365601   437A      0.368225  
     438A      0.372529   439A      0.373838   440A      0.378975  
     441A      0.379956   442A      0.380168   443A      0.380753  
     444A      0.381384   445A      0.382302   446A      0.386661  
     447A      0.387846   448A      0.390386   449A      0.391522  
     450A      0.392173   451A      0.392873   452A      0.395709  
     453A      0.397053   454A      0.398552   455A      0.399600  
     456A      0.400180   457A      0.402737   458A      0.406542  
     459A      0.409350   460A      0.409859   461A      0.411059  
     462A      0.411684   463A      0.413492   464A      0.417526  
     465A      0.418104   466A      0.419784   467A      0.421157  
     468A      0.421384   469A      0.430225   470A      0.430653  
     471A      0.432457   472A      0.433701   473A      0.434388  
     474A      0.435457   475A      0.436739   476A      0.437409  
     477A      0.438853   478A      0.443342   479A      0.445976  
     480A      0.448974   481A      0.450663   482A      0.450907  
     483A      0.451296   484A      0.455810   485A      0.457075  
     486A      0.461697   487A      0.462259   488A      0.463852  
     489A      0.473456   490A      0.473904   491A      0.475065  
     492A      0.476625   493A      0.479888   494A      0.482903  
     495A      0.485027   496A      0.485780   497A      0.486114  
     498A      0.486481   499A      0.488914   500A      0.491742  
     501A      0.492566   502A      0.493256   503A      0.494801  
     504A      0.497930   505A      0.498543   506A      0.501131  
     507A      0.505593   508A      0.513778   509A      0.515436  
     510A      0.525009   511A      0.526903   512A      0.532312  
     513A      0.532759   514A      0.533205   515A      0.537134  
     516A      0.540395   517A      0.549477   518A      0.550095  
     519A      0.554254   520A      0.556519   521A      0.562570  
     522A      0.562934   523A      0.578125   524A      0.582391  
     525A      0.587841   526A      0.589534   527A      0.601771  
     528A      0.602534   529A      0.605028   530A      0.612366  
     531A      0.612816   532A      0.617834   533A      0.628449  
     534A      0.650840   535A      0.651499   536A      0.659310  
     537A      0.663157   538A      0.675850   539A      0.677752  
     540A      0.678590   541A      0.679350   542A      0.680362  
     543A      0.681547   544A      0.687313   545A      0.690918  
     546A      0.692770   547A      0.692890   548A      0.696589  
     549A      0.707413   550A      0.708515   551A      0.717628  
     552A      0.725408   553A      0.727331   554A      0.731053  
     555A      0.732613   556A      0.733450   557A      0.734016  
     558A      0.740327   559A      0.743782   560A      0.745668  
     561A      0.747310   562A      0.751377   563A      0.757582  
     564A      0.758521   565A      0.763457   566A      0.764324  
     567A      0.765553   568A      0.768170   569A      0.768887  
     570A      0.776276   571A      0.779685   572A      0.787619  
     573A      0.790225   574A      0.791710   575A      0.793648  
     576A      0.796672   577A      0.798171   578A      0.799796  
     579A      0.801724   580A      0.805162   581A      0.807350  
     582A      0.808770   583A      0.814240   584A      0.815286  
     585A      0.817171   586A      0.818435   587A      0.819821  
     588A      0.823434   589A      0.825038   590A      0.826663  
     591A      0.828758   592A      0.834219   593A      0.835288  
     594A      0.837195   595A      0.839068   596A      0.843629  
     597A      0.845461   598A      0.846976   599A      0.848630  
     600A      0.850431   601A      0.851540   602A      0.853812  
     603A      0.856558   604A      0.859037   605A      0.859268  
     606A      0.865395   607A      0.865939   608A      0.867356  
     609A      0.868293   610A      0.873247   611A      0.873996  
     612A      0.876183   613A      0.879795   614A      0.882310  
     615A      0.884141   616A      0.888365   617A      0.890810  
     618A      0.893757   619A      0.895012   620A      0.899316  
     621A      0.901329   622A      0.905040   623A      0.907668  
     624A      0.909111   625A      0.909372   626A      0.910386  
     627A      0.911294   628A      0.913300   629A      0.914736  
     630A      0.915042   631A      0.917586   632A      0.921035  
     633A      0.923984   634A      0.926678   635A      0.930480  
     636A      0.935523   637A      0.937833   638A      0.939696  
     639A      0.941370   640A      0.949746   641A      0.951154  
     642A      0.954244   643A      0.954582   644A      0.956564  
     645A      0.956797   646A      0.963675   647A      0.969742  
     648A      0.970258   649A      0.971417   650A      0.973137  
     651A      0.977585   652A      0.978074   653A      0.978378  
     654A      0.979833   655A      0.980098   656A      0.981412  
     657A      0.981844   658A      0.983205   659A      0.985252  
     660A      0.986170   661A      0.991489   662A      0.992279  
     663A      0.993414   664A      0.994025   665A      0.997002  
     666A      0.997611   667A      0.999130   668A      1.004101  
     669A      1.007774   670A      1.009002   671A      1.011178  
     672A      1.011707   673A      1.016777   674A      1.019076  
     675A      1.021830   676A      1.022237   677A      1.024859  
     678A      1.025725   679A      1.027295   680A      1.030405  
     681A      1.033435   682A      1.034438   683A      1.038793  
     684A      1.039691   685A      1.040830   686A      1.044530  
     687A      1.046050   688A      1.049231   689A      1.050761  
     690A      1.051635   691A      1.053858   692A      1.056222  
     693A      1.058666   694A      1.059466   695A      1.061652  
     696A      1.063547   697A      1.066511   698A      1.069789  
     699A      1.071241   700A      1.074280   701A      1.074762  
     702A      1.075848   703A      1.079210   704A      1.079733  
     705A      1.082946   706A      1.084588   707A      1.089868  
     708A      1.094586   709A      1.103340   710A      1.108301  
     711A      1.109816   712A      1.112776   713A      1.114526  
     714A      1.118495   715A      1.119605   716A      1.120381  
     717A      1.124512   718A      1.128997   719A      1.134916  
     720A      1.135194   721A      1.138243   722A      1.139656  
     723A      1.147379   724A      1.153641   725A      1.155679  
     726A      1.155965   727A      1.156874   728A      1.159522  
     729A      1.160902   730A      1.170279   731A      1.170913  
     732A      1.175236   733A      1.178030   734A      1.178674  
     735A      1.187009   736A      1.195219   737A      1.196965  
     738A      1.197847   739A      1.199032   740A      1.199907  
     741A      1.201899   742A      1.202752   743A      1.204707  
     744A      1.205751   745A      1.214707   746A      1.219005  
     747A      1.225413   748A      1.230911   749A      1.232429  
     750A      1.233924   751A      1.237531   752A      1.239421  
     753A      1.242462   754A      1.246472   755A      1.247230  
     756A      1.248144   757A      1.252869   758A      1.256993  
     759A      1.259949   760A      1.261035   761A      1.262881  
     762A      1.264998   763A      1.265234   764A      1.272430  
     765A      1.279294   766A      1.281711   767A      1.282807  
     768A      1.283840   769A      1.287303   770A      1.288298  
     771A      1.288628   772A      1.294673   773A      1.295218  
     774A      1.298288   775A      1.299303   776A      1.302675  
     777A      1.308334   778A      1.317233   779A      1.326457  
     780A      1.332702   781A      1.336223   782A      1.339056  
     783A      1.342175   784A      1.344650   785A      1.345635  
     786A      1.349013   787A      1.349508   788A      1.353584  
     789A      1.358251   790A      1.360882   791A      1.362183  
     792A      1.364395   793A      1.367344   794A      1.370411  
     795A      1.371698   796A      1.373545   797A      1.374938  
     798A      1.375452   799A      1.376951   800A      1.378780  
     801A      1.386182   802A      1.387166   803A      1.387240  
     804A      1.390932   805A      1.398152   806A      1.398797  
     807A      1.410875   808A      1.412845   809A      1.418593  
     810A      1.452892   811A      1.453086   812A      1.455230  
     813A      1.455414   814A      1.458197   815A      1.470514  
     816A      1.485853   817A      1.496798   818A      1.502105  
     819A      1.512885   820A      1.526349   821A      1.532059  
     822A      1.534708   823A      1.535077   824A      1.541187  
     825A      1.542445   826A      1.542901   827A      1.544758  
     828A      1.545948   829A      1.547593   830A      1.550995  
     831A      1.556941   832A      1.559093   833A      1.566680  
     834A      1.566748   835A      1.575251   836A      1.576696  
     837A      1.577213   838A      1.578070   839A      1.578403  
     840A      1.579683   841A      1.586580   842A      1.590303  
     843A      1.595757   844A      1.595932   845A      1.602238  
     846A      1.608592   847A      1.609026   848A      1.610289  
     849A      1.612066   850A      1.612622   851A      1.618693  
     852A      1.620796   853A      1.620964   854A      1.630762  
     855A      1.631048   856A      1.632960   857A      1.634394  
     858A      1.634789   859A      1.635996   860A      1.637285  
     861A      1.637383   862A      1.644510   863A      1.651609  
     864A      1.651952   865A      1.675748   866A      1.684861  
     867A      1.691029   868A      1.692838   869A      1.695725  
     870A      1.696855   871A      1.696981   872A      1.699825  
     873A      1.710693   874A      1.711643   875A      1.714080  
     876A      1.726370   877A      1.726556   878A      1.733827  
     879A      1.749845   880A      1.752359   881A      1.753422  
     882A      1.755139   883A      1.757585   884A      1.757911  
     885A      1.761844   886A      1.766243   887A      1.766720  
     888A      1.774450   889A      1.775814   890A      1.775999  
     891A      1.778718   892A      1.784741   893A      1.787102  
     894A      1.797322   895A      1.797802   896A      1.798947  
     897A      1.800113   898A      1.800506   899A      1.803654  
     900A      1.807665   901A      1.813457   902A      1.813502  
     903A      1.820668   904A      1.830246   905A      1.830872  
     906A      1.832700   907A      1.835757   908A      1.839115  
     909A      1.839330   910A      1.840706   911A      1.842888  
     912A      1.844784   913A      1.847658   914A      1.851449  
     915A      1.851896   916A      1.853229   917A      1.853515  
     918A      1.853877   919A      1.856421   920A      1.856755  
     921A      1.871182   922A      1.874839   923A      1.878823  
     924A      1.879419   925A      1.881262   926A      1.884395  
     927A      1.885791   928A      1.887903   929A      1.888897  
     930A      1.890175   931A      1.891465   932A      1.892392  
     933A      1.893054   934A      1.903007   935A      1.914321  
     936A      1.917304   937A      1.917683   938A      1.927499  
     939A      1.928208   940A      1.929736   941A      1.932055  
     942A      1.935816   943A      1.936416   944A      1.941959  
     945A      1.945380   946A      1.948870   947A      1.949334  
     948A      1.961651   949A      1.964692   950A      1.965457  
     951A      1.966577   952A      1.966961   953A      1.967701  
     954A      1.970148   955A      1.983027   956A      1.985096  
     957A      1.987536   958A      1.988886   959A      1.992112  
     960A      1.993817   961A      1.997261   962A      1.997955  
     963A      2.002391   964A      2.004748   965A      2.006200  
     966A      2.007647   967A      2.009527   968A      2.013684  
     969A      2.014640   970A      2.019710   971A      2.020079  
     972A      2.023101   973A      2.028692   974A      2.030404  
     975A      2.032215   976A      2.035070   977A      2.035969  
     978A      2.036279   979A      2.043399   980A      2.044064  
     981A      2.044369   982A      2.045885   983A      2.046230  
     984A      2.047428   985A      2.047916   986A      2.051396  
     987A      2.054278   988A      2.054610   989A      2.056264  
     990A      2.056546   991A      2.062679   992A      2.063253  
     993A      2.068250   994A      2.069678   995A      2.071935  
     996A      2.072302   997A      2.073200   998A      2.078574  
     999A      2.078842  1000A      2.091305  1001A      2.092459  
    1002A      2.093855  1003A      2.096358  1004A      2.097434  
    1005A      2.097461  1006A      2.104636  1007A      2.114719  
    1008A      2.115889  1009A      2.126035  1010A      2.127039  
    1011A      2.127622  1012A      2.127817  1013A      2.127998  
    1014A      2.131450  1015A      2.137569  1016A      2.146547  
    1017A      2.153406  1018A      2.153624  1019A      2.154180  
    1020A      2.159818  1021A      2.161633  1022A      2.163226  
    1023A      2.164197  1024A      2.167587  1025A      2.179397  
    1026A      2.180130  1027A      2.180897  1028A      2.181844  
    1029A      2.183225  1030A      2.185220  1031A      2.187180  
    1032A      2.196992  1033A      2.197155  1034A      2.205565  
    1035A      2.205740  1036A      2.208327  1037A      2.208673  
    1038A      2.217943  1039A      2.218648  1040A      2.236073  
    1041A      2.241945  1042A      2.246079  1043A      2.246917  
    1044A      2.248321  1045A      2.255399  1046A      2.257385  
    1047A      2.263270  1048A      2.263449  1049A      2.265369  
    1050A      2.267865  1051A      2.277538  1052A      2.285343  
    1053A      2.286232  1054A      2.287279  1055A      2.288228  
    1056A      2.300414  1057A      2.300617  1058A      2.307502  
    1059A      2.315270  1060A      2.319164  1061A      2.351902  
    1062A      2.353990  1063A      2.358104  1064A      2.359096  
    1065A      2.359266  1066A      2.365252  1067A      2.371906  
    1068A      2.375076  1069A      2.375612  1070A      2.404520  
    1071A      2.409656  1072A      2.409946  1073A      2.421051  
    1074A      2.421187  1075A      2.436934  1076A      2.455294  
    1077A      2.464474  1078A      2.465512  1079A      2.470100  
    1080A      2.480130  1081A      2.481403  1082A      2.481894  
    1083A      2.487498  1084A      2.490496  1085A      2.491931  
    1086A      2.492115  1087A      2.494694  1088A      2.494947  
    1089A      2.507342  1090A      2.507398  1091A      2.512085  
    1092A      2.512366  1093A      2.518026  1094A      2.520885  
    1095A      2.521708  1096A      2.522213  1097A      2.524843  
    1098A      2.528473  1099A      2.542833  1100A      2.559857  
    1101A      2.560050  1102A      2.561033  1103A      2.565746  
    1104A      2.566442  1105A      2.577366  1106A      2.577575  
    1107A      2.587499  1108A      2.588333  1109A      2.592581  
    1110A      2.599038  1111A      2.616663  1112A      2.618192  
    1113A      2.619235  1114A      2.624378  1115A      2.630947  
    1116A      2.634551  1117A      2.635023  1118A      2.646513  
    1119A      2.646691  1120A      2.652506  1121A      2.652679  
    1122A      2.656800  1123A      2.658287  1124A      2.668814  
    1125A      2.673433  1126A      2.686668  1127A      2.689443  
    1128A      2.689904  1129A      2.709501  1130A      2.710893  
    1131A      2.726618  1132A      2.728076  1133A      2.729926  
    1134A      2.730142  1135A      2.732048  1136A      2.751765  
    1137A      2.756870  1138A      2.761108  1139A      2.763960  
    1140A      2.773945  1141A      2.787027  1142A      2.788185  
    1143A      2.788299  1144A      2.790535  1145A      2.794404  
    1146A      2.794923  1147A      2.804211  1148A      2.830651  
    1149A      2.854679  1150A      2.855076  1151A      2.859986  
    1152A      2.870486  1153A      2.870674  1154A      2.885332  
    1155A      2.886118  1156A      2.899076  1157A      2.933986  
    1158A      2.943388  1159A      2.944863  1160A      2.948592  
    1161A      2.965808  1162A      2.996814  1163A      2.997266  
    1164A      2.999257  1165A      3.005324  1166A      3.005395  
    1167A      3.045563  1168A      3.046843  1169A      3.064559  
    1170A      3.065178  1171A      3.065613  1172A      3.069210  
    1173A      3.072941  1174A      3.081087  1175A      3.081320  
    1176A      3.083787  1177A      3.084316  1178A      3.085505  
    1179A      3.085830  1180A      3.094690  1181A      3.095391  
    1182A      3.102209  1183A      3.102692  1184A      3.128094  
    1185A      3.147751  1186A      3.153585  1187A      3.173485  
    1188A      3.207701  1189A      3.211191  1190A      3.211406  
    1191A      3.217706  1192A      3.218288  1193A      3.350145  
    1194A      3.350864  1195A      3.372055  1196A      3.415263  
    1197A      3.417893  1198A      3.459994  1199A      3.482419  
    1200A      3.510372  1201A      3.512187  1202A      3.526868  
    1203A      3.546449  1204A      3.560863  1205A      3.563458  
    1206A      3.597625  1207A      3.604883  1208A      3.702985  
    1209A      3.716164  1210A      3.717506  1211A      3.806070  
    1212A      3.806202  1213A      3.848150  1214A      3.848261  
    1215A      3.910007  1216A      3.943845  1217A      3.965100  
    1218A      3.983499  1219A      4.015054  

    Final Occupation by Irrep:
              A 
    DOCC [   197 ]
    NA   [   197 ]
    NB   [   197 ]

  @DF-RHF Final Energy: -2359.20445452694821

   => Energetics <=

    Nuclear Repulsion Energy =           8009.1893144510395359
    One-Electron Energy =              -19121.3730199809069745
    Two-Electron Energy =                8752.9792510029183177
    Total Energy =                      -2359.2044545269491209

Computation Completed


Properties will be evaluated at   0.000000,   0.000000,   0.000000 [a0]

Properties computed using the SCF density matrix


 Multipole Moments:

 ------------------------------------------------------------------------------------
     Multipole            Electronic (a.u.)      Nuclear  (a.u.)        Total (a.u.)
 ------------------------------------------------------------------------------------

 L = 1.  Multiply by 2.5417464519 to convert [e a0] to [Debye]
 Dipole X            :         -0.0019850            0.0006313           -0.0013537
 Dipole Y            :         -5.7553506            7.4856329            1.7302823
 Dipole Z            :         21.0475489          -29.3892626           -8.3417137
 Magnitude           :                                                    8.5192761

 ------------------------------------------------------------------------------------

*** tstop() called on d-6-11-4 at Mon Jan 22 22:39:13 2024
Module time:
	user time   =    4333.05 seconds =      72.22 minutes
	system time =     328.03 seconds =       5.47 minutes
	total time  =       1785 seconds =      29.75 minutes
Total time:
	user time   =    4333.05 seconds =      72.22 minutes
	system time =     328.03 seconds =       5.47 minutes
	total time  =       1785 seconds =      29.75 minutes

  //>>>>>>>>>>>>>>>>>>>>>>>>>>>>>>>>>>>//
  //            Monomer A HF           //
  //<<<<<<<<<<<<<<<<<<<<<<<<<<<<<<<<<<<//

   => Libint2 <=

    Primary   basis highest AM E, G, H:  7, 7, 4
    Auxiliary basis highest AM E, G, H:  7, 7, 5
    Onebody   basis highest AM E, G, H:  7, 7, 5
    Solid Harmonics ordering:            gaussian

*** tstart() called on d-6-11-4
*** at Mon Jan 22 22:39:13 2024

   => Loading Basis Set <=

    Name: JUN-CC-PVDZ
    Role: ORBITAL
    Keyword: BASIS
    atoms 1-2, 4-5, 10, 17-70 entry C          line   164 file /home/gridsan/tfroembgen/.conda/envs/psi4test/share/psi4/basis/jun-cc-pvdz.gbs 
    atoms 3, 6                entry N          line   198 file /home/gridsan/tfroembgen/.conda/envs/psi4test/share/psi4/basis/jun-cc-pvdz.gbs 
    atoms 7-9, 11-16, 71-88   entry H          line    36 file /home/gridsan/tfroembgen/.conda/envs/psi4test/share/psi4/basis/jun-cc-pvdz.gbs 


         ---------------------------------------------------------
                                   SCF
               by Justin Turney, Rob Parrish, Andy Simmonett
                          and Daniel G. A. Smith
                              RHF Reference
                       12 Threads,  30517 MiB Core
         ---------------------------------------------------------

  ==> Geometry <==

    Molecular point group: c1
    Full point group: C1

    Geometry (in Angstrom), charge = 1, multiplicity = 1:

       Center              X                  Y                   Z               Mass       
    ------------   -----------------  -----------------  -----------------  -----------------
         C            0.680066520158     1.235968212970    -6.452768084598    12.000000000000
         C           -0.680504479842     1.237996212970    -6.452384084598    12.000000000000
         N           -1.085635479842     1.238994212970    -5.134060084598    14.003074004430
         C            0.000107520158     1.242270212970    -4.352659084598    12.000000000000
         C           -2.477365479842     1.288400212970    -4.666081084598    12.000000000000
         N            1.085221520158     1.238994212970    -5.134060084598    14.003074004430
         H            1.385145520158     1.228140212970    -7.270207084598     1.007825032230
         H           -1.385302479842     1.237806212970    -7.270053084598     1.007825032230
         H           -0.000009479842     1.244017212970    -3.271570084598     1.007825032230
         C            2.478116520158     1.222102212970    -4.668962084598    12.000000000000
         H            2.490591520158     1.249447212970    -3.578709084598     1.007825032230
         H            2.967027520158     0.308656212970    -5.016138084598     1.007825032230
         H            3.001427520158     2.097585212970    -5.060434084598     1.007825032230
         H           -2.857359479842     2.310471212970    -4.746040084598     1.007825032230
         H           -3.082679479842     0.618316212970    -5.279145084598     1.007825032230
         H           -2.518128479842     0.961416212970    -3.626133084598     1.007825032230
      Gh(C)           1.225311895423     0.526248873889     0.769298542685    12.000000000000
      Gh(C)           1.225323856051    -0.888828309601     0.756967733115    12.000000000000
      Gh(C)          -0.000006153932     1.233676499060     0.756434109594    12.000000000000
      Gh(C)           2.456448753949     1.237038472148     0.772185400085    12.000000000000
      Gh(C)           0.000010827279    -1.596265913665     0.766633666919    12.000000000000
      Gh(C)          -1.225300948908     0.526255958954     0.771550063008    12.000000000000
      Gh(C)           2.456437755320    -1.599612718911     0.754722576258    12.000000000000
      Gh(C)          -0.000001332978     2.655511616251     0.754030559460    12.000000000000
      Gh(C)           3.681826697470     0.528028540971     0.755071366056    12.000000000000
      Gh(C)           2.455120048865     2.652934246459     0.754968809095    12.000000000000
      Gh(C)           3.681821105219    -0.890623254459     0.771143850074    12.000000000000
      Gh(C)          -1.225313598688    -0.888816930574     0.758040494542    12.000000000000
      Gh(C)           1.226699581202     3.362180068964     0.771327882005    12.000000000000
      Gh(C)           0.000004784858    -3.018071554266     0.771481834540    12.000000000000
      Gh(C)          -2.456436032848     1.237027503255     0.771585458854    12.000000000000
      Gh(C)           2.455123417779    -3.015519443619     0.770991941707    12.000000000000
      Gh(C)          -1.226714364589     3.362179648720     0.771431215225    12.000000000000
      Gh(C)           4.914517295202     1.245883457459     0.761552049086    12.000000000000
      Gh(C)           3.693150191476     3.361505877515     0.761601848722    12.000000000000
      Gh(C)          -2.456437600068    -1.599602695869     0.754697538134    12.000000000000
      Gh(C)           1.226704841943    -3.724763656937     0.755357751255    12.000000000000
      Gh(C)          -2.455125398508     2.652927247604     0.754975185442    12.000000000000
      Gh(C)           4.914524380782    -1.608476324974     0.764524791820    12.000000000000
      Gh(C)           1.221424613699     4.788844650230     0.764663226080    12.000000000000
      Gh(C)           4.893008229321     2.643898584996     0.762768717444    12.000000000000
      Gh(C)          -1.226697008489    -3.724760412107     0.755624955665    12.000000000000
      Gh(C)          -3.681818976526     0.528035551702     0.755084046536    12.000000000000
      Gh(C)           3.693147101150    -3.724090756421     0.764642682381    12.000000000000
      Gh(C)          -1.221432251994     4.788838882833     0.764846721453    12.000000000000
      Gh(C)           6.134770972926     0.499258532075     0.762321823635    12.000000000000
      Gh(C)           3.656788880610     4.791663828537     0.762510486504    12.000000000000
      Gh(C)          -2.455126907733    -3.015504508091     0.770747583909    12.000000000000
      Gh(C)          -3.681819179061    -0.890615118499     0.771261471653    12.000000000000
      Gh(C)           4.893012617914    -3.006489520662     0.763379869340    12.000000000000
      Gh(C)          -0.000001073113     5.469157951002     0.763615412746    12.000000000000
      Gh(C)           6.134775112332    -0.861844269105     0.763587144151    12.000000000000
      Gh(C)           2.478131482856     5.472287336301     0.763799266154    12.000000000000
      Gh(C)           1.221422404738    -5.151416469963     0.761863729057    12.000000000000
      Gh(C)          -3.693162383965     3.361507539162     0.761767356181    12.000000000000
      Gh(C)          -1.221428520945    -5.151407718626     0.761750967225    12.000000000000
      Gh(C)          -4.914521807942     1.245886031965     0.761628994093    12.000000000000
      Gh(C)           3.656787019679    -5.154244641269     0.763960987039    12.000000000000
      Gh(C)          -2.478138530106     5.472285007498     0.764083791163    12.000000000000
      Gh(C)          -3.693141738564    -3.724079634009     0.764526556225    12.000000000000
      Gh(C)          -4.914512483053    -1.608470415058     0.764559488994    12.000000000000
      Gh(C)          -0.000006008926    -5.831727702044     0.763219908624    12.000000000000
      Gh(C)          -4.893020484101     2.643899183889     0.762758635584    12.000000000000
      Gh(C)           2.478125993298    -5.834862958919     0.762870386246    12.000000000000
      Gh(C)          -3.656798710258     4.791666767011     0.762687166879    12.000000000000
      Gh(C)          -4.892999478856    -3.006481182090     0.763225833642    12.000000000000
      Gh(C)          -2.478128498083    -5.834855585037     0.762595198599    12.000000000000
      Gh(C)          -6.134770503331     0.499259351226     0.762296271933    12.000000000000
      Gh(C)          -3.656788833189    -5.154233438001     0.763746699222    12.000000000000
      Gh(C)          -6.134765042913    -0.861843330512     0.763566668356    12.000000000000
      Gh(H)           5.835288495816     3.187986479924     0.767128043107     1.007825032230
      Gh(H)           7.073859172747     1.046927833869     0.762783467029     1.007825032230
      Gh(H)           4.600663264174     5.331091387423     0.763015687256     1.007825032230
      Gh(H)           5.835283387305    -3.550595471759     0.758925402025     1.007825032230
      Gh(H)          -0.000012151306     6.557241259106     0.759266167738     1.007825032230
      Gh(H)           7.073861171831    -1.409516357774     0.763078406057     1.007825032230
      Gh(H)           2.473313731799     6.559394876364     0.763332545224     1.007825032230
      Gh(H)           4.600668491381    -5.693665544206     0.763550989870     1.007825032230
      Gh(H)          -2.473318680537     6.559392304576     0.763633891849     1.007825032230
      Gh(H)          -0.000010268228    -6.919817591482     0.767749593609     1.007825032230
      Gh(H)          -5.835301914343     3.187981535266     0.767264065255     1.007825032230
      Gh(H)           2.473307923831    -6.921974789459     0.763440716671     1.007825032230
      Gh(H)          -4.600674841208     5.331088611573     0.763181015580     1.007825032230
      Gh(H)          -5.835279506835    -3.550578378810     0.758646096144     1.007825032230
      Gh(H)          -2.473300347440    -6.921968493170     0.762991400127     1.007825032230
      Gh(H)          -7.073857766768     1.046931057810     0.762699475548     1.007825032230
      Gh(H)          -4.600673786085    -5.693652084817     0.763378681847     1.007825032230
      Gh(H)          -7.073856934409    -1.409510047007     0.762983549591     1.007825032230

  Running in c1 symmetry.

  Rotational constants: A =      0.00155  B =      0.00155  C =      0.00107 [cm^-1]
  Rotational constants: A =     46.55512  B =     46.37059  C =     32.12417 [MHz]
  Nuclear repulsion =  306.774908447733139

  Charge       = 1
  Multiplicity = 1
  Electrons    = 52
  Nalpha       = 26
  Nbeta        = 26

  ==> Algorithm <==

  SCF Algorithm Type is DF.
  DIIS enabled.
  MOM disabled.
  Fractional occupation disabled.
  Guess Type is SAD.
  Energy threshold   = 1.00e-08
  Density threshold  = 1.00e-08
  Integral threshold = 1.00e-12

  ==> Primary Basis <==

  Basis Set: JUN-CC-PVDZ
    Blend: JUN-CC-PVDZ
    Number of shells: 569
    Number of basis functions: 1233
    Number of Cartesian functions: 1294
    Spherical Harmonics?: true
    Max angular momentum: 2

   => Loading Basis Set <=

    Name: (JUN-CC-PVDZ AUX)
    Role: JKFIT
    Keyword: DF_BASIS_SCF
    atoms 1-2, 4-5, 10, 17-70 entry C          line   146 file /home/gridsan/tfroembgen/.conda/envs/psi4test/share/psi4/basis/jun-cc-pvdz-jkfit.gbs 
    atoms 3, 6                entry N          line   202 file /home/gridsan/tfroembgen/.conda/envs/psi4test/share/psi4/basis/jun-cc-pvdz-jkfit.gbs 
    atoms 7-9, 11-16, 71-88   entry H          line    70 file /home/gridsan/tfroembgen/.conda/envs/psi4test/share/psi4/basis/jun-cc-pvdz-jkfit.gbs 

  ==> Integral Setup <==

  ==> DiskDFJK: Density-Fitted J/K Matrices <==

    J tasked:                  Yes
    K tasked:                  Yes
    wK tasked:                  No
    OpenMP threads:             12
    Integrals threads:          12
    Memory [MiB]:            22888
    Algorithm:                Disk
    Integral Cache:           LOAD
    Schwarz Cutoff:          1E-12
    Fitting Condition:       1E-10

   => Auxiliary Basis Set <=

  Basis Set: (JUN-CC-PVDZ AUX)
    Blend: JUN-CC-PVDZ-JKFIT
    Number of shells: 1890
    Number of basis functions: 5440
    Number of Cartesian functions: 6226
    Spherical Harmonics?: true
    Max angular momentum: 3

  Minimum eigenvalue in the overlap matrix is 8.2907451084E-10.
  Reciprocal condition number of the overlap matrix is 3.6818828102E-11.
    Using canonical orthogonalization.
  Overall, 14 of 1233 possible MOs eliminated.


  ==> Pre-Iterations <==

  SCF Guess: Superposition of Atomic Densities via on-the-fly atomic UHF (no occupation information).

   -------------------------
    Irrep   Nso     Nmo    
   -------------------------
     A       1233    1219 
   -------------------------
    Total    1233    1219
   -------------------------

  ==> Iterations <==

                           Total Energy        Delta E     RMS |[F,P]|

   @DF-RHF iter SAD:  -303.36534659759639   -3.03365e+02   0.00000e+00 
   @DF-RHF iter   1:  -303.16958834037905    1.95758e-01   3.44247e-04 ADIIS/DIIS
   @DF-RHF iter   2:  -303.28394506918846   -1.14357e-01   1.15913e-04 ADIIS/DIIS
   @DF-RHF iter   3:  -303.29540688627316   -1.14618e-02   4.53661e-05 DIIS
   @DF-RHF iter   4:  -303.29731361576796   -1.90673e-03   9.90716e-06 DIIS
   @DF-RHF iter   5:  -303.29741960960337   -1.05994e-04   2.41703e-06 DIIS
   @DF-RHF iter   6:  -303.29742890780273   -9.29820e-06   6.54766e-07 DIIS
   @DF-RHF iter   7:  -303.29742998295325   -1.07515e-06   3.32870e-07 DIIS
   @DF-RHF iter   8:  -303.29743023686382   -2.53911e-07   1.33958e-07 DIIS
   @DF-RHF iter   9:  -303.29743028561126   -4.87474e-08   3.37207e-08 DIIS
   @DF-RHF iter  10:  -303.29743028844103   -2.82978e-09   1.26285e-08 DIIS
   @DF-RHF iter  11:  -303.29743028868688   -2.45848e-10   2.96091e-09 DIIS
  Energy and wave function converged.


  ==> Post-Iterations <==

    Orbital Energies [Eh]
    ---------------------

    Doubly Occupied:                                                      

       1A    -15.834631     2A    -15.834102     3A    -11.529482  
       4A    -11.459822     5A    -11.458266     6A    -11.449641  
       7A    -11.449533     8A     -1.578127     9A     -1.433727  
      10A     -1.238573    11A     -1.189238    12A     -1.118808  
      13A     -1.022443    14A     -0.996870    15A     -0.916970  
      16A     -0.850459    17A     -0.816179    18A     -0.813106  
      19A     -0.790043    20A     -0.786176    21A     -0.781683  
      22A     -0.729652    23A     -0.725734    24A     -0.717066  
      25A     -0.596224    26A     -0.523784  

    Virtual:                                                              

      27A     -0.076979    28A     -0.072077    29A     -0.060243  
      30A     -0.051812    31A     -0.038987    32A     -0.038413  
      33A     -0.037729    34A     -0.034279    35A     -0.033352  
      36A     -0.026606    37A     -0.025683    38A     -0.015870  
      39A     -0.015320    40A     -0.014271    41A     -0.013181  
      42A     -0.009844    43A     -0.007459    44A     -0.005962  
      45A     -0.005606    46A      0.001302    47A      0.003659  
      48A      0.006240    49A      0.009688    50A      0.013191  
      51A      0.014627    52A      0.016215    53A      0.017318  
      54A      0.019991    55A      0.021705    56A      0.026813  
      57A      0.028054    58A      0.033835    59A      0.034429  
      60A      0.034754    61A      0.035306    62A      0.035438  
      63A      0.041683    64A      0.044382    65A      0.046430  
      66A      0.046846    67A      0.048226    68A      0.049240  
      69A      0.052931    70A      0.056008    71A      0.058350  
      72A      0.059087    73A      0.059684    74A      0.060081  
      75A      0.065296    76A      0.065866    77A      0.066673  
      78A      0.068180    79A      0.070361    80A      0.072966  
      81A      0.076464    82A      0.076568    83A      0.077514  
      84A      0.079645    85A      0.081759    86A      0.082813  
      87A      0.085788    88A      0.086163    89A      0.086944  
      90A      0.087315    91A      0.088852    92A      0.091989  
      93A      0.093005    94A      0.093728    95A      0.094567  
      96A      0.097574    97A      0.099199    98A      0.100422  
      99A      0.104312   100A      0.106207   101A      0.108033  
     102A      0.109925   103A      0.110627   104A      0.110743  
     105A      0.112380   106A      0.115436   107A      0.116343  
     108A      0.116514   109A      0.118742   110A      0.119495  
     111A      0.120916   112A      0.123628   113A      0.124687  
     114A      0.126204   115A      0.129557   116A      0.130144  
     117A      0.133074   118A      0.133925   119A      0.134566  
     120A      0.135819   121A      0.137335   122A      0.138725  
     123A      0.142225   124A      0.143305   125A      0.143604  
     126A      0.145138   127A      0.147824   128A      0.149351  
     129A      0.150043   130A      0.151168   131A      0.152467  
     132A      0.154622   133A      0.157967   134A      0.158343  
     135A      0.158819   136A      0.160370   137A      0.163589  
     138A      0.163698   139A      0.164104   140A      0.164379  
     141A      0.164892   142A      0.167401   143A      0.169188  
     144A      0.171509   145A      0.172177   146A      0.176357  
     147A      0.176781   148A      0.177447   149A      0.178169  
     150A      0.180900   151A      0.182001   152A      0.183224  
     153A      0.184163   154A      0.185232   155A      0.188111  
     156A      0.189407   157A      0.190203   158A      0.191343  
     159A      0.192937   160A      0.195881   161A      0.198007  
     162A      0.200725   163A      0.205155   164A      0.207314  
     165A      0.209570   166A      0.209935   167A      0.211823  
     168A      0.213457   169A      0.214349   170A      0.214982  
     171A      0.217858   172A      0.218118   173A      0.218569  
     174A      0.218819   175A      0.219946   176A      0.223049  
     177A      0.225099   178A      0.227649   179A      0.227870  
     180A      0.228655   181A      0.230116   182A      0.231505  
     183A      0.232698   184A      0.233787   185A      0.235421  
     186A      0.240058   187A      0.240847   188A      0.242248  
     189A      0.243454   190A      0.243765   191A      0.246233  
     192A      0.246777   193A      0.249842   194A      0.252808  
     195A      0.259959   196A      0.261252   197A      0.263357  
     198A      0.264689   199A      0.268564   200A      0.269581  
     201A      0.270052   202A      0.271429   203A      0.272166  
     204A      0.275681   205A      0.279264   206A      0.281785  
     207A      0.282173   208A      0.284333   209A      0.286140  
     210A      0.287228   211A      0.289211   212A      0.289786  
     213A      0.291235   214A      0.292581   215A      0.293997  
     216A      0.295831   217A      0.296374   218A      0.297862  
     219A      0.299496   220A      0.300044   221A      0.305436  
     222A      0.306054   223A      0.307482   224A      0.309069  
     225A      0.311375   226A      0.312276   227A      0.313931  
     228A      0.316316   229A      0.319583   230A      0.320123  
     231A      0.324988   232A      0.330139   233A      0.331100  
     234A      0.332622   235A      0.335482   236A      0.337497  
     237A      0.342327   238A      0.344755   239A      0.349284  
     240A      0.349770   241A      0.351412   242A      0.352177  
     243A      0.353611   244A      0.359438   245A      0.361087  
     246A      0.362761   247A      0.365238   248A      0.365331  
     249A      0.365814   250A      0.368218   251A      0.371672  
     252A      0.372535   253A      0.373822   254A      0.378152  
     255A      0.379626   256A      0.381288   257A      0.381496  
     258A      0.384529   259A      0.385906   260A      0.386379  
     261A      0.390123   262A      0.390947   263A      0.392748  
     264A      0.394051   265A      0.397630   266A      0.398342  
     267A      0.400345   268A      0.402226   269A      0.404927  
     270A      0.405122   271A      0.405741   272A      0.408499  
     273A      0.409016   274A      0.410855   275A      0.411661  
     276A      0.412585   277A      0.417737   278A      0.418625  
     279A      0.418922   280A      0.419522   281A      0.421054  
     282A      0.422879   283A      0.425907   284A      0.430261  
     285A      0.430369   286A      0.432664   287A      0.434262  
     288A      0.436915   289A      0.439792   290A      0.441358  
     291A      0.444293   292A      0.446555   293A      0.449949  
     294A      0.455123   295A      0.457019   296A      0.459416  
     297A      0.461716   298A      0.462323   299A      0.463449  
     300A      0.465301   301A      0.465773   302A      0.467443  
     303A      0.468648   304A      0.469500   305A      0.469791  
     306A      0.474954   307A      0.477557   308A      0.480616  
     309A      0.481662   310A      0.482783   311A      0.483693  
     312A      0.487968   313A      0.491115   314A      0.497389  
     315A      0.498433   316A      0.501063   317A      0.502540  
     318A      0.506839   319A      0.509381   320A      0.509619  
     321A      0.511194   322A      0.512585   323A      0.513299  
     324A      0.517421   325A      0.517863   326A      0.522853  
     327A      0.525454   328A      0.528478   329A      0.531658  
     330A      0.532704   331A      0.534039   332A      0.541601  
     333A      0.543303   334A      0.544474   335A      0.547618  
     336A      0.548877   337A      0.549940   338A      0.552301  
     339A      0.553169   340A      0.556868   341A      0.557959  
     342A      0.561848   343A      0.564079   344A      0.567288  
     345A      0.568422   346A      0.572777   347A      0.574538  
     348A      0.575722   349A      0.580838   350A      0.581514  
     351A      0.584960   352A      0.586224   353A      0.588045  
     354A      0.595443   355A      0.600064   356A      0.603089  
     357A      0.605466   358A      0.608078   359A      0.612147  
     360A      0.613036   361A      0.614718   362A      0.615460  
     363A      0.616488   364A      0.620677   365A      0.622892  
     366A      0.624067   367A      0.627414   368A      0.629465  
     369A      0.632729   370A      0.633982   371A      0.635291  
     372A      0.636230   373A      0.637709   374A      0.641044  
     375A      0.643361   376A      0.643643   377A      0.655605  
     378A      0.656665   379A      0.657536   380A      0.662724  
     381A      0.671562   382A      0.674563   383A      0.679522  
     384A      0.683196   385A      0.685069   386A      0.687054  
     387A      0.689009   388A      0.693477   389A      0.694421  
     390A      0.695572   391A      0.696644   392A      0.698760  
     393A      0.700174   394A      0.700766   395A      0.701316  
     396A      0.701969   397A      0.703248   398A      0.705749  
     399A      0.706136   400A      0.710186   401A      0.710364  
     402A      0.715796   403A      0.718858   404A      0.719419  
     405A      0.721114   406A      0.724233   407A      0.725729  
     408A      0.727857   409A      0.728601   410A      0.730801  
     411A      0.733899   412A      0.736210   413A      0.737908  
     414A      0.740351   415A      0.742156   416A      0.743362  
     417A      0.744624   418A      0.752896   419A      0.759648  
     420A      0.770044   421A      0.772678   422A      0.779898  
     423A      0.780692   424A      0.782912   425A      0.784396  
     426A      0.784834   427A      0.788834   428A      0.793342  
     429A      0.799512   430A      0.800589   431A      0.812949  
     432A      0.813356   433A      0.818382   434A      0.819822  
     435A      0.821753   436A      0.826114   437A      0.831750  
     438A      0.831818   439A      0.834650   440A      0.839030  
     441A      0.844091   442A      0.848574   443A      0.854435  
     444A      0.856284   445A      0.860142   446A      0.871691  
     447A      0.880426   448A      0.881565   449A      0.892525  
     450A      0.893041   451A      0.901464   452A      0.901967  
     453A      0.910697   454A      0.916436   455A      0.925647  
     456A      0.928695   457A      0.934422   458A      0.935212  
     459A      0.937213   460A      0.941118   461A      0.957379  
     462A      0.957751   463A      0.971467   464A      0.971960  
     465A      0.977910   466A      0.991322   467A      0.997277  
     468A      0.997540   469A      0.999659   470A      1.000671  
     471A      1.001176   472A      1.007406   473A      1.014481  
     474A      1.030163   475A      1.035860   476A      1.036816  
     477A      1.038156   478A      1.048643   479A      1.068026  
     480A      1.085545   481A      1.085827   482A      1.089262  
     483A      1.093275   484A      1.094791   485A      1.107380  
     486A      1.108224   487A      1.112179   488A      1.116054  
     489A      1.116086   490A      1.128498   491A      1.128691  
     492A      1.129301   493A      1.133424   494A      1.143476  
     495A      1.148568   496A      1.152067   497A      1.152117  
     498A      1.154553   499A      1.159669   500A      1.161205  
     501A      1.186493   502A      1.218241   503A      1.226723  
     504A      1.226796   505A      1.235832   506A      1.237353  
     507A      1.237816   508A      1.254602   509A      1.254783  
     510A      1.258308   511A      1.259950   512A      1.297078  
     513A      1.301365   514A      1.301593   515A      1.306545  
     516A      1.323968   517A      1.352031   518A      1.353571  
     519A      1.365399   520A      1.373390   521A      1.374905  
     522A      1.390323   523A      1.392376   524A      1.395384  
     525A      1.396870   526A      1.397565   527A      1.399382  
     528A      1.415408   529A      1.416040   530A      1.434128  
     531A      1.471952   532A      1.473281   533A      1.483295  
     534A      1.485347   535A      1.486339   536A      1.490442  
     537A      1.492119   538A      1.500907   539A      1.507924  
     540A      1.525491   541A      1.556679   542A      1.566118  
     543A      1.567776   544A      1.570536   545A      1.579118  
     546A      1.581770   547A      1.589970   548A      1.594232  
     549A      1.594948   550A      1.612747   551A      1.614058  
     552A      1.614671   553A      1.623053   554A      1.626564  
     555A      1.631778   556A      1.636021   557A      1.670225  
     558A      1.673577   559A      1.676039   560A      1.677614  
     561A      1.679599   562A      1.680732   563A      1.683877  
     564A      1.685445   565A      1.689750   566A      1.691738  
     567A      1.695953   568A      1.699606   569A      1.708475  
     570A      1.711680   571A      1.714460   572A      1.722001  
     573A      1.724556   574A      1.724840   575A      1.729532  
     576A      1.738971   577A      1.739643   578A      1.740969  
     579A      1.743252   580A      1.747628   581A      1.754729  
     582A      1.755024   583A      1.756125   584A      1.758424  
     585A      1.761061   586A      1.761848   587A      1.764323  
     588A      1.765661   589A      1.767161   590A      1.768032  
     591A      1.778871   592A      1.781380   593A      1.782324  
     594A      1.784315   595A      1.788462   596A      1.792284  
     597A      1.792987   598A      1.793858   599A      1.797722  
     600A      1.807686   601A      1.814216   602A      1.816132  
     603A      1.816724   604A      1.817317   605A      1.819944  
     606A      1.821200   607A      1.821966   608A      1.824984  
     609A      1.827845   610A      1.831114   611A      1.832843  
     612A      1.838154   613A      1.838380   614A      1.839074  
[...]
     802A      1.678290   803A      1.680916   804A      1.684555  
     805A      1.687257   806A      1.688681   807A      1.696361  
     808A      1.698969   809A      1.699569   810A      1.699934  
     811A      1.702403   812A      1.704964   813A      1.705067  
     814A      1.716367   815A      1.718214   816A      1.741783  
     817A      1.742199   818A      1.751652   819A      1.760669  
     820A      1.761064   821A      1.761347   822A      1.761997  
     823A      1.766341   824A      1.777037   825A      1.777466  
     826A      1.791937   827A      1.792031   828A      1.802186  
     829A      1.816867   830A      1.817043   831A      1.817311  
     832A      1.818598   833A      1.824925   834A      1.825061  
     835A      1.830925   836A      1.831790   837A      1.836663  
     838A      1.842421   839A      1.842471   840A      1.844172  
     841A      1.856211   842A      1.861911   843A      1.863009  
     844A      1.864301   845A      1.864497   846A      1.865628  
     847A      1.869001   848A      1.871987   849A      1.873556  
     850A      1.879836   851A      1.880783   852A      1.888552  
     853A      1.895039   854A      1.896789   855A      1.896881  
     856A      1.902536   857A      1.903481   858A      1.905557  
     859A      1.909349   860A      1.909796   861A      1.911006  
     862A      1.917608   863A      1.918084   864A      1.918524  
     865A      1.919039   866A      1.919883   867A      1.922237  
     868A      1.922430   869A      1.927923   870A      1.932404  
     871A      1.941899   872A      1.942871   873A      1.943758  
     874A      1.945810   875A      1.948168   876A      1.948608  
     877A      1.952952   878A      1.955777   879A      1.956635  
     880A      1.957766   881A      1.958027   882A      1.958325  
     883A      1.971898   884A      1.984112   885A      1.984833  
     886A      1.993124   887A      1.997526   888A      1.999810  
     889A      2.000158   890A      2.005517   891A      2.008707  
     892A      2.012074   893A      2.013956   894A      2.023115  
     895A      2.028033   896A      2.028516   897A      2.030767  
     898A      2.031537   899A      2.031874   900A      2.032479  
     901A      2.033690   902A      2.042146   903A      2.047872  
     904A      2.049275   905A      2.052574   906A      2.053594  
     907A      2.058206   908A      2.058822   909A      2.061775  
     910A      2.063350   911A      2.063774   912A      2.066837  
     913A      2.070658   914A      2.073303   915A      2.073774  
     916A      2.077222   917A      2.078368   918A      2.080131  
     919A      2.082839   920A      2.084363   921A      2.087526  
     922A      2.090665   923A      2.093050   924A      2.095748  
     925A      2.096497   926A      2.099730   927A      2.100702  
     928A      2.103972   929A      2.106243   930A      2.109358  
     931A      2.110032   932A      2.110381   933A      2.112500  
     934A      2.113934   935A      2.116239   936A      2.116876  
     937A      2.117835   938A      2.120349   939A      2.120651  
     940A      2.121451   941A      2.124041   942A      2.127800  
     943A      2.129610   944A      2.133149   945A      2.134355  
     946A      2.136140   947A      2.136750   948A      2.137249  
     949A      2.141059   950A      2.143551   951A      2.143654  
     952A      2.156252   953A      2.157597   954A      2.160941  
     955A      2.163195   956A      2.163424   957A      2.167551  
     958A      2.172054   959A      2.178400   960A      2.180078  
     961A      2.183542   962A      2.191417   963A      2.192280  
     964A      2.192689   965A      2.194224   966A      2.195924  
     967A      2.196340   968A      2.197480   969A      2.207024  
     970A      2.217389   971A      2.219878   972A      2.220596  
     973A      2.220928   974A      2.224786   975A      2.228063  
     976A      2.229117   977A      2.230308   978A      2.235109  
     979A      2.236823   980A      2.243981   981A      2.244554  
     982A      2.245468   983A      2.246114   984A      2.248314  
     985A      2.260734   986A      2.260999   987A      2.270720  
     988A      2.270778   989A      2.272546   990A      2.272861  
     991A      2.276504   992A      2.281452   993A      2.292142  
     994A      2.300481   995A      2.301512   996A      2.306805  
     997A      2.313694   998A      2.313867   999A      2.316978  
    1000A      2.322690  1001A      2.324391  1002A      2.331249  
    1003A      2.331357  1004A      2.331995  1005A      2.335120  
    1006A      2.343027  1007A      2.352012  1008A      2.352530  
    1009A      2.353197  1010A      2.353821  1011A      2.363837  
    1012A      2.366901  1013A      2.368024  1014A      2.377608  
    1015A      2.378757  1016A      2.384454  1017A      2.409328  
    1018A      2.416495  1019A      2.424172  1020A      2.424682  
    1021A      2.424744  1022A      2.436572  1023A      2.441471  
    1024A      2.441784  1025A      2.463236  1026A      2.468333  
    1027A      2.472595  1028A      2.473120  1029A      2.474683  
    1030A      2.475997  1031A      2.486279  1032A      2.486951  
    1033A      2.488946  1034A      2.490546  1035A      2.502588  
    1036A      2.520100  1037A      2.530283  1038A      2.531391  
    1039A      2.537659  1040A      2.544441  1041A      2.546566  
    1042A      2.547041  1043A      2.555010  1044A      2.555298  
    1045A      2.556814  1046A      2.560105  1047A      2.560314  
    1048A      2.573226  1049A      2.573276  1050A      2.575733  
    1051A      2.575992  1052A      2.586302  1053A      2.586478  
    1054A      2.587783  1055A      2.589686  1056A      2.591814  
    1057A      2.593564  1058A      2.607349  1059A      2.624318  
    1060A      2.624573  1061A      2.625462  1062A      2.632107  
    1063A      2.632763  1064A      2.641707  1065A      2.642286  
    1066A      2.645691  1067A      2.651801  1068A      2.652306  
    1069A      2.656334  1070A      2.661543  1071A      2.666721  
    1072A      2.674735  1073A      2.684399  1074A      2.684986  
    1075A      2.686051  1076A      2.688008  1077A      2.688103  
    1078A      2.702372  1079A      2.702969  1080A      2.713240  
    1081A      2.713286  1082A      2.718960  1083A      2.719034  
    1084A      2.723502  1085A      2.724028  1086A      2.738824  
    1087A      2.750638  1088A      2.753970  1089A      2.754360  
    1090A      2.759703  1091A      2.774081  1092A      2.778938  
    1093A      2.795383  1094A      2.796177  1095A      2.817217  
    1096A      2.827619  1097A      2.828750  1098A      2.838629  
    1099A      2.852303  1100A      2.853618  1101A      2.856245  
    1102A      2.856720  1103A      2.858531  1104A      2.860638  
    1105A      2.862990  1106A      2.870615  1107A      2.897124  
    1108A      2.906902  1109A      2.917729  1110A      2.918543  
    1111A      2.923614  1112A      2.932753  1113A      2.934408  
    1114A      2.935491  1115A      2.936715  1116A      2.950552  
    1117A      2.951624  1118A      2.963615  1119A      2.966221  
    1120A      2.987249  1121A      3.010469  1122A      3.011274  
    1123A      3.012065  1124A      3.022720  1125A      3.029983  
    1126A      3.035978  1127A      3.064607  1128A      3.064838  
    1129A      3.065559  1130A      3.071569  1131A      3.072706  
    1132A      3.110452  1133A      3.111872  1134A      3.129714  
    1135A      3.130080  1136A      3.130703  1137A      3.137655  
    1138A      3.146709  1139A      3.147062  1140A      3.147679  
    1141A      3.148798  1142A      3.150247  1143A      3.154871  
    1144A      3.159492  1145A      3.159849  1146A      3.166924  
    1147A      3.167188  1148A      3.192044  1149A      3.211580  
    1150A      3.220147  1151A      3.238777  1152A      3.274955  
    1153A      3.277442  1154A      3.277789  1155A      3.283253  
    1156A      3.283378  1157A      3.290786  1158A      3.320811  
    1159A      3.344683  1160A      3.417011  1161A      3.417959  
    1162A      3.429482  1163A      3.443886  1164A      3.482934  
    1165A      3.485619  1166A      3.530129  1167A      3.550656  
    1168A      3.576954  1169A      3.579224  1170A      3.586661  
    1171A      3.595109  1172A      3.626968  1173A      3.629626  
    1174A      3.647882  1175A      3.663463  1176A      3.670781  
    1177A      3.759676  1178A      3.769548  1179A      3.783498  
    1180A      3.785086  1181A      3.819379  1182A      3.870649  
    1183A      3.871008  1184A      3.871306  1185A      3.913732  
    1186A      3.913881  1187A      3.975218  1188A      3.977124  
    1189A      4.011179  1190A      4.034773  1191A      4.053076  
    1192A      4.085295  1193A      4.212401  1194A      4.217027  
    1195A      4.370301  1196A      4.372415  1197A      4.495222  
    1198A      4.753510  1199A      4.798927  1200A      4.836518  
    1201A      4.853068  1202A      4.943388  1203A      5.060588  
    1204A      5.064619  1205A      5.073688  1206A      5.117120  
    1207A      5.162391  1208A      5.398362  1209A      5.426745  
    1210A      5.739868  1211A      5.766855  1212A      6.070700  
    1213A     18.200416  1214A     18.462589  1215A     18.479515  
    1216A     18.565781  1217A     18.836054  1218A     25.343448  
    1219A     25.379216  

    Final Occupation by Irrep:
              A 
    DOCC [   171 ]
    NA   [   171 ]
    NB   [   171 ]

  @DF-RHF Final Energy: -2055.89294194949025

   => Energetics <=

    Nuclear Repulsion Energy =           6452.5568002797781446
    One-Electron Energy =              -15636.4688844544016320
    Two-Electron Energy =                7128.0191422251318727
    Total Energy =                      -2055.8929419494907052

Computation Completed


Properties will be evaluated at   0.000000,   0.000000,   0.000000 [a0]

Properties computed using the SCF density matrix


 Multipole Moments:

 ------------------------------------------------------------------------------------
     Multipole            Electronic (a.u.)      Nuclear  (a.u.)        Total (a.u.)
 ------------------------------------------------------------------------------------

 L = 1.  Multiply by 2.5417464519 to convert [e a0] to [Debye]
 Dipole X            :          0.0001897           -0.0000085            0.0001812
 Dipole Y            :        117.1685650         -117.1648546            0.0037105
 Dipole Z            :       -493.2106612          493.2190280            0.0083668
 Magnitude           :                                                    0.0091544

 ------------------------------------------------------------------------------------

*** tstop() called on d-6-11-4 at Mon Jan 22 22:59:50 2024
Module time:
	user time   =    2949.46 seconds =      49.16 minutes
	system time =     205.23 seconds =       3.42 minutes
	total time  =        822 seconds =      13.70 minutes
Total time:
	user time   =    9025.56 seconds =     150.43 minutes
	system time =     716.22 seconds =      11.94 minutes
	total time  =       3022 seconds =      50.37 minutes
  Constructing Basis Sets for SAPT...

   => Loading Basis Set <=

    Name: (JUN-CC-PVDZ AUX)
    Role: RIFIT
    Keyword: DF_BASIS_SAPT
    atoms 1-2, 4-5, 10, 17-70 entry C          line   100 file /home/gridsan/tfroembgen/.conda/envs/psi4test/share/psi4/basis/jun-cc-pvdz-ri.gbs 
    atoms 3, 6                entry N          line   144 file /home/gridsan/tfroembgen/.conda/envs/psi4test/share/psi4/basis/jun-cc-pvdz-ri.gbs 
    atoms 7-9, 11-16, 71-88   entry H          line    30 file /home/gridsan/tfroembgen/.conda/envs/psi4test/share/psi4/basis/jun-cc-pvdz-ri.gbs 

   => Loading Basis Set <=

    Name: (JUN-CC-PVDZ AUX)
    Role: JKFIT
    Keyword: DF_BASIS_ELST
    atoms 1-2, 4-5, 10, 17-70 entry C          line   146 file /home/gridsan/tfroembgen/.conda/envs/psi4test/share/psi4/basis/jun-cc-pvdz-jkfit.gbs 
    atoms 3, 6                entry N          line   202 file /home/gridsan/tfroembgen/.conda/envs/psi4test/share/psi4/basis/jun-cc-pvdz-jkfit.gbs 
    atoms 7-9, 11-16, 71-88   entry H          line    70 file /home/gridsan/tfroembgen/.conda/envs/psi4test/share/psi4/basis/jun-cc-pvdz-jkfit.gbs 


  //>>>>>>>>>>>>>>>>>>>>>>>>>>>>>>>>>>>//
  //               SSAPT0              //
  //<<<<<<<<<<<<<<<<<<<<<<<<<<<<<<<<<<<//


*** tstart() called on d-6-11-4
*** at Mon Jan 22 22:59:51 2024

        SAPT0  
    Ed Hohenstein
     6 June 2009

      Orbital Information
  --------------------------
    NSO        =      1233
    NMO        =      1219
    NRI        =      4343
    NRI (Elst) =      5440
    NOCC A     =        26
    NOCC B     =       171
    FOCC A     =         7
    FOCC B     =        54
    NVIR A     =      1193
    NVIR B     =      1048

    Elst10,r            =    -0.009466459817 [Eh]
    Exch10              =     0.000044179141 [Eh]
    Exch10 (S^2)        =     0.000044178206 [Eh]

    Iter     Energy [mEh]          dE [mEh]         Residual      Time [s]
       1      -0.03540324       0.035403241       1.745261945           476
       2      -0.03366531      -0.001737935       0.456837791           966
       3      -0.03691957       0.003254266       0.126914980          1494
       4      -0.03711645       0.000196880       0.056254708          1656
       5      -0.03696726      -0.000149187       0.018354833          1904
       6      -0.03696604      -0.000001222       0.005877040          2219
       7      -0.03697714       0.000011101       0.001928069          2465
       8      -0.03697924       0.000002102       0.000509117          2749
       9      -0.03697877      -0.000000479       0.000180980          3087
      10      -0.03697852      -0.000000246       0.000046996          3359
      11      -0.03697854       0.000000019       0.000013194          3585
      12      -0.03697855       0.000000014       0.000004297          3724
      13      -0.03697855       0.000000001       0.000001427          3890
      14      -0.03697855      -0.000000002       0.000000312          4086

    CHF Iterations converged


    Iter     Energy [mEh]          dE [mEh]         Residual      Time [s]
       1      -6.36095611       6.360956106      41.372665933           245
       2      -4.34112946      -2.019826649       5.420230435           453
       3      -4.34219051       0.001061054       1.939663461           564
       4      -4.44828363       0.106093114       0.496194655           593
       5      -4.45456527       0.006281646       0.179263789           632
       6      -4.45118051      -0.003384761       0.108673941           666
       7      -4.45011094      -0.001069567       0.054995608           688
       8      -4.45083884       0.000727895       0.036936211           708
       9      -4.45120650       0.000367663       0.022309890           732
      10      -4.45103997      -0.000166528       0.014567216           775
      11      -4.45092097      -0.000119006       0.005557470           801
      12      -4.45094459       0.000023620       0.002414819           837
      13      -4.45095983       0.000015245       0.001067265           868
      14      -4.45096033       0.000000494       0.000499678           918
      15      -4.45095648      -0.000003846       0.000271238          1003
      16      -4.45095552      -0.000000962       0.000116833          1036
      17      -4.45095666       0.000001141       0.000050808          1063
      18      -4.45095678       0.000000120       0.000024004          1093
      19      -4.45095661      -0.000000171       0.000012068          1168
      20      -4.45095657      -0.000000036       0.000004325          1250
      21      -4.45095659       0.000000020       0.000001785          1328
      22      -4.45095660       0.000000010       0.000000683          1358

    CHF Iterations converged

    Ind20,r (A<-B)      =    -0.000036978552 [Eh]
    Ind20,r (B<-A)      =    -0.004450956604 [Eh]
    Ind20,r             =    -0.004487935155 [Eh]
    Exch-Ind20,r (A<-B) =     0.000000915199 [Eh]
    Exch-Ind20,r (B<-A) =     0.000009742905 [Eh]
    Exch-Ind20,r        =     0.000010658105 [Eh]
    Disp20              =    -0.003462637544 [Eh]
    Disp20 (SS)         =    -0.001731318772 [Eh]
    Disp20 (OS)         =    -0.001731318772 [Eh]
    Exch-Disp20         =     0.000006708458 [Eh]
    Exch-Disp20 (SS)    =     0.000004559946 [Eh]
    Exch-Disp20 (OS)    =     0.000002148513 [Eh]

    SAPT Results 
  --------------------------------------------------------------------------------------------------------
    Electrostatics                 -9.46645982 [mEh]      -5.94029322 [kcal/mol]     -24.85418683 [kJ/mol]
      Elst10,r                     -9.46645982 [mEh]      -5.94029322 [kcal/mol]     -24.85418683 [kJ/mol]

    Exchange                        0.04417914 [mEh]       0.02772283 [kcal/mol]       0.11599232 [kJ/mol]
      Exch10                        0.04417914 [mEh]       0.02772283 [kcal/mol]       0.11599232 [kJ/mol]
      Exch10(S^2)                   0.04417821 [mEh]       0.02772224 [kcal/mol]       0.11598986 [kJ/mol]

    Induction                      -4.66000809 [mEh]      -2.92419923 [kcal/mol]     -12.23484957 [kJ/mol]
      Ind20,r                      -4.48793516 [mEh]      -2.81622183 [kcal/mol]     -11.78307213 [kJ/mol]
      Exch-Ind20,r                  0.01065810 [mEh]       0.00668806 [kcal/mol]       0.02798285 [kJ/mol]
      delta HF,r (2)               -0.18273104 [mEh]      -0.11466546 [kcal/mol]      -0.47976029 [kJ/mol]

    Dispersion                     -3.45592909 [mEh]      -2.16862824 [kcal/mol]      -9.07354056 [kJ/mol]
      Disp20                       -3.46263754 [mEh]      -2.17283786 [kcal/mol]      -9.09115362 [kJ/mol]
      Exch-Disp20                   0.00670846 [mEh]       0.00420962 [kcal/mol]       0.01761305 [kJ/mol]
      Disp20 (SS)                  -1.73131877 [mEh]      -1.08641893 [kcal/mol]      -4.54557681 [kJ/mol]
      Disp20 (OS)                  -1.73131877 [mEh]      -1.08641893 [kcal/mol]      -4.54557681 [kJ/mol]
      Exch-Disp20 (SS)              0.00455995 [mEh]       0.00286141 [kcal/mol]       0.01197214 [kJ/mol]
      Exch-Disp20 (OS)              0.00214851 [mEh]       0.00134821 [kcal/mol]       0.00564092 [kJ/mol]

  Total HF                        -14.08228877 [mEh]      -8.83676962 [kcal/mol]     -36.97304407 [kJ/mol]
  Total SAPT0                     -17.53821786 [mEh]     -11.00539786 [kcal/mol]     -46.04658464 [kJ/mol]

  Special recipe for scaled SAPT0 (see Manual):
    Electrostatics sSAPT0          -9.46645982 [mEh]      -5.94029322 [kcal/mol]     -24.85418683 [kJ/mol]
    Exchange sSAPT0                 0.04417914 [mEh]       0.02772283 [kcal/mol]       0.11599232 [kJ/mol]
    Induction sSAPT0               -4.66000742 [mEh]      -2.92419880 [kcal/mol]     -12.23484779 [kJ/mol]
    Dispersion sSAPT0              -3.45592866 [mEh]      -2.16862797 [kcal/mol]      -9.07353945 [kJ/mol]
  Total sSAPT0                    -17.53821675 [mEh]     -11.00539717 [kcal/mol]     -46.04658174 [kJ/mol]
  --------------------------------------------------------------------------------------------------------

*** tstop() called on d-6-11-4 at Tue Jan 23 01:21:05 2024
Module time:
	user time   =   11113.16 seconds =     185.22 minutes
	system time =    1102.61 seconds =      18.38 minutes
	total time  =       8474 seconds =     141.23 minutes
Total time:
	user time   =   20139.75 seconds =     335.66 minutes
	system time =    1818.83 seconds =      30.31 minutes
	total time  =      11497 seconds =     191.62 minutes

    Psi4 stopped on: Tuesday, 23 January 2024 01:21AM
    Psi4 wall time for execution: 3:11:38.09

*** Psi4 exiting successfully. Buy a developer a beer!
