
    -----------------------------------------------------------------------
          Psi4: An Open-Source Ab Initio Electronic Structure Package
                               Psi4 1.9 release

                         Git: Rev {} zzzzzzz 


    D. G. A. Smith, L. A. Burns, A. C. Simmonett, R. M. Parrish,
    M. C. Schieber, R. Galvelis, P. Kraus, H. Kruse, R. Di Remigio,
    A. Alenaizan, A. M. James, S. Lehtola, J. P. Misiewicz, M. Scheurer,
    R. A. Shaw, J. B. Schriber, Y. Xie, Z. L. Glick, D. A. Sirianni,
    J. S. O'Brien, J. M. Waldrop, A. Kumar, E. G. Hohenstein,
    B. P. Pritchard, B. R. Brooks, H. F. Schaefer III, A. Yu. Sokolov,
    K. Patkowski, A. E. DePrince III, U. Bozkaya, R. A. King,
    F. A. Evangelista, J. M. Turney, T. D. Crawford, C. D. Sherrill,
    J. Chem. Phys. 152(18) 184108 (2020). https://doi.org/10.1063/5.0006002

                            Additional Code Authors
    E. T. Seidl, C. L. Janssen, E. F. Valeev, M. L. Leininger,
    J. F. Gonthier, R. M. Richard, H. R. McAlexander, M. Saitow, X. Wang,
    P. Verma, M. H. Lechner, A. Jiang, S. Behnle, A. G. Heide,
    M. F. Herbst, and D. L. Poole

             Previous Authors, Complete List of Code Contributors,
                       and Citations for Specific Modules
    https://github.com/psi4/psi4/blob/master/codemeta.json
    https://github.com/psi4/psi4/graphs/contributors
    http://psicode.org/psi4manual/master/introduction.html#citing-psifour

    -----------------------------------------------------------------------


    Psi4 started on: Saturday, 27 January 2024 10:40AM

    Process ID: 1485400
    Host:       n2cn1142
    PSIDATADIR: /opt/software/pc2/EB-SW/software/PSI4/1.9-foss-2022a/share/psi4
    Memory:     500.0 MiB
    Threads:    16
    
  ==> Input File <==

--------------------------------------------------------------------------
memory 64 GB # how much memory is available ! Depends on the nodes/cores !

molecule dimer {
# monomer A
-1 1    # Charge and multiplicity
B -1.977592e-04  2.742729e-04 -1.999966
F  1.123153e-16  1.430594e-17 -0.587181
F  1.147860e+00  6.757812e-01 -2.471107
F  1.191806e-02 -1.332011e+00 -2.470905
F -1.159666e+00  6.560735e-01 -2.470826
--
# monomer B
0 1     # Charge and multiplicity
C   -3.66844126402057      7.80375217008252      0.00190004133558
C   -4.84759871934653      7.13124183134024     -0.00046653359696
C   -4.89495929917518      5.69633040353158     -0.00103944469517
C   -3.65374067877320      4.98073034095895      0.00662099703436
C   -2.40942512149445      7.11398103667468      0.00209438359570
C   -2.42547734410473      5.68112195090346     -0.00491050527438
C   -1.19474401643570      7.78614419430947      0.00356656413763
C   0.03795902893699      7.09942164575698      0.00139585983271
C   0.03033258741920      5.66948955970466     -0.00408752508301
C   -1.20098450790502      4.96927034791531      0.00488220885047
C   1.27795782581485      7.77285944319479      0.00277170839332
C   2.48535808472416      7.08769688523756      0.00049722048857
C   2.48612868491717      5.65477081024076     -0.00644052849921
C   1.25408291964399      4.95607811366431      0.00518741308898
C   3.75171459140595      7.76391215098033      0.00062407186893
C   4.92356605618520      7.07878077698995     -0.00143240883900
C   4.95560727132542      5.64344746336949     -0.00159282164606
C   3.70680153420475      4.94121020833308      0.00349873852374
H   -3.65852113775815      8.89082741913536      0.00358502958574
H   -1.18921332975660      8.87412108735996      0.00753844057883
H   1.28429423888630      8.86083343548850      0.00693053253426
H   3.75354208679975      8.85103527897216      0.00214659618464
H   5.86995870320703      7.61379483465560     -0.00235777588134
H   -5.78823170750226      7.67630221293400     -0.00202638095293
C   -6.09197395869619      4.99326001364347     -0.00291168518608
C   -6.12866148031747      3.58258016879823     -0.00171050815740
C   -3.66457974004527      3.56418217974434     -0.00463560277484
C   -4.89429820469869      2.86108077590057      0.00453338221034
C   -2.43733499489796      2.84761165708481      0.00719617576166
C   -1.20922785759670      3.54788693497833     -0.00648285103018
C   1.24714157216223      3.53468075142962     -0.00729145743546
C   0.01517603956900      2.83311183930540      0.00439272578912
C   2.46764517244071      2.82128997725533      0.00449278391269
C   3.70254947457969      3.52466015442405     -0.00899517692985
C   6.14498038638375      4.92757236613191     -0.00282626685777
C   6.16658835886151      3.51658447594213     -0.00065971342101
C   4.92460995845939      2.80840792535402      0.00587903281610
H   7.08990550964105      5.46688776622306     -0.00658814770723
H   -7.03104175110130      5.54268795285765     -0.00714490013730
C   -7.33969804112295      2.85841153457957     -0.00333767559888
C   -7.36488195805880      1.47032337158330     -0.00157213747140
C   -4.90350460894690      1.44442681216000     -0.00628840166334
C   -6.13225715261081      0.73993935705394      0.00600164231964
C   -3.67687480051673      0.72669714267312      0.00433931473643
C   -2.44565658606518      1.42964113326212     -0.00597039546461
C   -1.22360068130162      0.71532450163492      0.00545886906656
C   0.00763786931376      1.41738314923765      0.00392452278437
C   1.23121980774686      0.70211669058719     -0.01490206287210
C   2.46082110053113      1.40329203612573      0.00460244601878
C   3.68443025419614      0.68719842821222      0.00377365974158
C   4.91870890153864      1.39173456118907     -0.00862816189375
C   7.36980207796101      2.77948220318441     -0.00242013321349
C   7.38016266612146      1.39121750785509     -0.00087345036788
C   6.13979953912259      0.67411862320065      0.00545489144369
H   -8.27919079934664      3.40711804112415     -0.00763522772059
H   8.31511347147953      3.31811809662368     -0.00663070901292
C   -8.59175593758115      0.72483255304480     -0.00123170985383
C   -8.59902460370342     -0.63263980622873      0.00089141472904
C   -6.13981313911873     -0.67413663715361     -0.00609792660607
C   -7.38018411213749     -1.39126618958160      0.00131813493501
C   -4.91868448025621     -1.39175501803000      0.00624257154343
C   -3.68443829568458     -0.68723731573599     -0.00478966852105
C   -2.46081704024768     -1.40334517882457      0.00575341766833
C   -1.23116201232071     -0.70217386488055     -0.00636696112346
C   -0.00756962538737     -1.41741884941102      0.00108956317991
C   1.22364771588843     -0.71527537726392      0.01109518512883
C   2.44567064933149     -1.42964328900682     -0.00065482763106
C   3.67686670284649     -0.72670743155550     -0.00479541202602
C   6.13224884641929     -0.73997883984993     -0.00632338623858
C   4.90351914550401     -1.44445752054090      0.00751768830159
C   8.59901484869081      0.63260386666793     -0.00101133422380
C   8.59174548810050     -0.72485086719319      0.00072504603735
C   7.36486276438985     -1.47033266560598      0.00049486934466
H   -9.52830597181814      1.27684744919284     -0.00270163681798
H   9.54141097460619      1.17457248844457     -0.00206336648518
C   -7.36983790976868     -2.77954514593389      0.00312634335708
C   -4.92459910905015     -2.80843725734101     -0.00460528907921
C   -6.16662249566744     -3.51665219282533      0.00169655107992
C   -3.70251035970491     -3.52468154912026      0.00571878010666
C   -2.46764698511392     -2.82132596280400     -0.00632585824990
C   -0.01513347410770     -2.83314164539971     -0.00604426974092
C   -1.24712184122656     -3.53473217556300      0.00551968366725
C   1.20924506964357     -3.54791467864352      0.00805871345849
C   2.43733602215464     -2.84764173817541     -0.00608104485234
C   4.89430234377080     -2.86112296828604     -0.00526030478103
C   3.66461525504104     -3.56421984553201      0.00761911515957
C   6.12863901474565     -3.58258405771778      0.00096495711699
C   7.33967266469532     -2.85841330737039      0.00248018319869
H   -9.54144911125902     -1.17456346666430      0.00226083090216
H   9.52826186807155     -1.27691907390448      0.00197485379837
H   -8.31516504384864     -3.31814985321231      0.00729857188773
H   8.27915514249207     -3.40714078989363      0.00681973918158
C   -6.14499418870218     -4.92764727278338      0.00302254913999
C   -3.70678334799751     -4.94126171411716     -0.00679841894792
C   -4.95559005800169     -5.64349397349412      0.00116871569699
C   -2.48612132622665     -5.65478557440947      0.00614125209662
C   -1.25405833548005     -4.95612205000132     -0.00503435388927
C   1.20101257386816     -4.96928038819302     -0.00385322963129
C   -0.03033667441341     -5.66952030313900      0.00398997003238
C   3.65375010132847     -4.98074377541453     -0.00309522988330
C   2.42549269587528     -5.68117463552727      0.00628170066869
C   6.09196561781097     -4.99325796338655      0.00325918379042
C   4.89497644461045     -5.69634842095790      0.00202298796027
H   -7.08989238804069     -5.46699984223871      0.00742531082125
H   7.03105520920009     -5.54265853633254      0.00683896355417
C   -4.92354532219813     -7.07882109967734      0.00061394679214
C   -2.48534208823777     -7.08772807792913     -0.00189594564379
C   -3.75168589177895     -7.76394715763627     -0.00170126671874
C   -0.03794895698805     -7.09946487446944     -0.00168022049625
C   -1.27795610040136     -7.77290438466689     -0.00366491325785
C   2.40944432072629     -7.11402201200282     -0.00081701968533
C   1.19474993715296     -7.78618536556242     -0.00296931056689
C   4.84762105249800     -7.13126211057943      0.00168979497423
C   3.66847160587561     -7.80378799294376     -0.00065863938960
H   -5.86994035041618     -7.61383059804164      0.00215798365757
H   5.78824962538815     -7.67633218931421      0.00281691445618
H   -3.75352693944918     -8.85107156923607     -0.00353718114765
H   -1.28430440589466     -8.86087539249706     -0.00809229711623
H   1.18922157469537     -8.87416062058945     -0.00706194725726
H   3.65854661482387     -8.89086063405326     -0.00231318081200

    units angstrom      # Angstroms are the default
    no_reorient         # Geometry fixed, default
    symmetry c1         # C1 symmetry, default
}

set {
    scf_type DF         # Density fitting, faster than exact integrals
    freeze_core True    # Freeze core electrons
    basis jun-cc-pVDZ   # Jun-cc-pVDZ basis set, recommended for sSAPT0 in https://doi.org/10.1063/1.4867135
}

energy('ssapt0')        # Compute sSAPT0 energy, includes also SAPT0
--------------------------------------------------------------------------

  Memory set to  59.605 GiB by Python driver.

Scratch directory: /tmp/
   => Loading Basis Set <=

    Name: JUN-CC-PVDZ
    Role: ORBITAL
    Keyword: BASIS
    atoms 1                                                   entry B          line   130 file /opt/software/pc2/EB-SW/software/PSI4/1.9-foss-2022a/share/psi4/basis/jun-cc-pvdz.gbs 
    atoms 2-5                                                 entry F          line   266 file /opt/software/pc2/EB-SW/software/PSI4/1.9-foss-2022a/share/psi4/basis/jun-cc-pvdz.gbs 
    atoms 6-23, 30-42, 45-59, 62-78, 81-93, 98-108, 111-119   entry C          line   164 file /opt/software/pc2/EB-SW/software/PSI4/1.9-foss-2022a/share/psi4/basis/jun-cc-pvdz.gbs 
    atoms 24-29, 43-44, 60-61, 79-80, 94-97, 109-110, 120-125 entry H          line    36 file /opt/software/pc2/EB-SW/software/PSI4/1.9-foss-2022a/share/psi4/basis/jun-cc-pvdz.gbs 

   => Loading Basis Set <=

    Name: JUN-CC-PVDZ
    Role: ORBITAL
    Keyword: BASIS
    atoms 1                                                   entry B          line   130 file /opt/software/pc2/EB-SW/software/PSI4/1.9-foss-2022a/share/psi4/basis/jun-cc-pvdz.gbs 
    atoms 2-5                                                 entry F          line   266 file /opt/software/pc2/EB-SW/software/PSI4/1.9-foss-2022a/share/psi4/basis/jun-cc-pvdz.gbs 
    atoms 6-23, 30-42, 45-59, 62-78, 81-93, 98-108, 111-119   entry C          line   164 file /opt/software/pc2/EB-SW/software/PSI4/1.9-foss-2022a/share/psi4/basis/jun-cc-pvdz.gbs 
    atoms 24-29, 43-44, 60-61, 79-80, 94-97, 109-110, 120-125 entry H          line    36 file /opt/software/pc2/EB-SW/software/PSI4/1.9-foss-2022a/share/psi4/basis/jun-cc-pvdz.gbs 


  //>>>>>>>>>>>>>>>>>>>>>>>>>>>>>>>>>>>//
  //              Dimer HF             //
  //<<<<<<<<<<<<<<<<<<<<<<<<<<<<<<<<<<<//

   => Libint2 <=

    Primary   basis highest AM E, G, H:  5, 4, 3
    Auxiliary basis highest AM E, G, H:  6, 5, 4
    Onebody   basis highest AM E, G, H:  6, 5, 4
    Solid Harmonics ordering:            gaussian

*** tstart() called on n2cn1142
*** at Sat Jan 27 10:40:43 2024

   => Loading Basis Set <=

    Name: JUN-CC-PVDZ
    Role: ORBITAL
    Keyword: BASIS
    atoms 1                                                   entry B          line   130 file /opt/software/pc2/EB-SW/software/PSI4/1.9-foss-2022a/share/psi4/basis/jun-cc-pvdz.gbs 
    atoms 2-5                                                 entry F          line   266 file /opt/software/pc2/EB-SW/software/PSI4/1.9-foss-2022a/share/psi4/basis/jun-cc-pvdz.gbs 
    atoms 6-23, 30-42, 45-59, 62-78, 81-93, 98-108, 111-119   entry C          line   164 file /opt/software/pc2/EB-SW/software/PSI4/1.9-foss-2022a/share/psi4/basis/jun-cc-pvdz.gbs 
    atoms 24-29, 43-44, 60-61, 79-80, 94-97, 109-110, 120-125 entry H          line    36 file /opt/software/pc2/EB-SW/software/PSI4/1.9-foss-2022a/share/psi4/basis/jun-cc-pvdz.gbs 


         ---------------------------------------------------------
                                   SCF
               by Justin Turney, Rob Parrish, Andy Simmonett
                          and Daniel G. A. Smith
                              RHF Reference
                       16 Threads,  61035 MiB Core
         ---------------------------------------------------------

  ==> Geometry <==

    Molecular point group: c1
    Full point group: C1

    Geometry (in Angstrom), charge = -1, multiplicity = 1:

       Center              X                  Y                   Z               Mass       
    ------------   -----------------  -----------------  -----------------  -----------------
         B           -0.000201921932     0.000288800891    -1.862218093786    11.009305360000
         F           -0.000004162732     0.000014527991    -0.449433093786    18.998403162730
         F            1.147855837268     0.675795727991    -2.333359093786    18.998403162730
         F            0.011913897268    -1.331996472009    -2.333157093786    18.998403162730
         F           -1.159670162732     0.656088027991    -2.333078093786    18.998403162730
         C           -3.668445426752     7.803766698073     0.139647947549    12.000000000000
         C           -4.847602882078     7.131256359331     0.137281372617    12.000000000000
         C           -4.894963461907     5.696344931522     0.136708461519    12.000000000000
         C           -3.653744841505     4.980744868950     0.144368903248    12.000000000000
         C           -2.409429284226     7.113995564665     0.139842289809    12.000000000000
         C           -2.425481506836     5.681136478894     0.132837400939    12.000000000000
         C           -1.194748179167     7.786158722300     0.141314470351    12.000000000000
         C            0.037954866205     7.099436173748     0.139143766046    12.000000000000
         C            0.030328424687     5.669504087695     0.133660381131    12.000000000000
         C           -1.200988670637     4.969284875906     0.142630115064    12.000000000000
         C            1.277953663083     7.772873971185     0.140519614607    12.000000000000
         C            2.485353921992     7.087711413228     0.138245126702    12.000000000000
         C            2.486124522185     5.654785338231     0.131307377715    12.000000000000
         C            1.254078756912     4.956092641655     0.142935319303    12.000000000000
         C            3.751710428674     7.763926678971     0.138371978083    12.000000000000
         C            4.923561893453     7.078795304981     0.136315497375    12.000000000000
         C            4.955603108594     5.643461991360     0.136155084568    12.000000000000
         C            3.706797371473     4.941224736324     0.141246644737    12.000000000000
         H           -3.658525300490     8.890841947126     0.141332935799     1.007825032230
         H           -1.189217492488     8.874135615351     0.145286346793     1.007825032230
         H            1.284290076155     8.860847963479     0.144678438748     1.007825032230
         H            3.753537924068     8.851049806963     0.139894502398     1.007825032230
         H            5.869954540475     7.613809362646     0.135390130332     1.007825032230
         H           -5.788235870234     7.676316740925     0.135721525261     1.007825032230
         C           -6.091978121428     4.993274541634     0.134836221028    12.000000000000
         C           -6.128665643049     3.582594696789     0.136037398056    12.000000000000
         C           -3.664583902777     3.564196707735     0.133112303439    12.000000000000
         C           -4.894302367430     2.861095303891     0.142281288424    12.000000000000
         C           -2.437339157630     2.847626185075     0.144944081975    12.000000000000
         C           -1.209232020328     3.547901462969     0.131265055184    12.000000000000
         C            1.247137409430     3.534695279420     0.130456448778    12.000000000000
         C            0.015171876837     2.833126367296     0.142140632003    12.000000000000
         C            2.467641009709     2.821304505246     0.142240690126    12.000000000000
         C            3.702545311848     3.524674682415     0.128752729284    12.000000000000
         C            6.144976223652     4.927586894122     0.134921639356    12.000000000000
         C            6.166584196130     3.516599003933     0.137088192793    12.000000000000
         C            4.924605795728     2.808422453345     0.143626939030    12.000000000000
         H            7.089901346909     5.466902294214     0.131159758507     1.007825032230
         H           -7.031045913833     5.542702480848     0.130603006076     1.007825032230
         C           -7.339702203855     2.858426062570     0.134410230615    12.000000000000
         C           -7.364886120791     1.470337899574     0.136175768742    12.000000000000
         C           -4.903508771679     1.444441340151     0.131459504550    12.000000000000
         C           -6.132261315343     0.739953885044     0.143749548533    12.000000000000
         C           -3.676878963248     0.726711670664     0.142087220950    12.000000000000
         C           -2.445660748797     1.429655661253     0.131777510749    12.000000000000
         C           -1.223604844033     0.715339029625     0.143206775280    12.000000000000
         C            0.007633706582     1.417397677228     0.141672428998    12.000000000000
         C            1.231215645015     0.702131218578     0.122845843342    12.000000000000
         C            2.460816937799     1.403306564116     0.142350352233    12.000000000000
         C            3.684426091464     0.687212956203     0.141521565955    12.000000000000
         C            4.918704738807     1.391749089180     0.129119744320    12.000000000000
         C            7.369797915229     2.779496731175     0.135327773000    12.000000000000
         C            7.380158503390     1.391232035846     0.136874455846    12.000000000000
         C            6.139795376391     0.674133151191     0.143202797657    12.000000000000
         H           -8.279194962078     3.407132569115     0.130112678493     1.007825032230
         H            8.315109308748     3.318132624614     0.131117197201     1.007825032230
         C           -8.591760100313     0.724847081035     0.136516196360    12.000000000000
         C           -8.599028766435    -0.632625278238     0.138639320943    12.000000000000
         C           -6.139817301850    -0.674122109163     0.131649979608    12.000000000000
         C           -7.380188274869    -1.391251661591     0.139066041149    12.000000000000
         C           -4.918688642988    -1.391740490039     0.143990477757    12.000000000000
         C           -3.684442458416    -0.687222787745     0.132958237693    12.000000000000
         C           -2.460821202979    -1.403330650834     0.143501323882    12.000000000000
         C           -1.231166175052    -0.702159336890     0.131380945090    12.000000000000
         C           -0.007573788119    -1.417404321420     0.138837469394    12.000000000000
         C            1.223643553157    -0.715260849273     0.148843091343    12.000000000000
         C            2.445666486600    -1.429628761016     0.137093078583    12.000000000000
         C            3.676862540115    -0.726692903565     0.132952494188    12.000000000000
         C            6.132244683688    -0.739964311859     0.131424519975    12.000000000000
         C            4.903514982772    -1.444442992550     0.145265594515    12.000000000000
         C            8.599010685959     0.632618394658     0.136736571990    12.000000000000
         C            8.591741325369    -0.724836339203     0.138472952251    12.000000000000
         C            7.364858601658    -1.470318137615     0.138242775558    12.000000000000
         H           -9.528310134550     1.276861977183     0.135046269396     1.007825032230
         H            9.541406811874     1.174587016435     0.135684539729     1.007825032230
         C           -7.369842072500    -2.779530617943     0.140874249571    12.000000000000
         C           -4.924603271782    -2.808422729350     0.133142617135    12.000000000000
         C           -6.166626658399    -3.516637664835     0.139444457294    12.000000000000
         C           -3.702514522437    -3.524667021130     0.143466686320    12.000000000000
         C           -2.467651147846    -2.821311434813     0.131422047964    12.000000000000
         C           -0.015137636839    -2.833127117409     0.131703636473    12.000000000000
         C           -1.247126003958    -3.534717647572     0.143267589881    12.000000000000
         C            1.209240906912    -3.547900150653     0.145806619672    12.000000000000
         C            2.437331859423    -2.847627210185     0.131666861361    12.000000000000
         C            4.894298181039    -2.861108440295     0.132487601433    12.000000000000
         C            3.664611092309    -3.564205317541     0.145367021373    12.000000000000
         C            6.128634852014    -3.582569529727     0.138712863331    12.000000000000
         C            7.339668501964    -2.858398779380     0.140228089412    12.000000000000
         H           -9.541453273991    -1.174548938674     0.140008737116     1.007825032230
         H            9.528257705340    -1.276904545914     0.139722760012     1.007825032230
         H           -8.315169206580    -3.318135325222     0.145046478101     1.007825032230
         H            8.279150979760    -3.407126261903     0.144567645395     1.007825032230
         C           -6.144998351434    -4.927632744793     0.140770455354    12.000000000000
         C           -3.706787510729    -4.941247186127     0.130949487266    12.000000000000
         C           -4.955594220733    -5.643479445504     0.138916621911    12.000000000000
         C           -2.486125488958    -5.654771046419     0.143889158310    12.000000000000
         C           -1.254062498212    -4.956107522011     0.132713552324    12.000000000000
         C            1.201008411136    -4.969265860202     0.133894676582    12.000000000000
         C           -0.030340837145    -5.669505775148     0.141737876246    12.000000000000
         C            3.653745938597    -4.980729247424     0.134652676330    12.000000000000
         C            2.425488533144    -5.681160107537     0.144029606882    12.000000000000
         C            6.091961455079    -4.993243435396     0.141007090004    12.000000000000
         C            4.894972281879    -5.696333892967     0.139770894174    12.000000000000
         H           -7.089896550772    -5.466985314248     0.145173217035     1.007825032230
         H            7.031051046468    -5.542644008342     0.144586869768     1.007825032230
         C           -4.923549484930    -7.078806571687     0.138361853006    12.000000000000
         C           -2.485346250970    -7.087713549939     0.135851960570    12.000000000000
         C           -3.751690054511    -7.763932629646     0.136046639495    12.000000000000
         C           -0.037953119720    -7.099450346479     0.136067685718    12.000000000000
         C           -1.277960263133    -7.772889856676     0.134082992956    12.000000000000
         C            2.409440157995    -7.114007484012     0.136930886528    12.000000000000
         C            1.194745774421    -7.786170837572     0.134778595647    12.000000000000
         C            4.847616889766    -7.131247582589     0.139437701188    12.000000000000
         C            3.668467443144    -7.803773464953     0.137089266824    12.000000000000
         H           -5.869944513148    -7.613816070051     0.139905889871     1.007825032230
         H            5.788245462656    -7.676317661324     0.140564820670     1.007825032230
         H           -3.753531102181    -8.851057041246     0.134210725066     1.007825032230
         H           -1.284308568626    -8.860860864507     0.129655609098     1.007825032230
         H            1.189217411964    -8.874146092599     0.130685958956     1.007825032230
         H            3.658542452092    -8.890846106063     0.135434725402     1.007825032230

  Running in c1 symmetry.

  Rotational constants: A =      0.00069  B =      0.00069  C =      0.00035 [cm^-1]
  Rotational constants: A =     20.77915  B =     20.77549  C =     10.55117 [MHz]
  Nuclear repulsion = 18079.040617532114993

  Charge       = -1
  Multiplicity = 1
  Electrons    = 642
  Nalpha       = 321
  Nbeta        = 321

  ==> Algorithm <==

  SCF Algorithm Type is DF.
  DIIS enabled.
  MOM disabled.
  Fractional occupation disabled.
  Guess Type is SAD.
  Energy threshold   = 1.00e-08
  Density threshold  = 1.00e-08
  Integral threshold = 1.00e-12

  ==> Primary Basis <==

  Basis Set: JUN-CC-PVDZ
    Blend: JUN-CC-PVDZ
    Number of shells: 880
    Number of basis functions: 1938
    Number of Cartesian functions: 2039
    Spherical Harmonics?: true
    Max angular momentum: 2

   => Loading Basis Set <=

    Name: (JUN-CC-PVDZ AUX)
    Role: JKFIT
    Keyword: DF_BASIS_SCF
    atoms 1                                                   entry B          line    90 file /opt/software/pc2/EB-SW/software/PSI4/1.9-foss-2022a/share/psi4/basis/jun-cc-pvdz-jkfit.gbs 
    atoms 2-5                                                 entry F          line   314 file /opt/software/pc2/EB-SW/software/PSI4/1.9-foss-2022a/share/psi4/basis/jun-cc-pvdz-jkfit.gbs 
    atoms 6-23, 30-42, 45-59, 62-78, 81-93, 98-108, 111-119   entry C          line   146 file /opt/software/pc2/EB-SW/software/PSI4/1.9-foss-2022a/share/psi4/basis/jun-cc-pvdz-jkfit.gbs 
    atoms 24-29, 43-44, 60-61, 79-80, 94-97, 109-110, 120-125 entry H          line    70 file /opt/software/pc2/EB-SW/software/PSI4/1.9-foss-2022a/share/psi4/basis/jun-cc-pvdz-jkfit.gbs 

  ==> Integral Setup <==

  ==> DiskDFJK: Density-Fitted J/K Matrices <==

    J tasked:                  Yes
    K tasked:                  Yes
    wK tasked:                  No
    OpenMP threads:             16
    Integrals threads:          16
    Memory [MiB]:            45776
    Algorithm:                Disk
    Integral Cache:           SAVE
    Schwarz Cutoff:          1E-12
    Fitting Condition:       1E-10

   => Auxiliary Basis Set <=

  Basis Set: (JUN-CC-PVDZ AUX)
    Blend: JUN-CC-PVDZ-JKFIT
    Number of shells: 2943
    Number of basis functions: 8531
    Number of Cartesian functions: 9791
    Spherical Harmonics?: true
    Max angular momentum: 3

  Minimum eigenvalue in the overlap matrix is 6.4241707021E-11.
  Reciprocal condition number of the overlap matrix is 2.5014536186E-12.
    Using canonical orthogonalization.
  Overall, 39 of 1938 possible MOs eliminated.


  ==> Pre-Iterations <==

  SCF Guess: Superposition of Atomic Densities via on-the-fly atomic UHF (no occupation information).

   -------------------------
    Irrep   Nso     Nmo    
   -------------------------
     A       1938    1899 
   -------------------------
    Total    1938    1899
   -------------------------

  ==> Iterations <==

                           Total Energy        Delta E     RMS |[F,P]|

   @DF-RHF iter SAD: -4088.81647919843226   -4.08882e+03   0.00000e+00 
   @DF-RHF iter   1: -4070.45355627841127    1.83629e+01   7.92465e-04 ADIIS/DIIS
   @DF-RHF iter   2: -4071.88933405588477   -1.43578e+00   3.03382e-04 ADIIS/DIIS
   @DF-RHF iter   3: -4072.05370766676333   -1.64374e-01   1.25254e-04 ADIIS/DIIS
   @DF-RHF iter   4: -4072.08060363159984   -2.68960e-02   6.72731e-05 DIIS
   @DF-RHF iter   5: -4072.08836212519691   -7.75849e-03   2.13714e-05 DIIS
   @DF-RHF iter   6: -4072.08934849064781   -9.86365e-04   7.17963e-06 DIIS
   @DF-RHF iter   7: -4072.08958700138146   -2.38511e-04   3.40516e-06 DIIS
   @DF-RHF iter   8: -4072.08968476186328   -9.77605e-05   1.40878e-06 DIIS
   @DF-RHF iter   9: -4072.08971149519175   -2.67333e-05   7.31167e-07 DIIS
   @DF-RHF iter  10: -4072.08971546290331   -3.96771e-06   3.01767e-07 DIIS
   @DF-RHF iter  11: -4072.08971633904002   -8.76137e-07   1.71170e-07 DIIS
   @DF-RHF iter  12: -4072.08971666567550   -3.26635e-07   1.11687e-07 DIIS
   @DF-RHF iter  13: -4072.08971692650130   -2.60826e-07   6.66903e-08 DIIS
   @DF-RHF iter  14: -4072.08971702820736   -1.01706e-07   4.29870e-08 DIIS
   @DF-RHF iter  15: -4072.08971706737020   -3.91628e-08   2.52301e-08 DIIS
   @DF-RHF iter  16: -4072.08971707611363   -8.74343e-09   1.22403e-08 DIIS
   @DF-RHF iter  17: -4072.08971707728688   -1.17325e-09   6.19718e-09 DIIS
  Energy and wave function converged.


  ==> Post-Iterations <==

    Orbital Energies [Eh]
    ---------------------

    Doubly Occupied:                                                      

       1A    -26.247034     2A    -26.172323     3A    -26.172112  
       4A    -26.172001     5A    -11.194752     6A    -11.193655  
       7A    -11.193140     8A    -11.189359     9A    -11.189350  
      10A    -11.189345    11A    -11.189339    12A    -11.189331  
      13A    -11.189325    14A    -11.189276    15A    -11.189273  
      16A    -11.189270    17A    -11.189259    18A    -11.189225  
      19A    -11.189216    20A    -11.188705    21A    -11.187775  
      22A    -11.187756    23A    -11.187750    24A    -11.187728  
      25A    -11.187710    26A    -11.187706    27A    -11.187692  
      28A    -11.187442    29A    -11.187401    30A    -11.187397  
      31A    -11.187391    32A    -11.187378    33A    -11.187370  
      34A    -11.187368    35A    -11.185945    36A    -11.185942  
      37A    -11.185939    38A    -11.185926    39A    -11.185910  
      40A    -11.185908    41A    -11.183959    42A    -11.183952  
      43A    -11.183910    44A    -11.183842    45A    -11.183826  
      46A    -11.183811    47A    -11.183581    48A    -11.183560  
      49A    -11.183540    50A    -11.183384    51A    -11.183371  
      52A    -11.183321    53A    -11.182982    54A    -11.182970  
      55A    -11.182949    56A    -11.182403    57A    -11.182392  
      58A    -11.182339    59A    -11.182131    60A    -11.182119  
      61A    -11.182066    62A    -11.181805    63A    -11.181779  
      64A    -11.181775    65A    -11.181154    66A    -11.181151  
      67A    -11.181144    68A    -11.181128    69A    -11.181116  
      70A    -11.181110    71A    -11.181083    72A    -11.181060  
      73A    -11.181044    74A    -11.181029    75A    -11.181027  
      76A    -11.181017    77A    -11.179376    78A    -11.179340  
      79A    -11.179303    80A    -11.179281    81A    -11.179227  
      82A    -11.179206    83A    -11.176619    84A    -11.176591  
      85A    -11.176521    86A    -11.176514    87A    -11.176483  
      88A    -11.176460    89A    -11.174597    90A    -11.174588  
      91A    -11.174579    92A    -11.174503    93A    -11.174463  
      94A    -11.174419    95A    -11.163548    96A    -11.163227  
      97A    -11.162820    98A    -11.159377    99A    -11.159191  
     100A    -11.158338   101A     -7.679332   102A     -1.829109  
     103A     -1.503724   104A     -1.459344   105A     -1.459072  
     106A     -1.170331   107A     -1.169638   108A     -1.166483  
     109A     -1.146984   110A     -1.146331   111A     -1.143026  
     112A     -1.143011   113A     -1.125661   114A     -1.123171  
     115A     -1.119266   116A     -1.099029   117A     -1.099021  
     118A     -1.087492   119A     -1.087194   120A     -1.075594  
     121A     -1.075591   122A     -1.068550   123A     -1.068370  
     124A     -1.068318   125A     -1.050821   126A     -1.039396  
     127A     -1.037971   128A     -1.035133   129A     -1.012416  
     130A     -1.012314   131A     -1.011380   132A     -1.011356  
     133A     -0.998616   134A     -0.992835   135A     -0.992709  
     136A     -0.989873   137A     -0.989838   138A     -0.966976  
     139A     -0.966929   140A     -0.964719   141A     -0.964713  
     142A     -0.963545   143A     -0.946115   144A     -0.939718  
     145A     -0.929293   146A     -0.926067   147A     -0.922762  
     148A     -0.922718   149A     -0.917465   150A     -0.910647  
     151A     -0.910554   152A     -0.883206   153A     -0.880982  
     154A     -0.880930   155A     -0.849209   156A     -0.848936  
     157A     -0.831799   158A     -0.831764   159A     -0.828706  
     160A     -0.828639   161A     -0.815407   162A     -0.815338  
     163A     -0.811472   164A     -0.803933   165A     -0.798029  
     166A     -0.794273   167A     -0.794151   168A     -0.777778  
     169A     -0.766282   170A     -0.764969   171A     -0.760455  
     172A     -0.760443   173A     -0.760258   174A     -0.759508  
     175A     -0.759497   176A     -0.730437   177A     -0.730341  
     178A     -0.713418   179A     -0.713273   180A     -0.711901  
     181A     -0.711881   182A     -0.692870   183A     -0.691493  
     184A     -0.690354   185A     -0.690321   186A     -0.680826  
     187A     -0.675445   188A     -0.660569   189A     -0.649262  
     190A     -0.648779   191A     -0.648767   192A     -0.648488  
     193A     -0.648470   194A     -0.647751   195A     -0.639103  
     196A     -0.625474   197A     -0.625462   198A     -0.624277  
     199A     -0.624218   200A     -0.611909   201A     -0.611899  
     202A     -0.610437   203A     -0.610394   204A     -0.608363  
     205A     -0.604647   206A     -0.604615   207A     -0.582841  
     208A     -0.582162   209A     -0.581248   210A     -0.581079  
     211A     -0.572771   212A     -0.572736   213A     -0.565422  
     214A     -0.565132   215A     -0.565038   216A     -0.561259  
     217A     -0.561231   218A     -0.553005   219A     -0.549186  
     220A     -0.549108   221A     -0.541524   222A     -0.541436  
     223A     -0.541376   224A     -0.538784   225A     -0.538621  
     226A     -0.530880   227A     -0.530853   228A     -0.528305  
     229A     -0.528187   230A     -0.522814   231A     -0.522722  
     232A     -0.521925   233A     -0.521888   234A     -0.520702  
     235A     -0.520690   236A     -0.519426   237A     -0.518937  
     238A     -0.508872   239A     -0.508829   240A     -0.507363  
     241A     -0.506258   242A     -0.506187   243A     -0.506006  
     244A     -0.505995   245A     -0.499098   246A     -0.499092  
     247A     -0.498698   248A     -0.493453   249A     -0.491456  
     250A     -0.491430   251A     -0.487096   252A     -0.485955  
     253A     -0.483995   254A     -0.482631   255A     -0.482598  
     256A     -0.476712   257A     -0.476612   258A     -0.476145  
     259A     -0.468946   260A     -0.463372   261A     -0.463207  
     262A     -0.462654   263A     -0.462576   264A     -0.452151  
     265A     -0.452050   266A     -0.451361   267A     -0.448319  
     268A     -0.448223   269A     -0.443909   270A     -0.441919  
     271A     -0.441914   272A     -0.438379   273A     -0.438348  
     274A     -0.422288   275A     -0.422202   276A     -0.418029  
     277A     -0.417370   278A     -0.416501   279A     -0.414179  
     280A     -0.414113   281A     -0.407219   282A     -0.403661  
     283A     -0.403638   284A     -0.398644   285A     -0.391254  
     286A     -0.384746   287A     -0.384397   288A     -0.384163  
     289A     -0.382939   290A     -0.371760   291A     -0.371643  
     292A     -0.362840   293A     -0.361783   294A     -0.357548  
     295A     -0.337044   296A     -0.336238   297A     -0.331097  
     298A     -0.331043   299A     -0.310302   300A     -0.310143  
     301A     -0.308383   302A     -0.308326   303A     -0.292096  
     304A     -0.276780   305A     -0.276755   306A     -0.275513  
     307A     -0.261052   308A     -0.261048   309A     -0.255479  
     310A     -0.228575   311A     -0.226064   312A     -0.225959  
     313A     -0.222305   314A     -0.221787   315A     -0.221325  
     316A     -0.211747   317A     -0.187477   318A     -0.147395  
     319A     -0.146725   320A     -0.134463   321A     -0.134358  

    Virtual:                                                              

     322A      0.071210   323A      0.071328   324A      0.097522  
     325A      0.097532   326A      0.098184   327A      0.099827  
     328A      0.099855   329A      0.105183   330A      0.107631  
     331A      0.108575   332A      0.108679   333A      0.108814  
     334A      0.113166   335A      0.113172   336A      0.124543  
     337A      0.124546   338A      0.130390   339A      0.133444  
     340A      0.138442   341A      0.139644   342A      0.140441  
     343A      0.141152   344A      0.141531   345A      0.143888  
     346A      0.144327   347A      0.145082   348A      0.145410  
     349A      0.145457   350A      0.149117   351A      0.151927  
     352A      0.152189   353A      0.152279   354A      0.152411  
     355A      0.152447   356A      0.153568   357A      0.153667  
     358A      0.155511   359A      0.160781   360A      0.164480  
     361A      0.164534   362A      0.165072   363A      0.166480  
     364A      0.166498   365A      0.167365   366A      0.167728  
     367A      0.167848   368A      0.173872   369A      0.174718  
     370A      0.175901   371A      0.176037   372A      0.178697  
     373A      0.179076   374A      0.179513   375A      0.181053  
     376A      0.182559   377A      0.182626   378A      0.183677  
     379A      0.183707   380A      0.192349   381A      0.192358  
     382A      0.193136   383A      0.199224   384A      0.199339  
     385A      0.200862   386A      0.201223   387A      0.201335  
     388A      0.206560   389A      0.206673   390A      0.208164  
     391A      0.208275   392A      0.208326   393A      0.216299  
     394A      0.216456   395A      0.218142   396A      0.218652  
     397A      0.219145   398A      0.220993   399A      0.222886  
     400A      0.223811   401A      0.223944   402A      0.224768  
     403A      0.226309   404A      0.226315   405A      0.226686  
     406A      0.228820   407A      0.228947   408A      0.230372  
     409A      0.230483   410A      0.232578   411A      0.235910  
     412A      0.235930   413A      0.236676   414A      0.239990  
     415A      0.244022   416A      0.244035   417A      0.245465  
     418A      0.245961   419A      0.246014   420A      0.246702  
     421A      0.246764   422A      0.252186   423A      0.253878  
     424A      0.255106   425A      0.255383   426A      0.256023  
     427A      0.259862   428A      0.260622   429A      0.260837  
     430A      0.262413   431A      0.262735   432A      0.264202  
     433A      0.264863   434A      0.265704   435A      0.267043  
     436A      0.272239   437A      0.272972   438A      0.274046  
     439A      0.274315   440A      0.275569   441A      0.275617  
     442A      0.276138   443A      0.276194   444A      0.276551  
     445A      0.277478   446A      0.278422   447A      0.278527  
     448A      0.279215   449A      0.279255   450A      0.281628  
     451A      0.281777   452A      0.284425   453A      0.284495  
     454A      0.287492   455A      0.288003   456A      0.288994  
     457A      0.289485   458A      0.291160   459A      0.294820  
     460A      0.294868   461A      0.296231   462A      0.296363  
     463A      0.297066   464A      0.297659   465A      0.297670  
     466A      0.298096   467A      0.299463   468A      0.302107  
     469A      0.302172   470A      0.303313   471A      0.305182  
     472A      0.308287   473A      0.311322   474A      0.312282  
     475A      0.312770   476A      0.317540   477A      0.319065  
     478A      0.319098   479A      0.320698   480A      0.323121  
     481A      0.323493   482A      0.323559   483A      0.324577  
     484A      0.325944   485A      0.326279   486A      0.327255  
     487A      0.327606   488A      0.328691   489A      0.330842  
     490A      0.331344   491A      0.332491   492A      0.332548  
     493A      0.341950   494A      0.342061   495A      0.342386  
     496A      0.342443   497A      0.342506   498A      0.343434  
     499A      0.344020   500A      0.345495   501A      0.345621  
     502A      0.346311   503A      0.348202   504A      0.348331  
     505A      0.349388   506A      0.350342   507A      0.350827  
     508A      0.353459   509A      0.356073   510A      0.356131  
     511A      0.360962   512A      0.361242   513A      0.362525  
     514A      0.362576   515A      0.363150   516A      0.367139  
     517A      0.368938   518A      0.369412   519A      0.369712  
     520A      0.369808   521A      0.371682   522A      0.371980  
     523A      0.372162   524A      0.373942   525A      0.374671  
     526A      0.375596   527A      0.375642   528A      0.376203  
     529A      0.376415   530A      0.376577   531A      0.378506  
     532A      0.381538   533A      0.382021   534A      0.382072  
     535A      0.384546   536A      0.384793   537A      0.387368  
     538A      0.387509   539A      0.389447   540A      0.389680  
     541A      0.392419   542A      0.392529   543A      0.392951  
     544A      0.393565   545A      0.394404   546A      0.395204  
     547A      0.397521   548A      0.397620   549A      0.399357  
     550A      0.399732   551A      0.399776   552A      0.400716  
     553A      0.400768   554A      0.402499   555A      0.405813  
     556A      0.405851   557A      0.407003   558A      0.408197  
     559A      0.411027   560A      0.411199   561A      0.411520  
     562A      0.411641   563A      0.415426   564A      0.418562  
     565A      0.418619   566A      0.418816   567A      0.419255  
     568A      0.419373   569A      0.426227   570A      0.426810  
     571A      0.427672   572A      0.428946   573A      0.429156  
     574A      0.430078   575A      0.434654   576A      0.434808  
     577A      0.435659   578A      0.435794   579A      0.437665  
     580A      0.438386   581A      0.438748   582A      0.441576  
     583A      0.442970   584A      0.443265   585A      0.445993  
     586A      0.446680   587A      0.447559   588A      0.447620  
     589A      0.448269   590A      0.450275   591A      0.450540  
     592A      0.453018   593A      0.453108   594A      0.457780  
     595A      0.458003   596A      0.458203   597A      0.459435  
     598A      0.460047   599A      0.462840   600A      0.462874  
     601A      0.463176   602A      0.465115   603A      0.467530  
     604A      0.467668   605A      0.468424   606A      0.468460  
     607A      0.468684   608A      0.470194   609A      0.470267  
     610A      0.470409   611A      0.470818   612A      0.472833  
     613A      0.472886   614A      0.474098   615A      0.474991  
     616A      0.475382   617A      0.476579   618A      0.477265  
     619A      0.478574   620A      0.479171   621A      0.479938  
     622A      0.480078   623A      0.480426   624A      0.480464  
     625A      0.482538   626A      0.484013   627A      0.484923  
     628A      0.485405   629A      0.488511   630A      0.489452  
     631A      0.489539   632A      0.490509   633A      0.490599  
     634A      0.490830   635A      0.491300   636A      0.498095  
     637A      0.499823   638A      0.500002   639A      0.502017  
     640A      0.503333   641A      0.503493   642A      0.503575  
     643A      0.504229   644A      0.504297   645A      0.505653  
     646A      0.506161   647A      0.506913   648A      0.507007  
     649A      0.507678   650A      0.509369   651A      0.509426  
     652A      0.509984   653A      0.510313   654A      0.513038  
     655A      0.514327   656A      0.514848   657A      0.515113  
     658A      0.516904   659A      0.519836   660A      0.520679  
     661A      0.520963   662A      0.523158   663A      0.523602  
     664A      0.524291   665A      0.524306   666A      0.524537  
     667A      0.525749   668A      0.526543   669A      0.526831  
     670A      0.527040   671A      0.529809   672A      0.531388  
     673A      0.531780   674A      0.533900   675A      0.534621  
     676A      0.536221   677A      0.538229   678A      0.539134  
     679A      0.540292   680A      0.541675   681A      0.542292  
     682A      0.543086   683A      0.543321   684A      0.543573  
     685A      0.544597   686A      0.545647   687A      0.545742  
     688A      0.548514   689A      0.549968   690A      0.551289  
     691A      0.552701   692A      0.553768   693A      0.553853  
     694A      0.555243   695A      0.557246   696A      0.557432  
     697A      0.558565   698A      0.558815   699A      0.559393  
     700A      0.560955   701A      0.562748   702A      0.563986  
     703A      0.564815   704A      0.565624   705A      0.567088  
     706A      0.568303   707A      0.568512   708A      0.569201  
     709A      0.569275   710A      0.571291   711A      0.571782  
     712A      0.573041   713A      0.573150   714A      0.573495  
     715A      0.575535   716A      0.575671   717A      0.577662  
     718A      0.579307   719A      0.582772   720A      0.583961  
     721A      0.585608   722A      0.586465   723A      0.586942  
     724A      0.588086   725A      0.588533   726A      0.589681  
     727A      0.591576   728A      0.593174   729A      0.593436  
     730A      0.594987   731A      0.596279   732A      0.596801  
     733A      0.598125   734A      0.601434   735A      0.604842  
     736A      0.607105   737A      0.607257   738A      0.607848  
     739A      0.608853   740A      0.612124   741A      0.612717  
     742A      0.612892   743A      0.614683   744A      0.615744  
     745A      0.620980   746A      0.621329   747A      0.621630  
     748A      0.625636   749A      0.625958   750A      0.630049  
     751A      0.631113   752A      0.632056   753A      0.633309  
     754A      0.633458   755A      0.634626   756A      0.634835  
     757A      0.635820   758A      0.637167   759A      0.637875  
     760A      0.643439   761A      0.643754   762A      0.644055  
     763A      0.644317   764A      0.644549   765A      0.645794  
     766A      0.646771   767A      0.649447   768A      0.651801  
     769A      0.656161   770A      0.656585   771A      0.658751  
     772A      0.662230   773A      0.663311   774A      0.663475  
     775A      0.667066   776A      0.669518   777A      0.670556  
     778A      0.673658   779A      0.675987   780A      0.676538  
     781A      0.676742   782A      0.677261   783A      0.679210  
     784A      0.680187   785A      0.681319   786A      0.681598  
     787A      0.687225   788A      0.687727   789A      0.688560  
     790A      0.691420   791A      0.691653   792A      0.692233  
     793A      0.692425   794A      0.700169   795A      0.702993  
     796A      0.703591   797A      0.706734   798A      0.707253  
     799A      0.708600   800A      0.716536   801A      0.716817  
     802A      0.717281   803A      0.722409   804A      0.723056  
     805A      0.730187   806A      0.732727   807A      0.733078  
     808A      0.735137   809A      0.738962   810A      0.739100  
     811A      0.740953   812A      0.741516   813A      0.745689  
     814A      0.746980   815A      0.747434   816A      0.754790  
     817A      0.757217   818A      0.757457   819A      0.763265  
     820A      0.763367   821A      0.763806   822A      0.763992  
     823A      0.765121   824A      0.769953   825A      0.771351  
     826A      0.771675   827A      0.777125   828A      0.777869  
     829A      0.780648   830A      0.785675   831A      0.786009  
     832A      0.789975   833A      0.797410   834A      0.797748  
     835A      0.801482   836A      0.805319   837A      0.808852  
     838A      0.809242   839A      0.814794   840A      0.820723  
     841A      0.820864   842A      0.821662   843A      0.822410  
     844A      0.822441   845A      0.829122   846A      0.831835  
     847A      0.833345   848A      0.844245   849A      0.845129  
     850A      0.856599   851A      0.857538   852A      0.859051  
     853A      0.859135   854A      0.869586   855A      0.870354  
     856A      0.872199   857A      0.872870   858A      0.874203  
     859A      0.877279   860A      0.878739   861A      0.878790  
     862A      0.879664   863A      0.880230   864A      0.884752  
     865A      0.884955   866A      0.886258   867A      0.886975  
     868A      0.888478   869A      0.888571   870A      0.892314  
     871A      0.895766   872A      0.895863   873A      0.899889  
     874A      0.900739   875A      0.902949   876A      0.906998  
     877A      0.909829   878A      0.913268   879A      0.914055  
     880A      0.915179   881A      0.915466   882A      0.918049  
     883A      0.918550   884A      0.923950   885A      0.925806  
     886A      0.926109   887A      0.928178   888A      0.928936  
     889A      0.933192   890A      0.936786   891A      0.937703  
     892A      0.938005   893A      0.938210   894A      0.939263  
     895A      0.939676   896A      0.944499   897A      0.944833  
     898A      0.946023   899A      0.946529   900A      0.946864  
     901A      0.954705   902A      0.956330   903A      0.958848  
     904A      0.960114   905A      0.960871   906A      0.961248  
     907A      0.962747   908A      0.963336   909A      0.965854  
     910A      0.966451   911A      0.970532   912A      0.970763  
     913A      0.971733   914A      0.972911   915A      0.974384  
     916A      0.979045   917A      0.979542   918A      0.980768  
     919A      0.984618   920A      0.985994   921A      0.987213  
     922A      0.987438   923A      0.989505   924A      0.989626  
     925A      0.990866   926A      0.991148   927A      0.992539  
     928A      0.993593   929A      0.993726   930A      0.996316  
     931A      1.001521   932A      1.005590   933A      1.006442  
     934A      1.007203   935A      1.009751   936A      1.009922  
     937A      1.013857   938A      1.015622   939A      1.017001  
     940A      1.018460   941A      1.019016   942A      1.019249  
     943A      1.019704   944A      1.021529   945A      1.023221  
     946A      1.023909   947A      1.026892   948A      1.027131  
     949A      1.027971   950A      1.028573   951A      1.028624  
     952A      1.031953   953A      1.032483   954A      1.036919  
     955A      1.037777   956A      1.041412   957A      1.042419  
     958A      1.047744   959A      1.048423   960A      1.048744  
     961A      1.052811   962A      1.057706   963A      1.059144  
     964A      1.059963   965A      1.061435   966A      1.064916  
     967A      1.066759   968A      1.069755   969A      1.069837  
     970A      1.070096   971A      1.074635   972A      1.076110  
     973A      1.076871   974A      1.077041   975A      1.078226  
     976A      1.078318   977A      1.078793   978A      1.084748  
     979A      1.085722   980A      1.087189   981A      1.087577  
     982A      1.088105   983A      1.094027   984A      1.096510  
     985A      1.097313   986A      1.099048   987A      1.101786  
     988A      1.103782   989A      1.108452   990A      1.112276  
     991A      1.112899   992A      1.119255   993A      1.119455  
     994A      1.120189   995A      1.120645   996A      1.120678  
     997A      1.122096   998A      1.122567   999A      1.123170  
    1000A      1.123266  1001A      1.126526  1002A      1.126557  
    1003A      1.128719  1004A      1.128954  1005A      1.130278  
    1006A      1.135236  1007A      1.135487  1008A      1.135939  
    1009A      1.137394  1010A      1.137723  1011A      1.139075  
    1012A      1.139376  1013A      1.141381  1014A      1.143031  
    1015A      1.143217  1016A      1.144298  1017A      1.144671  
    1018A      1.145673  1019A      1.146050  1020A      1.148032  
    1021A      1.149849  1022A      1.150820  1023A      1.151015  
    1024A      1.152405  1025A      1.152559  1026A      1.152745  
    1027A      1.153154  1028A      1.153809  1029A      1.153931  
    1030A      1.154729  1031A      1.155965  1032A      1.158801  
    1033A      1.159132  1034A      1.159152  1035A      1.159958  
    1036A      1.160278  1037A      1.160723  1038A      1.161020  
    1039A      1.161421  1040A      1.163517  1041A      1.164668  
    1042A      1.164828  1043A      1.169033  1044A      1.169650  
    1045A      1.170247  1046A      1.171331  1047A      1.172488  
    1048A      1.173611  1049A      1.179044  1050A      1.180255  
    1051A      1.181585  1052A      1.184987  1053A      1.186852  
    1054A      1.187390  1055A      1.187939  1056A      1.188328  
    1057A      1.191892  1058A      1.193533  1059A      1.195422  
    1060A      1.196997  1061A      1.197277  1062A      1.198276  
    1063A      1.203517  1064A      1.205557  1065A      1.207206  
    1066A      1.209916  1067A      1.210508  1068A      1.212505  
    1069A      1.213101  1070A      1.215164  1071A      1.219072  
    1072A      1.221440  1073A      1.224014  1074A      1.225175  
    1075A      1.228323  1076A      1.229118  1077A      1.231395  
    1078A      1.231976  1079A      1.232140  1080A      1.233008  
    1081A      1.233853  1082A      1.239246  1083A      1.239958  
    1084A      1.240109  1085A      1.242543  1086A      1.244190  
    1087A      1.244675  1088A      1.248290  1089A      1.248927  
    1090A      1.249984  1091A      1.254867  1092A      1.256083  
    1093A      1.256629  1094A      1.258449  1095A      1.259599  
    1096A      1.260706  1097A      1.261725  1098A      1.262379  
    1099A      1.264596  1100A      1.265523  1101A      1.267061  
    1102A      1.268412  1103A      1.275154  1104A      1.276083  
    1105A      1.277531  1106A      1.281727  1107A      1.282334  
    1108A      1.284230  1109A      1.288196  1110A      1.288772  
    1111A      1.290702  1112A      1.290980  1113A      1.293293  
    1114A      1.293618  1115A      1.293942  1116A      1.294683  
    1117A      1.294848  1118A      1.300019  1119A      1.301094  
    1120A      1.303397  1121A      1.306220  1122A      1.311768  
    1123A      1.320786  1124A      1.323425  1125A      1.324010  
    1126A      1.326243  1127A      1.326583  1128A      1.327360  
    1129A      1.332143  1130A      1.337501  1131A      1.337511  
    1132A      1.339455  1133A      1.340964  1134A      1.341187  
    1135A      1.346119  1136A      1.346587  1137A      1.354280  
    1138A      1.354436  1139A      1.359148  1140A      1.359265  
    1141A      1.359399  1142A      1.363785  1143A      1.365417  
    1144A      1.367744  1145A      1.367823  1146A      1.371795  
    1147A      1.377140  1148A      1.379312  1149A      1.380057  
    1150A      1.386263  1151A      1.386344  1152A      1.388324  
    1153A      1.388787  1154A      1.389686  1155A      1.389830  
    1156A      1.391716  1157A      1.395243  1158A      1.395681  
    1159A      1.399627  1160A      1.401117  1161A      1.401510  
    1162A      1.401972  1163A      1.402177  1164A      1.405308  
    1165A      1.406527  1166A      1.408515  1167A      1.408823  
    1168A      1.410341  1169A      1.413180  1170A      1.414061  
    1171A      1.417539  1172A      1.418906  1173A      1.428251  
    1174A      1.430601  1175A      1.430757  1176A      1.432561  
    1177A      1.432920  1178A      1.434927  1179A      1.436663  
    1180A      1.436846  1181A      1.443004  1182A      1.448125  
    1183A      1.450930  1184A      1.451345  1185A      1.460357  
    1186A      1.461074  1187A      1.461110  1188A      1.461269  
    1189A      1.463573  1190A      1.464507  1191A      1.465151  
    1192A      1.465637  1193A      1.469495  1194A      1.476712  
    1195A      1.478737  1196A      1.479074  1197A      1.479773  
    1198A      1.482921  1199A      1.483023  1200A      1.483149  
    1201A      1.483903  1202A      1.484057  1203A      1.484592  
    1204A      1.493658  1205A      1.494260  1206A      1.495830  
    1207A      1.496089  1208A      1.500317  1209A      1.500649  
    1210A      1.501338  1211A      1.506187  1212A      1.506544  
    1213A      1.507318  1214A      1.507819  1215A      1.511514  
    1216A      1.511928  1217A      1.514711  1218A      1.515283  
    1219A      1.520321  1220A      1.523221  1221A      1.524115  
    1222A      1.526707  1223A      1.527067  1224A      1.527880  
    1225A      1.529318  1226A      1.535894  1227A      1.539848  
    1228A      1.539873  1229A      1.542656  1230A      1.547330  
    1231A      1.547767  1232A      1.549341  1233A      1.550688  
    1234A      1.551262  1235A      1.559969  1236A      1.562065  
    1237A      1.562678  1238A      1.564987  1239A      1.566229  
    1240A      1.568376  1241A      1.569728  1242A      1.570418  
    1243A      1.574186  1244A      1.574297  1245A      1.584191  
    1246A      1.596689  1247A      1.596809  1248A      1.611344  
    1249A      1.612055  1250A      1.615815  1251A      1.619267  
    1252A      1.620126  1253A      1.621817  1254A      1.625599  
    1255A      1.650578  1256A      1.651799  1257A      1.661815  
    1258A      1.663761  1259A      1.669765  1260A      1.674629  
    1261A      1.676679  1262A      1.683135  1263A      1.683978  
    1264A      1.686142  1265A      1.686921  1266A      1.688400  
    1267A      1.691981  1268A      1.692969  1269A      1.693655  
    1270A      1.694605  1271A      1.695024  1272A      1.695244  
    1273A      1.697401  1274A      1.697880  1275A      1.700060  
    1276A      1.702194  1277A      1.703916  1278A      1.705622  
    1279A      1.706144  1280A      1.707536  1281A      1.709560  
    1282A      1.712043  1283A      1.712476  1284A      1.714608  
    1285A      1.715729  1286A      1.716397  1287A      1.718133  
    1288A      1.718863  1289A      1.719166  1290A      1.721546  
    1291A      1.722244  1292A      1.724220  1293A      1.724755  
    1294A      1.725814  1295A      1.727762  1296A      1.728071  
    1297A      1.728544  1298A      1.728944  1299A      1.736786  
    1300A      1.737932  1301A      1.738404  1302A      1.741103  
    1303A      1.741479  1304A      1.747907  1305A      1.748336  
    1306A      1.748570  1307A      1.750078  1308A      1.751917  
    1309A      1.752596  1310A      1.759440  1311A      1.759802  
    1312A      1.761887  1313A      1.763308  1314A      1.767938  
    1315A      1.768450  1316A      1.769549  1317A      1.770771  
    1318A      1.771024  1319A      1.771752  1320A      1.780033  
    1321A      1.780571  1322A      1.783755  1323A      1.784850  
    1324A      1.790908  1325A      1.791612  1326A      1.792764  
    1327A      1.797471  1328A      1.798576  1329A      1.799053  
    1330A      1.799531  1331A      1.802873  1332A      1.808586  
    1333A      1.812447  1334A      1.813778  1335A      1.815841  
    1336A      1.818265  1337A      1.818651  1338A      1.828380  
    1339A      1.828718  1340A      1.841938  1341A      1.848399  
    1342A      1.853382  1343A      1.854326  1344A      1.854569  
    1345A      1.854741  1346A      1.857487  1347A      1.860830  
    1348A      1.863027  1349A      1.866371  1350A      1.873501  
    1351A      1.892493  1352A      1.893658  1353A      1.900197  
    1354A      1.901143  1355A      1.901764  1356A      1.902705  
    1357A      1.904562  1358A      1.905058  1359A      1.907114  
    1360A      1.909340  1361A      1.910203  1362A      1.910327  
    1363A      1.910784  1364A      1.913661  1365A      1.916800  
    1366A      1.921091  1367A      1.926159  1368A      1.927704  
    1369A      1.928537  1370A      1.928705  1371A      1.934280  
    1372A      1.934498  1373A      1.936797  1374A      1.937317  
    1375A      1.940386  1376A      1.944412  1377A      1.944588  
    1378A      1.945066  1379A      1.950144  1380A      1.950216  
    1381A      1.951363  1382A      1.951617  1383A      1.955342  
    1384A      1.956069  1385A      1.960067  1386A      1.960854  
    1387A      1.962248  1388A      1.964184  1389A      1.965855  
    1390A      1.967001  1391A      1.968859  1392A      1.973846  
    1393A      1.974809  1394A      1.975158  1395A      1.976644  
    1396A      1.982664  1397A      1.987689  1398A      1.988348  
    1399A      1.995225  1400A      1.999405  1401A      1.999623  
    1402A      2.000765  1403A      2.002310  1404A      2.003006  
    1405A      2.004304  1406A      2.007775  1407A      2.008342  
    1408A      2.010028  1409A      2.011017  1410A      2.012319  
    1411A      2.014477  1412A      2.015884  1413A      2.016928  
    1414A      2.017259  1415A      2.017822  1416A      2.019961  
    1417A      2.023430  1418A      2.025817  1419A      2.027249  
    1420A      2.032233  1421A      2.033789  1422A      2.036068  
    1423A      2.036884  1424A      2.039338  1425A      2.040312  
    1426A      2.044127  1427A      2.046494  1428A      2.049192  
    1429A      2.051795  1430A      2.058044  1431A      2.062535  
    1432A      2.063844  1433A      2.064258  1434A      2.064464  
    1435A      2.065875  1436A      2.067763  1437A      2.074962  
    1438A      2.075413  1439A      2.075825  1440A      2.076497  
    1441A      2.078502  1442A      2.081006  1443A      2.081428  
    1444A      2.087516  1445A      2.088044  1446A      2.091764  
    1447A      2.092996  1448A      2.095019  1449A      2.096069  
    1450A      2.096854  1451A      2.097036  1452A      2.099509  
    1453A      2.100390  1454A      2.107024  1455A      2.110314  
    1456A      2.111279  1457A      2.112404  1458A      2.112600  
    1459A      2.115582  1460A      2.116547  1461A      2.116952  
    1462A      2.117689  1463A      2.121955  1464A      2.125980  
    1465A      2.126360  1466A      2.128087  1467A      2.128581  
    1468A      2.130051  1469A      2.136845  1470A      2.138031  
    1471A      2.138348  1472A      2.139688  1473A      2.141093  
    1474A      2.141641  1475A      2.147275  1476A      2.148877  
    1477A      2.154214  1478A      2.155411  1479A      2.155853  
    1480A      2.156487  1481A      2.157509  1482A      2.159661  
    1483A      2.159997  1484A      2.161232  1485A      2.161923  
    1486A      2.162990  1487A      2.163835  1488A      2.163998  
    1489A      2.164868  1490A      2.165535  1491A      2.167542  
    1492A      2.169552  1493A      2.172650  1494A      2.173248  
    1495A      2.173686  1496A      2.174675  1497A      2.176133  
    1498A      2.177253  1499A      2.178835  1500A      2.183140  
    1501A      2.184765  1502A      2.185869  1503A      2.187539  
    1504A      2.189998  1505A      2.190695  1506A      2.192005  
    1507A      2.193243  1508A      2.193592  1509A      2.194600  
    1510A      2.195616  1511A      2.197233  1512A      2.200239  
    1513A      2.201194  1514A      2.202758  1515A      2.203694  
    1516A      2.205404  1517A      2.205640  1518A      2.206614  
    1519A      2.208156  1520A      2.208534  1521A      2.209033  
    1522A      2.214502  1523A      2.214976  1524A      2.218089  
    1525A      2.221986  1526A      2.223246  1527A      2.224075  
    1528A      2.224707  1529A      2.225535  1530A      2.227718  
    1531A      2.229265  1532A      2.235268  1533A      2.235721  
    1534A      2.240120  1535A      2.241477  1536A      2.242915  
    1537A      2.243543  1538A      2.245696  1539A      2.248185  
    1540A      2.249927  1541A      2.251015  1542A      2.252867  
    1543A      2.254813  1544A      2.255940  1545A      2.257483  
    1546A      2.258186  1547A      2.259122  1548A      2.265966  
    1549A      2.266951  1550A      2.269713  1551A      2.271613  
    1552A      2.272232  1553A      2.277462  1554A      2.279762  
    1555A      2.279923  1556A      2.282244  1557A      2.283102  
    1558A      2.288113  1559A      2.288795  1560A      2.290823  
    1561A      2.293354  1562A      2.295569  1563A      2.296297  
    1564A      2.297571  1565A      2.298520  1566A      2.299585  
    1567A      2.299783  1568A      2.301756  1569A      2.303282  
    1570A      2.304244  1571A      2.304845  1572A      2.306470  
    1573A      2.311001  1574A      2.312958  1575A      2.316528  
    1576A      2.318111  1577A      2.319469  1578A      2.321891  
    1579A      2.323123  1580A      2.328346  1581A      2.329585  
    1582A      2.333950  1583A      2.334867  1584A      2.335025  
    1585A      2.339786  1586A      2.343440  1587A      2.344380  
    1588A      2.344949  1589A      2.350643  1590A      2.351554  
    1591A      2.353004  1592A      2.356082  1593A      2.356509  
    1594A      2.366386  1595A      2.367076  1596A      2.372013  
    1597A      2.372989  1598A      2.378283  1599A      2.379478  
    1600A      2.385261  1601A      2.391396  1602A      2.393267  
    1603A      2.400500  1604A      2.400924  1605A      2.402404  
    1606A      2.406643  1607A      2.409820  1608A      2.410721  
    1609A      2.411502  1610A      2.413573  1611A      2.415380  
    1612A      2.416497  1613A      2.417739  1614A      2.418459  
    1615A      2.419097  1616A      2.419474  1617A      2.420504  
    1618A      2.420770  1619A      2.422244  1620A      2.428110  
    1621A      2.428721  1622A      2.434997  1623A      2.442558  
    1624A      2.447133  1625A      2.451819  1626A      2.460043  
    1627A      2.460754  1628A      2.463843  1629A      2.467084  
    1630A      2.476874  1631A      2.485723  1632A      2.487297  
    1633A      2.494880  1634A      2.497138  1635A      2.498611  
    1636A      2.501842  1637A      2.503409  1638A      2.514569  
    1639A      2.514920  1640A      2.523727  1641A      2.528110  
    1642A      2.535987  1643A      2.538519  1644A      2.541516  
    1645A      2.541801  1646A      2.544994  1647A      2.545489  
    1648A      2.553166  1649A      2.555091  1650A      2.561559  
    1651A      2.566030  1652A      2.568010  1653A      2.578750  
    1654A      2.580601  1655A      2.581253  1656A      2.583459  
    1657A      2.592268  1658A      2.607906  1659A      2.608985  
    1660A      2.610705  1661A      2.614943  1662A      2.617801  
    1663A      2.619122  1664A      2.623154  1665A      2.623858  
    1666A      2.629330  1667A      2.629923  1668A      2.635368  
    1669A      2.636804  1670A      2.640522  1671A      2.643076  
    1672A      2.646850  1673A      2.653512  1674A      2.656653  
    1675A      2.658148  1676A      2.658699  1677A      2.659784  
    1678A      2.660066  1679A      2.660161  1680A      2.663118  
    1681A      2.667967  1682A      2.677760  1683A      2.678145  
    1684A      2.685966  1685A      2.686460  1686A      2.688660  
    1687A      2.689066  1688A      2.696441  1689A      2.697237  
    1690A      2.707374  1691A      2.707755  1692A      2.715442  
    1693A      2.715668  1694A      2.720983  1695A      2.723392  
    1696A      2.724676  1697A      2.725311  1698A      2.728328  
    1699A      2.731089  1700A      2.731446  1701A      2.731688  
    1702A      2.739334  1703A      2.741013  1704A      2.741650  
    1705A      2.744810  1706A      2.745305  1707A      2.752765  
    1708A      2.752970  1709A      2.764934  1710A      2.765546  
    1711A      2.766741  1712A      2.767224  1713A      2.767647  
    1714A      2.769267  1715A      2.771169  1716A      2.771829  
    1717A      2.773792  1718A      2.776961  1719A      2.786918  
    1720A      2.801913  1721A      2.802460  1722A      2.803002  
    1723A      2.804269  1724A      2.804363  1725A      2.806721  
    1726A      2.834821  1727A      2.842021  1728A      2.843301  
    1729A      2.857758  1730A      2.861052  1731A      2.861728  
    1732A      2.865044  1733A      2.865452  1734A      2.875263  
    1735A      2.877352  1736A      2.880245  1737A      2.881009  
    1738A      2.882247  1739A      2.882908  1740A      2.886193  
    1741A      2.891721  1742A      2.903830  1743A      2.907867  
    1744A      2.916971  1745A      2.920248  1746A      2.921283  
    1747A      2.926120  1748A      2.932146  1749A      2.936198  
    1750A      2.936882  1751A      2.943136  1752A      2.944019  
    1753A      2.946710  1754A      2.950538  1755A      2.952487  
    1756A      2.968142  1757A      2.972785  1758A      2.976677  
    1759A      2.979143  1760A      2.988869  1761A      2.998977  
    1762A      3.000674  1763A      3.002206  1764A      3.003287  
    1765A      3.003937  1766A      3.004514  1767A      3.012325  
    1768A      3.037703  1769A      3.049705  1770A      3.052116  
    1771A      3.057346  1772A      3.067672  1773A      3.067878  
    1774A      3.106148  1775A      3.106551  1776A      3.117208  
    1777A      3.118505  1778A      3.121979  1779A      3.122625  
    1780A      3.124624  1781A      3.135194  1782A      3.135619  
    1783A      3.136710  1784A      3.149586  1785A      3.182643  
    1786A      3.184835  1787A      3.185274  1788A      3.186254  
    1789A      3.205870  1790A      3.206213  1791A      3.215125  
    1792A      3.215766  1793A      3.215919  1794A      3.217019  
    1795A      3.217387  1796A      3.226647  1797A      3.227528  
    1798A      3.230063  1799A      3.230502  1800A      3.233403  
    1801A      3.233646  1802A      3.244257  1803A      3.251635  
    1804A      3.254699  1805A      3.256671  1806A      3.264944  
    1807A      3.265353  1808A      3.289596  1809A      3.290206  
    1810A      3.292214  1811A      3.319189  1812A      3.328570  
    1813A      3.329640  1814A      3.333711  1815A      3.339234  
    1816A      3.339461  1817A      3.348615  1818A      3.350128  
    1819A      3.350589  1820A      3.351375  1821A      3.375417  
    1822A      3.376926  1823A      3.395666  1824A      3.409993  
    1825A      3.414696  1826A      3.444440  1827A      3.445837  
    1828A      3.477969  1829A      3.508855  1830A      3.522371  
    1831A      3.534539  1832A      3.536761  1833A      3.538009  
    1834A      3.544662  1835A      3.555000  1836A      3.561541  
    1837A      3.564709  1838A      3.574219  1839A      3.578550  
    1840A      3.591789  1841A      3.601497  1842A      3.614619  
    1843A      3.618490  1844A      3.664348  1845A      3.665382  
    1846A      3.666796  1847A      3.677766  1848A      3.735981  
    1849A      3.739007  1850A      3.753615  1851A      3.756279  
    1852A      3.785679  1853A      3.800729  1854A      3.835055  
    1855A      3.839571  1856A      3.853272  1857A      3.853335  
    1858A      3.862378  1859A      3.919253  1860A      3.920947  
    1861A      3.951640  1862A      3.954740  1863A      3.987794  
    1864A      3.994437  1865A      3.997922  1866A      4.003554  
    1867A      4.026408  1868A      4.026792  1869A      4.030138  
    1870A      4.052735  1871A      4.059811  1872A      4.081945  
    1873A      4.084590  1874A      4.094651  1875A      4.106160  
    1876A      4.116106  1877A      4.164344  1878A      4.174118  
    1879A      4.182194  1880A      4.194368  1881A      4.244680  
    1882A      4.251873  1883A      4.332929  1884A      4.353160  
    1885A      4.360514  1886A      4.368648  1887A      4.417171  
    1888A      4.482895  1889A      4.592109  1890A      4.613817  
    1891A      4.624194  1892A      4.664392  1893A      4.666321  
    1894A      4.736844  1895A      4.806186  1896A      4.809607  
    1897A      4.857499  1898A      4.884316  1899A      4.958818  

    Final Occupation by Irrep:
              A 
    DOCC [   321 ]
    NA   [   321 ]
    NB   [   321 ]

  @DF-RHF Final Energy: -4072.08971707728688

   => Energetics <=

    Nuclear Repulsion Energy =          18079.0406175321149931
    One-Electron Energy =              -41644.9696807633736171
    Two-Electron Energy =               19493.8393461539708369
    Total Energy =                      -4072.0897170772877871

Computation Completed


Properties will be evaluated at   0.000000,   0.000000,   0.000000 [a0]

Properties computed using the SCF density matrix


 Multipole Moments:

 ------------------------------------------------------------------------------------
     Multipole            Electronic (a.u.)      Nuclear  (a.u.)        Total (a.u.)
 ------------------------------------------------------------------------------------

 L = 1.  Multiply by 2.5417464519 to convert [e a0] to [Debye]
 Dipole X            :         -0.0021918           -0.0000548           -0.0022465
 Dipole Y            :         -0.0003507           -0.0002464           -0.0005970
 Dipole Z            :        -10.4966939           11.9018765            1.4051826
 Magnitude           :                                                    1.4051845

 ------------------------------------------------------------------------------------

*** tstop() called on n2cn1142 at Sat Jan 27 13:52:31 2024
Module time:
	user time   =   27671.51 seconds =     461.19 minutes
	system time =    1791.74 seconds =      29.86 minutes
	total time  =      11508 seconds =     191.80 minutes
Total time:
	user time   =   27671.51 seconds =     461.19 minutes
	system time =    1791.74 seconds =      29.86 minutes
	total time  =      11508 seconds =     191.80 minutes

  //>>>>>>>>>>>>>>>>>>>>>>>>>>>>>>>>>>>//
  //            Monomer A HF           //
  //<<<<<<<<<<<<<<<<<<<<<<<<<<<<<<<<<<<//

   => Libint2 <=

    Primary   basis highest AM E, G, H:  5, 4, 3
    Auxiliary basis highest AM E, G, H:  6, 5, 4
    Onebody   basis highest AM E, G, H:  6, 5, 4
    Solid Harmonics ordering:            gaussian

*** tstart() called on n2cn1142
*** at Sat Jan 27 13:52:31 2024

   => Loading Basis Set <=

    Name: JUN-CC-PVDZ
    Role: ORBITAL
    Keyword: BASIS
    atoms 1                                                   entry B          line   130 file /opt/software/pc2/EB-SW/software/PSI4/1.9-foss-2022a/share/psi4/basis/jun-cc-pvdz.gbs 
    atoms 2-5                                                 entry F          line   266 file /opt/software/pc2/EB-SW/software/PSI4/1.9-foss-2022a/share/psi4/basis/jun-cc-pvdz.gbs 
    atoms 6-23, 30-42, 45-59, 62-78, 81-93, 98-108, 111-119   entry C          line   164 file /opt/software/pc2/EB-SW/software/PSI4/1.9-foss-2022a/share/psi4/basis/jun-cc-pvdz.gbs 
    atoms 24-29, 43-44, 60-61, 79-80, 94-97, 109-110, 120-125 entry H          line    36 file /opt/software/pc2/EB-SW/software/PSI4/1.9-foss-2022a/share/psi4/basis/jun-cc-pvdz.gbs 


         ---------------------------------------------------------
                                   SCF
               by Justin Turney, Rob Parrish, Andy Simmonett
                          and Daniel G. A. Smith
                              RHF Reference
                       16 Threads,  61035 MiB Core
         ---------------------------------------------------------

  ==> Geometry <==

    Molecular point group: c1
    Full point group: C1

    Geometry (in Angstrom), charge = -1, multiplicity = 1:

       Center              X                  Y                   Z               Mass       
    ------------   -----------------  -----------------  -----------------  -----------------
         B           -0.000201921932     0.000288800891    -1.862218093786    11.009305360000
         F           -0.000004162732     0.000014527991    -0.449433093786    18.998403162730
         F            1.147855837268     0.675795727991    -2.333359093786    18.998403162730
         F            0.011913897268    -1.331996472009    -2.333157093786    18.998403162730
         F           -1.159670162732     0.656088027991    -2.333078093786    18.998403162730
      Gh(C)          -3.668445426752     7.803766698073     0.139647947549    12.000000000000
      Gh(C)          -4.847602882078     7.131256359331     0.137281372617    12.000000000000
      Gh(C)          -4.894963461907     5.696344931522     0.136708461519    12.000000000000
      Gh(C)          -3.653744841505     4.980744868950     0.144368903248    12.000000000000
      Gh(C)          -2.409429284226     7.113995564665     0.139842289809    12.000000000000
      Gh(C)          -2.425481506836     5.681136478894     0.132837400939    12.000000000000
      Gh(C)          -1.194748179167     7.786158722300     0.141314470351    12.000000000000
      Gh(C)           0.037954866205     7.099436173748     0.139143766046    12.000000000000
      Gh(C)           0.030328424687     5.669504087695     0.133660381131    12.000000000000
      Gh(C)          -1.200988670637     4.969284875906     0.142630115064    12.000000000000
      Gh(C)           1.277953663083     7.772873971185     0.140519614607    12.000000000000
      Gh(C)           2.485353921992     7.087711413228     0.138245126702    12.000000000000
      Gh(C)           2.486124522185     5.654785338231     0.131307377715    12.000000000000
      Gh(C)           1.254078756912     4.956092641655     0.142935319303    12.000000000000
      Gh(C)           3.751710428674     7.763926678971     0.138371978083    12.000000000000
      Gh(C)           4.923561893453     7.078795304981     0.136315497375    12.000000000000
      Gh(C)           4.955603108594     5.643461991360     0.136155084568    12.000000000000
      Gh(C)           3.706797371473     4.941224736324     0.141246644737    12.000000000000
      Gh(H)          -3.658525300490     8.890841947126     0.141332935799     1.007825032230
      Gh(H)          -1.189217492488     8.874135615351     0.145286346793     1.007825032230
      Gh(H)           1.284290076155     8.860847963479     0.144678438748     1.007825032230
      Gh(H)           3.753537924068     8.851049806963     0.139894502398     1.007825032230
[...]
    1522A      2.169338  1523A      2.170556  1524A      2.171287  
    1525A      2.173186  1526A      2.174157  1527A      2.175030  
    1528A      2.176642  1529A      2.180767  1530A      2.181624  
    1531A      2.183453  1532A      2.184229  1533A      2.196307  
    1534A      2.196467  1535A      2.197613  1536A      2.199505  
    1537A      2.200619  1538A      2.201345  1539A      2.205149  
    1540A      2.205252  1541A      2.209745  1542A      2.210262  
    1543A      2.213470  1544A      2.214151  1545A      2.215618  
    1546A      2.218271  1547A      2.219304  1548A      2.220519  
    1549A      2.223005  1550A      2.226708  1551A      2.228306  
    1552A      2.229018  1553A      2.230236  1554A      2.232124  
    1555A      2.232460  1556A      2.237062  1557A      2.238715  
    1558A      2.240687  1559A      2.240837  1560A      2.247312  
    1561A      2.248003  1562A      2.251592  1563A      2.254048  
    1564A      2.254970  1565A      2.258682  1566A      2.263312  
    1567A      2.264964  1568A      2.266168  1569A      2.270023  
    1570A      2.271977  1571A      2.272978  1572A      2.279183  
    1573A      2.279866  1574A      2.287929  1575A      2.288888  
    1576A      2.289658  1577A      2.293851  1578A      2.296899  
    1579A      2.298812  1580A      2.300206  1581A      2.300756  
    1582A      2.305046  1583A      2.311957  1584A      2.315205  
    1585A      2.318247  1586A      2.325530  1587A      2.327286  
    1588A      2.327704  1589A      2.329095  1590A      2.330245  
    1591A      2.333682  1592A      2.335245  1593A      2.339804  
    1594A      2.340530  1595A      2.341171  1596A      2.342270  
    1597A      2.342600  1598A      2.343973  1599A      2.345215  
    1600A      2.345825  1601A      2.346786  1602A      2.347466  
    1603A      2.352670  1604A      2.357116  1605A      2.365594  
    1606A      2.378348  1607A      2.382142  1608A      2.386566  
    1609A      2.387822  1610A      2.390105  1611A      2.396050  
    1612A      2.402643  1613A      2.405858  1614A      2.415119  
    1615A      2.416921  1616A      2.418895  1617A      2.421951  
    1618A      2.429093  1619A      2.431587  1620A      2.449632  
    1621A      2.452240  1622A      2.452968  1623A      2.453332  
    1624A      2.466833  1625A      2.467841  1626A      2.468158  
    1627A      2.469011  1628A      2.472418  1629A      2.472795  
    1630A      2.484565  1631A      2.492206  1632A      2.492715  
    1633A      2.503566  1634A      2.507942  1635A      2.508307  
    1636A      2.512519  1637A      2.517742  1638A      2.535286  
    1639A      2.540317  1640A      2.541249  1641A      2.541604  
    1642A      2.544902  1643A      2.545633  1644A      2.547721  
    1645A      2.549159  1646A      2.552205  1647A      2.553835  
    1648A      2.559965  1649A      2.561366  1650A      2.564362  
    1651A      2.571661  1652A      2.572430  1653A      2.581018  
    1654A      2.585280  1655A      2.586021  1656A      2.586094  
    1657A      2.587632  1658A      2.589736  1659A      2.590049  
    1660A      2.593328  1661A      2.594157  1662A      2.603397  
    1663A      2.603545  1664A      2.606748  1665A      2.611056  
    1666A      2.611975  1667A      2.615674  1668A      2.616144  
    1669A      2.622868  1670A      2.623563  1671A      2.626970  
    1672A      2.630312  1673A      2.633533  1674A      2.644068  
    1675A      2.645952  1676A      2.649507  1677A      2.649978  
    1678A      2.651929  1679A      2.653854  1680A      2.656132  
    1681A      2.658743  1682A      2.659087  1683A      2.663856  
    1684A      2.666319  1685A      2.666694  1686A      2.670092  
    1687A      2.674924  1688A      2.676673  1689A      2.678039  
    1690A      2.681179  1691A      2.681381  1692A      2.690339  
    1693A      2.691036  1694A      2.692647  1695A      2.693252  
    1696A      2.695312  1697A      2.700255  1698A      2.704078  
    1699A      2.716925  1700A      2.722415  1701A      2.723029  
    1702A      2.724719  1703A      2.731096  1704A      2.731404  
    1705A      2.732376  1706A      2.732665  1707A      2.748074  
    1708A      2.750216  1709A      2.765257  1710A      2.776790  
    1711A      2.781888  1712A      2.783310  1713A      2.794073  
    1714A      2.795770  1715A      2.801922  1716A      2.802031  
    1717A      2.802592  1718A      2.805063  1719A      2.814953  
    1720A      2.815617  1721A      2.817098  1722A      2.824795  
    1723A      2.826415  1724A      2.830219  1725A      2.831253  
    1726A      2.835347  1727A      2.841218  1728A      2.850163  
    1729A      2.859970  1730A      2.860583  1731A      2.861631  
    1732A      2.866571  1733A      2.866733  1734A      2.872984  
    1735A      2.875277  1736A      2.876641  1737A      2.889196  
    1738A      2.896177  1739A      2.897156  1740A      2.898092  
    1741A      2.920792  1742A      2.921060  1743A      2.921550  
    1744A      2.928293  1745A      2.929570  1746A      2.939456  
    1747A      2.940073  1748A      2.963761  1749A      2.968759  
    1750A      2.970703  1751A      2.976311  1752A      2.995869  
    1753A      2.996655  1754A      3.017492  1755A      3.021621  
    1756A      3.033122  1757A      3.033198  1758A      3.051858  
    1759A      3.052062  1760A      3.052883  1761A      3.055815  
    1762A      3.056198  1763A      3.065527  1764A      3.068834  
    1765A      3.069669  1766A      3.073544  1767A      3.111917  
    1768A      3.115432  1769A      3.115764  1770A      3.124203  
    1771A      3.131597  1772A      3.131773  1773A      3.144238  
    1774A      3.144685  1775A      3.153798  1776A      3.154450  
    1777A      3.155418  1778A      3.162178  1779A      3.162290  
    1780A      3.162467  1781A      3.164485  1782A      3.165862  
    1783A      3.169805  1784A      3.173341  1785A      3.195994  
    1786A      3.196455  1787A      3.205914  1788A      3.208440  
    1789A      3.222453  1790A      3.258682  1791A      3.262937  
    1792A      3.263845  1793A      3.265055  1794A      3.267606  
    1795A      3.267985  1796A      3.276773  1797A      3.277158  
    1798A      3.279015  1799A      3.279796  1800A      3.302297  
    1801A      3.304312  1802A      3.322056  1803A      3.354210  
    1804A      3.354808  1805A      3.378149  1806A      3.382353  
    1807A      3.393708  1808A      3.412928  1809A      3.440548  
    1810A      3.455642  1811A      3.462363  1812A      3.463541  
    1813A      3.473976  1814A      3.479483  1815A      3.482953  
    1816A      3.488499  1817A      3.496920  1818A      3.499759  
    1819A      3.507221  1820A      3.516190  1821A      3.528813  
    1822A      3.551083  1823A      3.566734  1824A      3.589828  
    1825A      3.592143  1826A      3.594750  1827A      3.625853  
    1828A      3.653493  1829A      3.674138  1830A      3.675685  
    1831A      3.680898  1832A      3.684826  1833A      3.710036  
    1834A      3.762204  1835A      3.765325  1836A      3.778885  
    1837A      3.800924  1838A      3.805748  1839A      3.845311  
    1840A      3.849675  1841A      3.876863  1842A      3.880734  
    1843A      3.885716  1844A      3.924614  1845A      3.926002  
    1846A      3.953856  1847A      3.954249  1848A      3.977333  
    1849A      3.977742  1850A      3.998521  1851A      4.015745  
    1852A      4.024919  1853A      4.027822  1854A      4.035566  
    1855A      4.094069  1856A      4.342461  1857A      4.474720  
    1858A      4.525045  1859A      4.576583  1860A      4.581019  
    1861A      4.932306  1862A      5.396928  1863A      5.776326  
    1864A      5.781317  1865A      5.831943  1866A      5.833728  
    1867A      5.842655  1868A      5.845734  1869A      5.933466  
    1870A      5.934018  1871A      5.959285  1872A      6.110314  
    1873A      6.212508  1874A      6.216793  1875A      6.220134  
    1876A      6.388666  1877A      6.397063  1878A      6.411507  
    1879A      6.414954  1880A      6.437115  1881A      6.462011  
    1882A      6.463252  1883A      7.433591  1884A      7.520920  
    1885A      7.528269  1886A      7.615262  1887A      7.621437  
    1888A      7.706406  1889A      7.853209  1890A      7.854048  
    1891A      7.966471  1892A      8.320711  1893A      8.466889  
    1894A      8.505146  1895A     13.229776  1896A     42.933077  
    1897A     42.976929  1898A     42.977540  1899A     43.020564  

    Final Occupation by Irrep:
              A 
    DOCC [   300 ]
    NA   [   300 ]
    NB   [   300 ]

  @DF-RHF Final Energy: -3650.34191998586039

   => Energetics <=

    Nuclear Repulsion Energy =          15611.4211649754324753
    One-Electron Energy =              -36072.1844423791117151
    Two-Electron Energy =               16810.4213574178174895
    Total Energy =                      -3650.3419199858617503

Computation Completed


Properties will be evaluated at   0.000000,   0.000000,   0.000000 [a0]

Properties computed using the SCF density matrix


 Multipole Moments:

 ------------------------------------------------------------------------------------
     Multipole            Electronic (a.u.)      Nuclear  (a.u.)        Total (a.u.)
 ------------------------------------------------------------------------------------

 L = 1.  Multiply by 2.5417464519 to convert [e a0] to [Debye]
 Dipole X            :          0.0004778            0.0002304            0.0007083
 Dipole Y            :          0.0014300           -0.0013052            0.0001248
 Dipole Z            :       -156.1915723          156.1868822           -0.0046902
 Magnitude           :                                                    0.0047450

 ------------------------------------------------------------------------------------

*** tstop() called on n2cn1142 at Sat Jan 27 17:06:03 2024
Module time:
	user time   =   16720.39 seconds =     278.67 minutes
	system time =    1228.88 seconds =      20.48 minutes
	total time  =       7541 seconds =     125.68 minutes
Total time:
	user time   =   48572.90 seconds =     809.55 minutes
	system time =    3352.39 seconds =      55.87 minutes
	total time  =      23120 seconds =     385.33 minutes
  Constructing Basis Sets for SAPT...

   => Loading Basis Set <=

    Name: (JUN-CC-PVDZ AUX)
    Role: RIFIT
    Keyword: DF_BASIS_SAPT
    atoms 1                                                   entry B          line    56 file /opt/software/pc2/EB-SW/software/PSI4/1.9-foss-2022a/share/psi4/basis/jun-cc-pvdz-ri.gbs 
    atoms 2-5                                                 entry F          line   232 file /opt/software/pc2/EB-SW/software/PSI4/1.9-foss-2022a/share/psi4/basis/jun-cc-pvdz-ri.gbs 
    atoms 6-23, 30-42, 45-59, 62-78, 81-93, 98-108, 111-119   entry C          line   100 file /opt/software/pc2/EB-SW/software/PSI4/1.9-foss-2022a/share/psi4/basis/jun-cc-pvdz-ri.gbs 
    atoms 24-29, 43-44, 60-61, 79-80, 94-97, 109-110, 120-125 entry H          line    30 file /opt/software/pc2/EB-SW/software/PSI4/1.9-foss-2022a/share/psi4/basis/jun-cc-pvdz-ri.gbs 

   => Loading Basis Set <=

    Name: (JUN-CC-PVDZ AUX)
    Role: JKFIT
    Keyword: DF_BASIS_ELST
    atoms 1                                                   entry B          line    90 file /opt/software/pc2/EB-SW/software/PSI4/1.9-foss-2022a/share/psi4/basis/jun-cc-pvdz-jkfit.gbs 
    atoms 2-5                                                 entry F          line   314 file /opt/software/pc2/EB-SW/software/PSI4/1.9-foss-2022a/share/psi4/basis/jun-cc-pvdz-jkfit.gbs 
    atoms 6-23, 30-42, 45-59, 62-78, 81-93, 98-108, 111-119   entry C          line   146 file /opt/software/pc2/EB-SW/software/PSI4/1.9-foss-2022a/share/psi4/basis/jun-cc-pvdz-jkfit.gbs 
    atoms 24-29, 43-44, 60-61, 79-80, 94-97, 109-110, 120-125 entry H          line    70 file /opt/software/pc2/EB-SW/software/PSI4/1.9-foss-2022a/share/psi4/basis/jun-cc-pvdz-jkfit.gbs 


  //>>>>>>>>>>>>>>>>>>>>>>>>>>>>>>>>>>>//
  //               SSAPT0              //
  //<<<<<<<<<<<<<<<<<<<<<<<<<<<<<<<<<<<//


*** tstart() called on n2cn1142
*** at Sat Jan 27 17:06:06 2024

        SAPT0  
    Ed Hohenstein
     6 June 2009

      Orbital Information
  --------------------------
    NSO        =      1938
    NMO        =      1899
    NRI        =      6901
    NRI (Elst) =      8531
    NOCC A     =        21
    NOCC B     =       300
    FOCC A     =         5
    FOCC B     =        96
    NVIR A     =      1878
    NVIR B     =      1599

    Elst10,r            =    -0.820482153462 [Eh]
    Exch10              =     1.809168046788 [Eh]
    Exch10 (S^2)        =     1.574897573483 [Eh]

    Iter     Energy [mEh]          dE [mEh]         Residual      Time [s]
       1    -419.78431508     419.784315080     207.769421575           813
       2    -447.34146188      27.557146803      71.592060736          1694
       3    -493.80058041      46.459118528      14.482042210          2467
       4    -493.68682290      -0.113757511       4.222503933          3038
       5    -492.73116340      -0.955659498       1.201613913          3782
       6    -492.70952409      -0.021639314       0.364823927          4724
       7    -492.77939644       0.069872353       0.051809208          5444
       8    -492.77627699      -0.003119453       0.009767680          6572
       9    -492.77574000      -0.000536991       0.001558848          7274
      10    -492.77591142       0.000171418       0.000272974          7893
      11    -492.77589480      -0.000016618       0.000043619          8641
      12    -492.77589412      -0.000000681       0.000013193          9575
      13    -492.77589449       0.000000367       0.000003723         10340
      14    -492.77589468       0.000000198       0.000000883         11284

    CHF Iterations converged


    Iter     Energy [mEh]          dE [mEh]         Residual      Time [s]
       1    -541.84876715     541.848767146     173.832585386           915
       2    -552.73274036      10.883973209      66.613621713          2139
       3    -601.76302038      49.030280023      16.318213661          3525
       4    -604.38458627       2.621565896       5.468233056          4956
       5    -603.31102725      -1.073559028       2.280757620          6225
       6    -602.83018752      -0.480839729       1.057315975          7728
       7    -602.87066038       0.040472861       0.492618605          8900
       8    -603.02370512       0.153044744       0.299302799         10499
       9    -603.00320512      -0.020500000       0.199561359         11807
      10    -602.95742392      -0.045781202       0.124978096         13474
      11    -602.96815977       0.010735854       0.077634063         15199
      12    -602.97824442       0.010084650       0.036774340         16774
      13    -602.97725252      -0.000991902       0.015075878         18362
      14    -602.97506681      -0.002185709       0.006399019         19770
      15    -602.97482589      -0.000240925       0.002990969         21236
      16    -602.97511604       0.000290154       0.001429068         22487
      17    -602.97526349       0.000147447       0.000562996         23765
      18    -602.97519915      -0.000064342       0.000265969         25066
      19    -602.97518629      -0.000012858       0.000138253         26076
      20    -602.97519313       0.000006842       0.000061959         27775
      21    -602.97519825       0.000005121       0.000026925         29422
      22    -602.97519754      -0.000000716       0.000009526         30782
      23    -602.97519678      -0.000000761       0.000004395         32091
      24    -602.97519676      -0.000000012       0.000002060         33405
      25    -602.97519695       0.000000183       0.000001200         34403
      26    -602.97519694      -0.000000007       0.000000641         35619

    CHF Iterations converged

    Ind20,r (A<-B)      =    -0.492775894683 [Eh]
    Ind20,r (B<-A)      =    -0.602975196940 [Eh]
    Ind20,r             =    -1.095751091623 [Eh]
    Exch-Ind20,r (A<-B) =     0.248108550115 [Eh]
    Exch-Ind20,r (B<-A) =     0.357100791001 [Eh]
    Exch-Ind20,r        =     0.605209341116 [Eh]
    Disp20              =    -0.220047918741 [Eh]
    Disp20 (SS)         =    -0.110023959371 [Eh]
    Disp20 (OS)         =    -0.110023959371 [Eh]
    Exch-Disp20         =     0.091998802431 [Eh]
    Exch-Disp20 (SS)    =     0.040347816442 [Eh]
    Exch-Disp20 (OS)    =     0.051650985989 [Eh]

    SAPT Results 
  --------------------------------------------------------------------------------------------------------
    Electrostatics               -820.48215346 [mEh]    -514.86032436 [kcal/mol]   -2154.17559713 [kJ/mol]
      Elst10,r                   -820.48215346 [mEh]    -514.86032436 [kcal/mol]   -2154.17559713 [kJ/mol]

    Exchange                     1809.16804679 [mEh]    1135.27008902 [kcal/mol]    4749.97005244 [kJ/mol]
      Exch10                     1809.16804679 [mEh]    1135.27008902 [kcal/mol]    4749.97005244 [kJ/mol]
      Exch10(S^2)                1574.89757348 [mEh]     988.26314759 [kcal/mol]    4134.89300951 [kJ/mol]

    Induction                      44.43907783 [mEh]      27.88594234 [kcal/mol]     116.67478277 [kJ/mol]
      Ind20,r                   -1095.75109162 [mEh]    -687.59419090 [kcal/mol]   -2876.89409471 [kJ/mol]
      Exch-Ind20,r                605.20934112 [mEh]     379.77459517 [kcal/mol]    1588.97690619 [kJ/mol]
      delta HF,r (2)              534.98082834 [mEh]     335.70553807 [kcal/mol]    1404.59197129 [kJ/mol]

    Dispersion                   -128.04911631 [mEh]     -80.35203359 [kcal/mol]    -336.19290855 [kJ/mol]
      Disp20                     -220.04791874 [mEh]    -138.08215370 [kcal/mol]    -577.73573106 [kJ/mol]
      Exch-Disp20                  91.99880243 [mEh]      57.73012010 [kcal/mol]     241.54282251 [kJ/mol]
      Disp20 (SS)                -110.02395937 [mEh]     -69.04107685 [kcal/mol]    -288.86786553 [kJ/mol]
      Disp20 (OS)                -110.02395937 [mEh]     -69.04107685 [kcal/mol]    -288.86786553 [kJ/mol]
      Exch-Disp20 (SS)             40.34781644 [mEh]      25.31863706 [kcal/mol]     105.93317747 [kJ/mol]
      Exch-Disp20 (OS)             51.65098599 [mEh]      32.41148304 [kcal/mol]     135.60964503 [kJ/mol]

  Total HF                       1033.12497116 [mEh]     648.29570700 [kcal/mol]    2712.46923808 [kJ/mol]
  Total SAPT0                     905.07585485 [mEh]     567.94367340 [kcal/mol]    2376.27632952 [kJ/mol]

  Special recipe for scaled SAPT0 (see Manual):
    Electrostatics sSAPT0        -820.48215346 [mEh]    -514.86032436 [kcal/mol]   -2154.17559713 [kJ/mol]
    Exchange sSAPT0              1809.16804679 [mEh]    1135.27008902 [kcal/mol]    4749.97005244 [kJ/mol]
    Induction sSAPT0              356.68607863 [mEh]     223.82389350 [kcal/mol]     936.47917041 [kJ/mol]
    Dispersion sSAPT0             -80.58396965 [mEh]     -50.56720439 [kcal/mol]    -211.57318317 [kJ/mol]
  Total sSAPT0                   1264.78800230 [mEh]     793.66645376 [kcal/mol]    3320.70044255 [kJ/mol]
  --------------------------------------------------------------------------------------------------------

*** tstop() called on n2cn1142 at Mon Jan 29 14:20:46 2024
Module time:
	user time   =   64508.96 seconds =    1075.15 minutes
	system time =    4140.54 seconds =      69.01 minutes
	total time  =     162880 seconds =    2714.67 minutes
Total time:
	user time   =  113083.28 seconds =    1884.72 minutes
	system time =    7492.94 seconds =     124.88 minutes
	total time  =     186003 seconds =    3100.05 minutes

    Psi4 stopped on: Monday, 29 January 2024 02:20PM
    Psi4 wall time for execution: 2 days, 3:40:04.51

*** Psi4 exiting successfully. Buy a developer a beer!
