
    -----------------------------------------------------------------------
          Psi4: An Open-Source Ab Initio Electronic Structure Package
                               Psi4 1.9 release

                         Git: Rev {} zzzzzzz 


    D. G. A. Smith, L. A. Burns, A. C. Simmonett, R. M. Parrish,
    M. C. Schieber, R. Galvelis, P. Kraus, H. Kruse, R. Di Remigio,
    A. Alenaizan, A. M. James, S. Lehtola, J. P. Misiewicz, M. Scheurer,
    R. A. Shaw, J. B. Schriber, Y. Xie, Z. L. Glick, D. A. Sirianni,
    J. S. O'Brien, J. M. Waldrop, A. Kumar, E. G. Hohenstein,
    B. P. Pritchard, B. R. Brooks, H. F. Schaefer III, A. Yu. Sokolov,
    K. Patkowski, A. E. DePrince III, U. Bozkaya, R. A. King,
    F. A. Evangelista, J. M. Turney, T. D. Crawford, C. D. Sherrill,
    J. Chem. Phys. 152(18) 184108 (2020). https://doi.org/10.1063/5.0006002

                            Additional Code Authors
    E. T. Seidl, C. L. Janssen, E. F. Valeev, M. L. Leininger,
    J. F. Gonthier, R. M. Richard, H. R. McAlexander, M. Saitow, X. Wang,
    P. Verma, M. H. Lechner, A. Jiang, S. Behnle, A. G. Heide,
    M. F. Herbst, and D. L. Poole

             Previous Authors, Complete List of Code Contributors,
                       and Citations for Specific Modules
    https://github.com/psi4/psi4/blob/master/codemeta.json
    https://github.com/psi4/psi4/graphs/contributors
    http://psicode.org/psi4manual/master/introduction.html#citing-psifour

    -----------------------------------------------------------------------


    Psi4 started on: Wednesday, 24 January 2024 06:29PM

    Process ID: 421886
    Host:       n2cn0183
    PSIDATADIR: /opt/software/pc2/EB-SW/software/PSI4/1.9-foss-2022a/share/psi4
    Memory:     500.0 MiB
    Threads:    16
    
  ==> Input File <==

--------------------------------------------------------------------------
memory 47 GB # how much memory is available ! Depends on the nodes/cores !

molecule dimer {
# monomer A
+1 1    # Charge and multiplicity
C  0.680067 -0.008042 -5.615929
C -0.680504 -0.006014 -5.615545
N -1.085635 -0.005016 -4.297221
C  0.000108 -0.001740 -3.515820
C -2.477365  0.044390 -3.829242
N  1.085222 -0.005016 -4.297221
H  1.385146 -0.015870 -6.433368
H -1.385302 -0.006204 -6.433214
H -0.000009  0.000007 -2.434731
C  2.478117 -0.021908 -3.832123
H  2.490592  0.005437 -2.741870
H  2.967028 -0.935354 -4.179299
H  3.001428  0.853575 -4.223595
H -2.857359  1.066461 -3.909201
H -3.082679 -0.625694 -4.442306
H -2.518128 -0.282594 -2.789294
--
# monomer B
0 1     # Charge and multiplicity
C   -3.66844126402057      7.80375217008252      0.00190004133558
C   -4.84759871934653      7.13124183134024     -0.00046653359696
C   -4.89495929917518      5.69633040353158     -0.00103944469517
C   -3.65374067877320      4.98073034095895      0.00662099703436
C   -2.40942512149445      7.11398103667468      0.00209438359570
C   -2.42547734410473      5.68112195090346     -0.00491050527438
C   -1.19474401643570      7.78614419430947      0.00356656413763
C   0.03795902893699      7.09942164575698      0.00139585983271
C   0.03033258741920      5.66948955970466     -0.00408752508301
C   -1.20098450790502      4.96927034791531      0.00488220885047
C   1.27795782581485      7.77285944319479      0.00277170839332
C   2.48535808472416      7.08769688523756      0.00049722048857
C   2.48612868491717      5.65477081024076     -0.00644052849921
C   1.25408291964399      4.95607811366431      0.00518741308898
C   3.75171459140595      7.76391215098033      0.00062407186893
C   4.92356605618520      7.07878077698995     -0.00143240883900
C   4.95560727132542      5.64344746336949     -0.00159282164606
C   3.70680153420475      4.94121020833308      0.00349873852374
H   -3.65852113775815      8.89082741913536      0.00358502958574
H   -1.18921332975660      8.87412108735996      0.00753844057883
H   1.28429423888630      8.86083343548850      0.00693053253426
H   3.75354208679975      8.85103527897216      0.00214659618464
H   5.86995870320703      7.61379483465560     -0.00235777588134
H   -5.78823170750226      7.67630221293400     -0.00202638095293
C   -6.09197395869619      4.99326001364347     -0.00291168518608
C   -6.12866148031747      3.58258016879823     -0.00171050815740
C   -3.66457974004527      3.56418217974434     -0.00463560277484
C   -4.89429820469869      2.86108077590057      0.00453338221034
C   -2.43733499489796      2.84761165708481      0.00719617576166
C   -1.20922785759670      3.54788693497833     -0.00648285103018
C   1.24714157216223      3.53468075142962     -0.00729145743546
C   0.01517603956900      2.83311183930540      0.00439272578912
C   2.46764517244071      2.82128997725533      0.00449278391269
C   3.70254947457969      3.52466015442405     -0.00899517692985
C   6.14498038638375      4.92757236613191     -0.00282626685777
C   6.16658835886151      3.51658447594213     -0.00065971342101
C   4.92460995845939      2.80840792535402      0.00587903281610
H   7.08990550964105      5.46688776622306     -0.00658814770723
H   -7.03104175110130      5.54268795285765     -0.00714490013730
C   -7.33969804112295      2.85841153457957     -0.00333767559888
C   -7.36488195805880      1.47032337158330     -0.00157213747140
C   -4.90350460894690      1.44442681216000     -0.00628840166334
C   -6.13225715261081      0.73993935705394      0.00600164231964
C   -3.67687480051673      0.72669714267312      0.00433931473643
C   -2.44565658606518      1.42964113326212     -0.00597039546461
C   -1.22360068130162      0.71532450163492      0.00545886906656
C   0.00763786931376      1.41738314923765      0.00392452278437
C   1.23121980774686      0.70211669058719     -0.01490206287210
C   2.46082110053113      1.40329203612573      0.00460244601878
C   3.68443025419614      0.68719842821222      0.00377365974158
C   4.91870890153864      1.39173456118907     -0.00862816189375
C   7.36980207796101      2.77948220318441     -0.00242013321349
C   7.38016266612146      1.39121750785509     -0.00087345036788
C   6.13979953912259      0.67411862320065      0.00545489144369
H   -8.27919079934664      3.40711804112415     -0.00763522772059
H   8.31511347147953      3.31811809662368     -0.00663070901292
C   -8.59175593758115      0.72483255304480     -0.00123170985383
C   -8.59902460370342     -0.63263980622873      0.00089141472904
C   -6.13981313911873     -0.67413663715361     -0.00609792660607
C   -7.38018411213749     -1.39126618958160      0.00131813493501
C   -4.91868448025621     -1.39175501803000      0.00624257154343
C   -3.68443829568458     -0.68723731573599     -0.00478966852105
C   -2.46081704024768     -1.40334517882457      0.00575341766833
C   -1.23116201232071     -0.70217386488055     -0.00636696112346
C   -0.00756962538737     -1.41741884941102      0.00108956317991
C   1.22364771588843     -0.71527537726392      0.01109518512883
C   2.44567064933149     -1.42964328900682     -0.00065482763106
C   3.67686670284649     -0.72670743155550     -0.00479541202602
C   6.13224884641929     -0.73997883984993     -0.00632338623858
C   4.90351914550401     -1.44445752054090      0.00751768830159
C   8.59901484869081      0.63260386666793     -0.00101133422380
C   8.59174548810050     -0.72485086719319      0.00072504603735
C   7.36486276438985     -1.47033266560598      0.00049486934466
H   -9.52830597181814      1.27684744919284     -0.00270163681798
H   9.54141097460619      1.17457248844457     -0.00206336648518
C   -7.36983790976868     -2.77954514593389      0.00312634335708
C   -4.92459910905015     -2.80843725734101     -0.00460528907921
C   -6.16662249566744     -3.51665219282533      0.00169655107992
C   -3.70251035970491     -3.52468154912026      0.00571878010666
C   -2.46764698511392     -2.82132596280400     -0.00632585824990
C   -0.01513347410770     -2.83314164539971     -0.00604426974092
C   -1.24712184122656     -3.53473217556300      0.00551968366725
C   1.20924506964357     -3.54791467864352      0.00805871345849
C   2.43733602215464     -2.84764173817541     -0.00608104485234
C   4.89430234377080     -2.86112296828604     -0.00526030478103
C   3.66461525504104     -3.56421984553201      0.00761911515957
C   6.12863901474565     -3.58258405771778      0.00096495711699
C   7.33967266469532     -2.85841330737039      0.00248018319869
H   -9.54144911125902     -1.17456346666430      0.00226083090216
H   9.52826186807155     -1.27691907390448      0.00197485379837
H   -8.31516504384864     -3.31814985321231      0.00729857188773
H   8.27915514249207     -3.40714078989363      0.00681973918158
C   -6.14499418870218     -4.92764727278338      0.00302254913999
C   -3.70678334799751     -4.94126171411716     -0.00679841894792
C   -4.95559005800169     -5.64349397349412      0.00116871569699
C   -2.48612132622665     -5.65478557440947      0.00614125209662
C   -1.25405833548005     -4.95612205000132     -0.00503435388927
C   1.20101257386816     -4.96928038819302     -0.00385322963129
C   -0.03033667441341     -5.66952030313900      0.00398997003238
C   3.65375010132847     -4.98074377541453     -0.00309522988330
C   2.42549269587528     -5.68117463552727      0.00628170066869
C   6.09196561781097     -4.99325796338655      0.00325918379042
C   4.89497644461045     -5.69634842095790      0.00202298796027
H   -7.08989238804069     -5.46699984223871      0.00742531082125
H   7.03105520920009     -5.54265853633254      0.00683896355417
C   -4.92354532219813     -7.07882109967734      0.00061394679214
C   -2.48534208823777     -7.08772807792913     -0.00189594564379
C   -3.75168589177895     -7.76394715763627     -0.00170126671874
C   -0.03794895698805     -7.09946487446944     -0.00168022049625
C   -1.27795610040136     -7.77290438466689     -0.00366491325785
C   2.40944432072629     -7.11402201200282     -0.00081701968533
C   1.19474993715296     -7.78618536556242     -0.00296931056689
C   4.84762105249800     -7.13126211057943      0.00168979497423
C   3.66847160587561     -7.80378799294376     -0.00065863938960
H   -5.86994035041618     -7.61383059804164      0.00215798365757
H   5.78824962538815     -7.67633218931421      0.00281691445618
H   -3.75352693944918     -8.85107156923607     -0.00353718114765
H   -1.28430440589466     -8.86087539249706     -0.00809229711623
H   1.18922157469537     -8.87416062058945     -0.00706194725726
H   3.65854661482387     -8.89086063405326     -0.00231318081200

    units angstrom      # Angstroms are the default
    no_reorient         # Geometry fixed, default
    symmetry c1         # C1 symmetry, default
}

set {
    scf_type DF         # Density fitting, faster than exact integrals
    freeze_core True    # Freeze core electrons
    basis jun-cc-pVDZ   # Jun-cc-pVDZ basis set, recommended for sSAPT0 in https://doi.org/10.1063/1.4867135
}

energy('ssapt0')        # Compute sSAPT0 energy, includes also SAPT0
--------------------------------------------------------------------------

  Memory set to  43.772 GiB by Python driver.

Scratch directory: /tmp/
   => Loading Basis Set <=

    Name: JUN-CC-PVDZ
    Role: ORBITAL
    Keyword: BASIS
    atoms 1-2, 4-5, 10, 17-34, 41-53, 56-70, 73-89, 92-104, 109-119, 122-130 entry C          line   164 file /opt/software/pc2/EB-SW/software/PSI4/1.9-foss-2022a/share/psi4/basis/jun-cc-pvdz.gbs 
    atoms 3, 6                                                               entry N          line   198 file /opt/software/pc2/EB-SW/software/PSI4/1.9-foss-2022a/share/psi4/basis/jun-cc-pvdz.gbs 
    atoms 7-9, 11-16, 35-40, 54-55, 71-72, 90-91, 105-108, 120-121, 131-136  entry H          line    36 file /opt/software/pc2/EB-SW/software/PSI4/1.9-foss-2022a/share/psi4/basis/jun-cc-pvdz.gbs 

   => Loading Basis Set <=

    Name: JUN-CC-PVDZ
    Role: ORBITAL
    Keyword: BASIS
    atoms 1-2, 4-5, 10, 17-34, 41-53, 56-70, 73-89, 92-104, 109-119, 122-130 entry C          line   164 file /opt/software/pc2/EB-SW/software/PSI4/1.9-foss-2022a/share/psi4/basis/jun-cc-pvdz.gbs 
    atoms 3, 6                                                               entry N          line   198 file /opt/software/pc2/EB-SW/software/PSI4/1.9-foss-2022a/share/psi4/basis/jun-cc-pvdz.gbs 
    atoms 7-9, 11-16, 35-40, 54-55, 71-72, 90-91, 105-108, 120-121, 131-136  entry H          line    36 file /opt/software/pc2/EB-SW/software/PSI4/1.9-foss-2022a/share/psi4/basis/jun-cc-pvdz.gbs 


  //>>>>>>>>>>>>>>>>>>>>>>>>>>>>>>>>>>>//
  //              Dimer HF             //
  //<<<<<<<<<<<<<<<<<<<<<<<<<<<<<<<<<<<//

   => Libint2 <=

    Primary   basis highest AM E, G, H:  5, 4, 3
    Auxiliary basis highest AM E, G, H:  6, 5, 4
    Onebody   basis highest AM E, G, H:  6, 5, 4
    Solid Harmonics ordering:            gaussian

*** tstart() called on n2cn0183
*** at Wed Jan 24 18:29:09 2024

   => Loading Basis Set <=

    Name: JUN-CC-PVDZ
    Role: ORBITAL
    Keyword: BASIS
    atoms 1-2, 4-5, 10, 17-34, 41-53, 56-70, 73-89, 92-104, 109-119, 122-130 entry C          line   164 file /opt/software/pc2/EB-SW/software/PSI4/1.9-foss-2022a/share/psi4/basis/jun-cc-pvdz.gbs 
    atoms 3, 6                                                               entry N          line   198 file /opt/software/pc2/EB-SW/software/PSI4/1.9-foss-2022a/share/psi4/basis/jun-cc-pvdz.gbs 
    atoms 7-9, 11-16, 35-40, 54-55, 71-72, 90-91, 105-108, 120-121, 131-136  entry H          line    36 file /opt/software/pc2/EB-SW/software/PSI4/1.9-foss-2022a/share/psi4/basis/jun-cc-pvdz.gbs 


         ---------------------------------------------------------
                                   SCF
               by Justin Turney, Rob Parrish, Andy Simmonett
                          and Daniel G. A. Smith
                              RHF Reference
                       16 Threads,  44822 MiB Core
         ---------------------------------------------------------

  ==> Geometry <==

    Molecular point group: c1
    Full point group: C1

    Geometry (in Angstrom), charge = 1, multiplicity = 1:

       Center              X                  Y                   Z               Mass       
    ------------   -----------------  -----------------  -----------------  -----------------
         C            0.680062820275    -0.008027535675    -5.280468765214    12.000000000000
         C           -0.680508179725    -0.005999535675    -5.280084765214    12.000000000000
         N           -1.085639179725    -0.005001535675    -3.961760765214    14.003074004430
         C            0.000103820275    -0.001725535675    -3.180359765214    12.000000000000
         C           -2.477369179725     0.044404464325    -3.493781765214    12.000000000000
         N            1.085217820275    -0.005001535675    -3.961760765214    14.003074004430
         H            1.385141820275    -0.015855535675    -6.097907765214     1.007825032230
         H           -1.385306179725    -0.006189535675    -6.097753765214     1.007825032230
         H           -0.000013179725     0.000021464325    -2.099270765214     1.007825032230
         C            2.478112820275    -0.021893535675    -3.496662765214    12.000000000000
         H            2.490587820275     0.005451464325    -2.406409765214     1.007825032230
         H            2.967023820275    -0.935339535675    -3.843838765214     1.007825032230
         H            3.001423820275     0.853589464325    -3.888134765214     1.007825032230
         H           -2.857363179725     1.066475464325    -3.573740765214     1.007825032230
         H           -3.082683179725    -0.625679535675    -4.106845765214     1.007825032230
         H           -2.518132179725    -0.282579535675    -2.453833765214     1.007825032230
         C           -3.668445443746     7.803766634408     0.337360276121    12.000000000000
         C           -4.847602899072     7.131256295665     0.334993701189    12.000000000000
         C           -4.894963478901     5.696344867857     0.334420790091    12.000000000000
         C           -3.653744858499     4.980744805284     0.342081231820    12.000000000000
         C           -2.409429301220     7.113995501000     0.337554618381    12.000000000000
         C           -2.425481523830     5.681136415228     0.330549729511    12.000000000000
         C           -1.194748196161     7.786158658634     0.339026798923    12.000000000000
         C            0.037954849212     7.099436110082     0.336856094618    12.000000000000
         C            0.030328407694     5.669504024030     0.331372709703    12.000000000000
         C           -1.200988687630     4.969284812240     0.340342443636    12.000000000000
         C            1.277953646089     7.772873907520     0.338231943179    12.000000000000
         C            2.485353904999     7.087711349563     0.335957455274    12.000000000000
         C            2.486124505192     5.654785274566     0.329019706287    12.000000000000
         C            1.254078739919     4.956092577989     0.340647647875    12.000000000000
         C            3.751710411681     7.763926615305     0.336084306655    12.000000000000
         C            4.923561876460     7.078795241315     0.334027825947    12.000000000000
         C            4.955603091600     5.643461927694     0.333867413140    12.000000000000
         C            3.706797354479     4.941224672658     0.338958973309    12.000000000000
         H           -3.658525317484     8.890841883460     0.339045264371     1.007825032230
         H           -1.189217509482     8.874135551685     0.342998675365     1.007825032230
         H            1.284290059161     8.860847899813     0.342390767320     1.007825032230
         H            3.753537907074     8.851049743297     0.337606830970     1.007825032230
         H            5.869954523482     7.613809298981     0.333102458904     1.007825032230
         H           -5.788235887228     7.676316677259     0.333433853833     1.007825032230
         C           -6.091978138422     4.993274477968     0.332548549600    12.000000000000
         C           -6.128665660043     3.582594633123     0.333749726628    12.000000000000
         C           -3.664583919771     3.564196644069     0.330824632011    12.000000000000
         C           -4.894302384424     2.861095240226     0.339993616996    12.000000000000
         C           -2.437339174623     2.847626121410     0.342656410547    12.000000000000
         C           -1.209232037322     3.547901399303     0.328977383756    12.000000000000
         C            1.247137392437     3.534695215755     0.328168777350    12.000000000000
         C            0.015171859844     2.833126303630     0.339852960575    12.000000000000
         C            2.467640992715     2.821304441580     0.339953018698    12.000000000000
         C            3.702545294854     3.524674618749     0.326465057856    12.000000000000
         C            6.144976206658     4.927586830457     0.332633967928    12.000000000000
         C            6.166584179136     3.516598940267     0.334800521365    12.000000000000
         C            4.924605778734     2.808422389679     0.341339267602    12.000000000000
         H            7.089901329916     5.466902230548     0.328872087078     1.007825032230
         H           -7.031045930827     5.542702417183     0.328315334648     1.007825032230
         C           -7.339702220848     2.858425998905     0.332122559187    12.000000000000
         C           -7.364886137784     1.470337835908     0.333888097314    12.000000000000
         C           -4.903508788672     1.444441276485     0.329171833122    12.000000000000
         C           -6.132261332336     0.739953821379     0.341461877105    12.000000000000
         C           -3.676878980242     0.726711606998     0.339799549522    12.000000000000
         C           -2.445660765791     1.429655597587     0.329489839321    12.000000000000
         C           -1.223604861027     0.715338965960     0.340919103852    12.000000000000
         C            0.007633689588     1.417397613563     0.339384757570    12.000000000000
         C            1.231215628021     0.702131154912     0.320558171914    12.000000000000
         C            2.460816920806     1.403306500451     0.340062680805    12.000000000000
         C            3.684426074471     0.687212892537     0.339233894527    12.000000000000
         C            4.918704721813     1.391749025514     0.326832072892    12.000000000000
         C            7.369797898236     2.779496667509     0.333040101572    12.000000000000
         C            7.380158486396     1.391231972180     0.334586784418    12.000000000000
         C            6.139795359397     0.674133087526     0.340915126229    12.000000000000
         H           -8.279194979072     3.407132505449     0.327825007065     1.007825032230
         H            8.315109291754     3.318132560949     0.328829525773     1.007825032230
         C           -8.591760117307     0.724847017370     0.334228524932    12.000000000000
         C           -8.599028783429    -0.632625341904     0.336351649515    12.000000000000
         C           -6.139817318844    -0.674122172829     0.329362308180    12.000000000000
         C           -7.380188291863    -1.391251725257     0.336778369721    12.000000000000
         C           -4.918688659982    -1.391740553705     0.341702806329    12.000000000000
         C           -3.684442475410    -0.687222851411     0.330670566265    12.000000000000
         C           -2.460821219973    -1.403330714500     0.341213652454    12.000000000000
         C           -1.231166192046    -0.702159400556     0.329093273662    12.000000000000
         C           -0.007573805113    -1.417404385086     0.336549797966    12.000000000000
         C            1.223643536163    -0.715260912939     0.346555419915    12.000000000000
         C            2.445666469606    -1.429628824682     0.334805407155    12.000000000000
         C            3.676862523121    -0.726692967231     0.330664822760    12.000000000000
         C            6.132244666694    -0.739964375525     0.329136848547    12.000000000000
         C            4.903514965779    -1.444443056216     0.342977923087    12.000000000000
         C            8.599010668965     0.632618330993     0.334448900562    12.000000000000
         C            8.591741308375    -0.724836402868     0.336185280823    12.000000000000
         C            7.364858584664    -1.470318201281     0.335955104130    12.000000000000
         H           -9.528310151544     1.276861913518     0.332758597968     1.007825032230
         H            9.541406794881     1.174586952770     0.333396868301     1.007825032230
         C           -7.369842089494    -2.779530681609     0.338586578143    12.000000000000
         C           -4.924603288776    -2.808422793016     0.330854945707    12.000000000000
         C           -6.166626675393    -3.516637728500     0.337156785866    12.000000000000
         C           -3.702514539430    -3.524667084795     0.341179014892    12.000000000000
         C           -2.467651164839    -2.821311498479     0.329134376536    12.000000000000
         C           -0.015137653833    -2.833127181075     0.329415965045    12.000000000000
         C           -1.247126020952    -3.534717711238     0.340979918453    12.000000000000
         C            1.209240889918    -3.547900214319     0.343518948244    12.000000000000
         C            2.437331842429    -2.847627273850     0.329379189933    12.000000000000
         C            4.894298164045    -2.861108503961     0.330199930005    12.000000000000
         C            3.664611075316    -3.564205381207     0.343079349945    12.000000000000
         C            6.128634835020    -3.582569593393     0.336425191903    12.000000000000
         C            7.339668484970    -2.858398843045     0.337940417984    12.000000000000
         H           -9.541453290984    -1.174549002339     0.337721065688     1.007825032230
         H            9.528257688346    -1.276904609579     0.337435088584     1.007825032230
         H           -8.315169223574    -3.318135388887     0.342758806673     1.007825032230
         H            8.279150962767    -3.407126325569     0.342279973967     1.007825032230
         C           -6.144998368428    -4.927632808458     0.338482783926    12.000000000000
         C           -3.706787527723    -4.941247249792     0.328661815838    12.000000000000
         C           -4.955594237727    -5.643479509169     0.336628950483    12.000000000000
         C           -2.486125505952    -5.654771110084     0.341601486882    12.000000000000
         C           -1.254062515205    -4.956107585676     0.330425880896    12.000000000000
         C            1.201008394143    -4.969265923868     0.331607005154    12.000000000000
         C           -0.030340854139    -5.669505838814     0.339450204818    12.000000000000
         C            3.653745921603    -4.980729311090     0.332365004902    12.000000000000
         C            2.425488516150    -5.681160171202     0.341741935454    12.000000000000
         C            6.091961438086    -4.993243499062     0.338719418576    12.000000000000
         C            4.894972264885    -5.696333956633     0.337483222746    12.000000000000
         H           -7.089896567766    -5.466985377914     0.342885545607     1.007825032230
         H            7.031051029475    -5.542644072008     0.342299198340     1.007825032230
         C           -4.923549501924    -7.078806635352     0.336074181578    12.000000000000
         C           -2.485346267963    -7.087713613604     0.333564289142    12.000000000000
         C           -3.751690071504    -7.763932693311     0.333758968067    12.000000000000
         C           -0.037953136713    -7.099450410144     0.333780014289    12.000000000000
         C           -1.277960280127    -7.772889920342     0.331795321528    12.000000000000
         C            2.409440141001    -7.114007547678     0.334643215100    12.000000000000
         C            1.194745757428    -7.786170901237     0.332490924219    12.000000000000
         C            4.847616872773    -7.131247646254     0.337150029760    12.000000000000
         C            3.668467426150    -7.803773528619     0.334801595396    12.000000000000
         H           -5.869944530142    -7.613816133717     0.337618218443     1.007825032230
         H            5.788245445663    -7.676317724989     0.338277149242     1.007825032230
         H           -3.753531119175    -8.851057104911     0.331923053638     1.007825032230
         H           -1.284308585620    -8.860860928172     0.327367937669     1.007825032230
         H            1.189217394970    -8.874146156264     0.328398287528     1.007825032230
         H            3.658542435098    -8.890846169728     0.333147053974     1.007825032230

  Running in c1 symmetry.

  Rotational constants: A =      0.00066  B =      0.00065  C =      0.00035 [cm^-1]
  Rotational constants: A =     19.65637  B =     19.47736  C =     10.51914 [MHz]
  Nuclear repulsion = 18229.505484851295478

  Charge       = 1
  Multiplicity = 1
  Electrons    = 652
  Nalpha       = 326
  Nbeta        = 326

  ==> Algorithm <==

  SCF Algorithm Type is DF.
  DIIS enabled.
  MOM disabled.
  Fractional occupation disabled.
  Guess Type is SAD.
  Energy threshold   = 1.00e-08
  Density threshold  = 1.00e-08
  Integral threshold = 1.00e-12

  ==> Primary Basis <==

  Basis Set: JUN-CC-PVDZ
    Blend: JUN-CC-PVDZ
    Number of shells: 923
    Number of basis functions: 2019
    Number of Cartesian functions: 2122
    Spherical Harmonics?: true
    Max angular momentum: 2

   => Loading Basis Set <=

    Name: (JUN-CC-PVDZ AUX)
    Role: JKFIT
    Keyword: DF_BASIS_SCF
    atoms 1-2, 4-5, 10, 17-34, 41-53, 56-70, 73-89, 92-104, 109-119, 122-130 entry C          line   146 file /opt/software/pc2/EB-SW/software/PSI4/1.9-foss-2022a/share/psi4/basis/jun-cc-pvdz-jkfit.gbs 
    atoms 3, 6                                                               entry N          line   202 file /opt/software/pc2/EB-SW/software/PSI4/1.9-foss-2022a/share/psi4/basis/jun-cc-pvdz-jkfit.gbs 
    atoms 7-9, 11-16, 35-40, 54-55, 71-72, 90-91, 105-108, 120-121, 131-136  entry H          line    70 file /opt/software/pc2/EB-SW/software/PSI4/1.9-foss-2022a/share/psi4/basis/jun-cc-pvdz-jkfit.gbs 

  ==> Integral Setup <==

  ==> DiskDFJK: Density-Fitted J/K Matrices <==

    J tasked:                  Yes
    K tasked:                  Yes
    wK tasked:                  No
    OpenMP threads:             16
    Integrals threads:          16
    Memory [MiB]:            33617
    Algorithm:                Disk
    Integral Cache:           SAVE
    Schwarz Cutoff:          1E-12
    Fitting Condition:       1E-10

   => Auxiliary Basis Set <=

  Basis Set: (JUN-CC-PVDZ AUX)
    Blend: JUN-CC-PVDZ-JKFIT
    Number of shells: 3078
    Number of basis functions: 8896
    Number of Cartesian functions: 10198
    Spherical Harmonics?: true
    Max angular momentum: 3

  Minimum eigenvalue in the overlap matrix is 7.2148034047E-11.
  Reciprocal condition number of the overlap matrix is 2.9577089682E-12.
    Using canonical orthogonalization.
  Overall, 39 of 2019 possible MOs eliminated.


  ==> Pre-Iterations <==

  SCF Guess: Superposition of Atomic Densities via on-the-fly atomic UHF (no occupation information).

   -------------------------
    Irrep   Nso     Nmo    
   -------------------------
     A       2019    1980 
   -------------------------
    Total    2019    1980
   -------------------------

  ==> Iterations <==

                           Total Energy        Delta E     RMS |[F,P]|

   @DF-RHF iter SAD: -3967.39925915009826   -3.96740e+03   0.00000e+00 
   @DF-RHF iter   1: -3952.12187880620286    1.52774e+01   7.15876e-04 DIIS/ADIIS
   @DF-RHF iter   2: -3953.50388543888448   -1.38201e+00   2.40639e-04 DIIS/ADIIS
   @DF-RHF iter   3: -3953.62539471622904   -1.21509e-01   1.16893e-04 DIIS/ADIIS
   @DF-RHF iter   4: -3953.65374963595877   -2.83549e-02   5.08553e-05 DIIS
   @DF-RHF iter   5: -3953.66040648595390   -6.65685e-03   1.21320e-05 DIIS
   @DF-RHF iter   6: -3953.66095462051362   -5.48135e-04   4.70273e-06 DIIS
   @DF-RHF iter   7: -3953.66115202167566   -1.97401e-04   2.25911e-06 DIIS
   @DF-RHF iter   8: -3953.66121712592212   -6.51042e-05   1.11970e-06 DIIS
   @DF-RHF iter   9: -3953.66123555602917   -1.84301e-05   3.72481e-07 DIIS
   @DF-RHF iter  10: -3953.66123683556134   -1.27953e-06   1.52194e-07 DIIS
   @DF-RHF iter  11: -3953.66123700037042   -1.64809e-07   6.33266e-08 DIIS
   @DF-RHF iter  12: -3953.66123703498488   -3.46145e-08   3.29157e-08 DIIS
   @DF-RHF iter  13: -3953.66123704390384   -8.91896e-09   1.11934e-08 DIIS
   @DF-RHF iter  14: -3953.66123704450956   -6.05723e-10   5.17986e-09 DIIS
  Energy and wave function converged.


  ==> Post-Iterations <==

    Orbital Energies [Eh]
    ---------------------

    Doubly Occupied:                                                      

       1A    -15.794422     2A    -15.793955     3A    -11.486998  
       4A    -11.424263     5A    -11.422707     6A    -11.409318  
       7A    -11.409298     8A    -11.341550     9A    -11.341241  
      10A    -11.340826    11A    -11.340213    12A    -11.339635  
      13A    -11.339365    14A    -11.337792    15A    -11.337750  
      16A    -11.337625    17A    -11.337438    18A    -11.336554  
      19A    -11.336533    20A    -11.335663    21A    -11.335577  
      22A    -11.334642    23A    -11.334559    24A    -11.334158  
      25A    -11.334126    26A    -11.334050    27A    -11.334023  
      28A    -11.333043    29A    -11.332997    30A    -11.332901  
      31A    -11.332855    32A    -11.329907    33A    -11.329884  
      34A    -11.329828    35A    -11.329765    36A    -11.329011  
      37A    -11.328980    38A    -11.328948    39A    -11.328935  
      40A    -11.328341    41A    -11.328283    42A    -11.328175  
      43A    -11.328112    44A    -11.327103    45A    -11.327100  
      46A    -11.326577    47A    -11.326559    48A    -11.326542  
      49A    -11.326532    50A    -11.326098    51A    -11.326088  
      52A    -11.325973    53A    -11.325948    54A    -11.325943  
      55A    -11.325922    56A    -11.325521    57A    -11.325506  
      58A    -11.325500    59A    -11.325496    60A    -11.325486  
      61A    -11.325481    62A    -11.324953    63A    -11.324948  
      64A    -11.324946    65A    -11.324937    66A    -11.324507  
      67A    -11.324501    68A    -11.324339    69A    -11.324328  
      70A    -11.324293    71A    -11.324282    72A    -11.323751  
      73A    -11.323727    74A    -11.323726    75A    -11.323722  
      76A    -11.323254    77A    -11.323248    78A    -11.323226  
      79A    -11.323222    80A    -11.317327    81A    -11.317263  
      82A    -11.317244    83A    -11.317190    84A    -11.316684  
      85A    -11.316635    86A    -11.316596    87A    -11.316580  
      88A    -11.316386    89A    -11.316350    90A    -11.316303  
      91A    -11.316269    92A    -11.314387    93A    -11.314375  
      94A    -11.313543    95A    -11.313522    96A    -11.313519  
      97A    -11.313514    98A    -11.312917    99A    -11.312905  
     100A    -11.312064   101A    -11.312043   102A    -11.312037  
     103A    -11.312030   104A     -1.538776   105A     -1.394182  
     106A     -1.327294   107A     -1.308670   108A     -1.307571  
     109A     -1.287545   110A     -1.287335   111A     -1.285605  
     112A     -1.266358   113A     -1.261633   114A     -1.257864  
     115A     -1.256888   116A     -1.238604   117A     -1.238587  
     118A     -1.224012   119A     -1.223745   120A     -1.222018  
     121A     -1.209062   122A     -1.209017   123A     -1.200385  
     124A     -1.195173   125A     -1.182606   126A     -1.181561  
     127A     -1.180823   128A     -1.177380   129A     -1.175493  
     130A     -1.154857   131A     -1.154746   132A     -1.149597  
     133A     -1.140964   134A     -1.140899   135A     -1.134944  
     136A     -1.134851   137A     -1.133178   138A     -1.112363  
     139A     -1.112355   140A     -1.106300   141A     -1.102677  
     142A     -1.102537   143A     -1.093727   144A     -1.091865  
     145A     -1.091287   146A     -1.079521   147A     -1.073326  
     148A     -1.071887   149A     -1.068903   150A     -1.067806  
     151A     -1.067653   152A     -1.054367   153A     -1.037541  
     154A     -1.037334   155A     -1.020486   156A     -1.020377  
     157A     -0.984236   158A     -0.975152   159A     -0.975071  
     160A     -0.974571   161A     -0.968649   162A     -0.968609  
     163A     -0.961467   164A     -0.961321   165A     -0.958005  
     166A     -0.957893   167A     -0.957330   168A     -0.956423  
     169A     -0.936228   170A     -0.931086   171A     -0.917151  
     172A     -0.915638   173A     -0.915185   174A     -0.912422  
     175A     -0.909670   176A     -0.899920   177A     -0.899829  
     178A     -0.891452   179A     -0.891362   180A     -0.877964  
     181A     -0.852844   182A     -0.852381   183A     -0.849475  
     184A     -0.848239   185A     -0.848151   186A     -0.846983  
     187A     -0.846944   188A     -0.833144   189A     -0.829313  
     190A     -0.817436   191A     -0.811398   192A     -0.797534  
     193A     -0.793063   194A     -0.792514   195A     -0.790980  
     196A     -0.790382   197A     -0.789983   198A     -0.785957  
     199A     -0.781101   200A     -0.780868   201A     -0.779146  
     202A     -0.773057   203A     -0.764300   204A     -0.764084  
     205A     -0.753627   206A     -0.751920   207A     -0.750414  
     208A     -0.750287   209A     -0.747444   210A     -0.747185  
     211A     -0.747118   212A     -0.745421   213A     -0.744903  
     214A     -0.717931   215A     -0.717366   216A     -0.716995  
     217A     -0.715972   218A     -0.715893   219A     -0.713802  
     220A     -0.708294   221A     -0.707868   222A     -0.704801  
     223A     -0.703315   224A     -0.702362   225A     -0.702043  
     226A     -0.700098   227A     -0.694506   228A     -0.688499  
     229A     -0.682134   230A     -0.678723   231A     -0.678635  
     232A     -0.678535   233A     -0.673929   234A     -0.673843  
     235A     -0.667920   236A     -0.667374   237A     -0.667035  
     238A     -0.665484   239A     -0.665067   240A     -0.663888  
     241A     -0.660485   242A     -0.660110   243A     -0.659834  
     244A     -0.659703   245A     -0.656179   246A     -0.656016  
     247A     -0.655483   248A     -0.642665   249A     -0.642405  
     250A     -0.640173   251A     -0.639961   252A     -0.639334  
     253A     -0.637925   254A     -0.636085   255A     -0.635914  
     256A     -0.631045   257A     -0.630700   258A     -0.624942  
     259A     -0.624458   260A     -0.622936   261A     -0.621270  
     262A     -0.619532   263A     -0.615469   264A     -0.609977  
     265A     -0.609145   266A     -0.604985   267A     -0.604392  
     268A     -0.598730   269A     -0.598546   270A     -0.595371  
     271A     -0.592116   272A     -0.592023   273A     -0.583098  
     274A     -0.582791   275A     -0.579690   276A     -0.579591  
     277A     -0.573311   278A     -0.573191   279A     -0.563092  
     280A     -0.562431   281A     -0.562218   282A     -0.561756  
     283A     -0.561389   284A     -0.559290   285A     -0.557864  
     286A     -0.544900   287A     -0.541082   288A     -0.541066  
     289A     -0.538394   290A     -0.536057   291A     -0.532090  
     292A     -0.531955   293A     -0.525228   294A     -0.515213  
     295A     -0.514907   296A     -0.511013   297A     -0.510219  
     298A     -0.509058   299A     -0.497715   300A     -0.497435  
     301A     -0.486923   302A     -0.473877   303A     -0.473759  
     304A     -0.454061   305A     -0.453941   306A     -0.452238  
     307A     -0.448902   308A     -0.448800   309A     -0.419911  
     310A     -0.419881   311A     -0.416508   312A     -0.409387  
     313A     -0.409190   314A     -0.408117   315A     -0.395763  
     316A     -0.395401   317A     -0.374717   318A     -0.370557  
     319A     -0.370485   320A     -0.365490   321A     -0.350726  
     322A     -0.321816   323A     -0.321391   324A     -0.317898  
     325A     -0.269629   326A     -0.269353  

    Virtual:                                                              

     327A     -0.077255   328A     -0.076809   329A     -0.035953  
     330A     -0.033403   331A     -0.033042   332A     -0.028609  
     333A     -0.027432   334A     -0.021656   335A     -0.014223  
     336A     -0.006367   337A     -0.005659   338A     -0.004830  
     339A     -0.003544   340A     -0.001738   341A     -0.000740  
     342A      0.000248   343A      0.002236   344A      0.002299  
     345A      0.003057   346A      0.004258   347A      0.006869  
     348A      0.008252   349A      0.008840   350A      0.010879  
     351A      0.011035   352A      0.013711   353A      0.014460  
     354A      0.014561   355A      0.015584   356A      0.016163  
     357A      0.019720   358A      0.023499   359A      0.023761  
     360A      0.025626   361A      0.025650   362A      0.026187  
     363A      0.030119   364A      0.033211   365A      0.033932  
     366A      0.034553   367A      0.035769   368A      0.037699  
     369A      0.039300   370A      0.040402   371A      0.042705  
     372A      0.042898   373A      0.044019   374A      0.045132  
     375A      0.049307   376A      0.049597   377A      0.052144  
     378A      0.052231   379A      0.052519   380A      0.052669  
     381A      0.053495   382A      0.053598   383A      0.053788  
     384A      0.054805   385A      0.055515   386A      0.056868  
     387A      0.060140   388A      0.062435   389A      0.063997  
     390A      0.064675   391A      0.067950   392A      0.068417  
     393A      0.070349   394A      0.071101   395A      0.072238  
     396A      0.073325   397A      0.074374   398A      0.076344  
     399A      0.076798   400A      0.079626   401A      0.079888  
     402A      0.081303   403A      0.082280   404A      0.086535  
     405A      0.086563   406A      0.087031   407A      0.089038  
     408A      0.089489   409A      0.090887   410A      0.091460  
     411A      0.096279   412A      0.097903   413A      0.098612  
     414A      0.101073   415A      0.101833   416A      0.102952  
     417A      0.103794   418A      0.106283   419A      0.106337  
     420A      0.107069   421A      0.107313   422A      0.108181  
     423A      0.108659   424A      0.113275   425A      0.113566  
     426A      0.113757   427A      0.114521   428A      0.115251  
     429A      0.116817   430A      0.118686   431A      0.122228  
     432A      0.123668   433A      0.124451   434A      0.124615  
     435A      0.126024   436A      0.127144   437A      0.127292  
     438A      0.128257   439A      0.131174   440A      0.131439  
     441A      0.132655   442A      0.134778   443A      0.135455  
     444A      0.135628   445A      0.135850   446A      0.138623  
     447A      0.143108   448A      0.145793   449A      0.146580  
     450A      0.146637   451A      0.147363   452A      0.147432  
     453A      0.147955   454A      0.148671   455A      0.149310  
     456A      0.149557   457A      0.151127   458A      0.151827  
     459A      0.152783   460A      0.153653   461A      0.154031  
     462A      0.154309   463A      0.155536   464A      0.157109  
     465A      0.158056   466A      0.158962   467A      0.159399  
     468A      0.159762   469A      0.161358   470A      0.162073  
     471A      0.165065   472A      0.165237   473A      0.165994  
     474A      0.166314   475A      0.169678   476A      0.169921  
     477A      0.170770   478A      0.171639   479A      0.172292  
     480A      0.174203   481A      0.174303   482A      0.174611  
     483A      0.175490   484A      0.176504   485A      0.179487  
     486A      0.179689   487A      0.180060   488A      0.180409  
     489A      0.181941   490A      0.183906   491A      0.184552  
     492A      0.185486   493A      0.186016   494A      0.190216  
     495A      0.191755   496A      0.191867   497A      0.191964  
     498A      0.192697   499A      0.193030   500A      0.194847  
     501A      0.195041   502A      0.195881   503A      0.198502  
     504A      0.199028   505A      0.201775   506A      0.202726  
     507A      0.203497   508A      0.204478   509A      0.206578  
     510A      0.207410   511A      0.207680   512A      0.208581  
     513A      0.209275   514A      0.209850   515A      0.211535  
     516A      0.212464   517A      0.212502   518A      0.215454  
     519A      0.216165   520A      0.217840   521A      0.219719  
     522A      0.220271   523A      0.220358   524A      0.220997  
     525A      0.221396   526A      0.224216   527A      0.226231  
     528A      0.226375   529A      0.227255   530A      0.228133  
     531A      0.228865   532A      0.229079   533A      0.230089  
     534A      0.230149   535A      0.232334   536A      0.232798  
     537A      0.233852   538A      0.235821   539A      0.236345  
     540A      0.236459   541A      0.236873   542A      0.238439  
     543A      0.240559   544A      0.241135   545A      0.243948  
     546A      0.244386   547A      0.245130   548A      0.245801  
     549A      0.246944   550A      0.247728   551A      0.249464  
     552A      0.250148   553A      0.251195   554A      0.252556  
     555A      0.254383   556A      0.255439   557A      0.256980  
     558A      0.258044   559A      0.258147   560A      0.258823  
     561A      0.259747   562A      0.260859   563A      0.261619  
     564A      0.262019   565A      0.262605   566A      0.262818  
     567A      0.264249   568A      0.265389   569A      0.266206  
     570A      0.267636   571A      0.268669   572A      0.269670  
     573A      0.271156   574A      0.271720   575A      0.271930  
     576A      0.272535   577A      0.273399   578A      0.274850  
     579A      0.275116   580A      0.275767   581A      0.276047  
     582A      0.276963   583A      0.278291   584A      0.279293  
     585A      0.282184   586A      0.282433   587A      0.282869  
     588A      0.283847   589A      0.285997   590A      0.286738  
     591A      0.287649   592A      0.288188   593A      0.288735  
     594A      0.289060   595A      0.290470   596A      0.291254  
     597A      0.293148   598A      0.294220   599A      0.295642  
     600A      0.296084   601A      0.296603   602A      0.297657  
     603A      0.299075   604A      0.300716   605A      0.301540  
     606A      0.301761   607A      0.302683   608A      0.303691  
     609A      0.306938   610A      0.308042   611A      0.308683  
     612A      0.309132   613A      0.309764   614A      0.310019  
     615A      0.310298   616A      0.311308   617A      0.312860  
     618A      0.313141   619A      0.316355   620A      0.317332  
     621A      0.318589   622A      0.318801   623A      0.319905  
     624A      0.321168   625A      0.321400   626A      0.321723  
     627A      0.322726   628A      0.324052   629A      0.325169  
     630A      0.325296   631A      0.326027   632A      0.326231  
     633A      0.327725   634A      0.329364   635A      0.329947  
     636A      0.330295   637A      0.332777   638A      0.333599  
     639A      0.333966   640A      0.334860   641A      0.335310  
     642A      0.335667   643A      0.336097   644A      0.339138  
     645A      0.339947   646A      0.340524   647A      0.340820  
     648A      0.341240   649A      0.341818   650A      0.342345  
     651A      0.343055   652A      0.343832   653A      0.344319  
     654A      0.344768   655A      0.344949   656A      0.346447  
     657A      0.347497   658A      0.348000   659A      0.349209  
     660A      0.350148   661A      0.350711   662A      0.351243  
     663A      0.353587   664A      0.354728   665A      0.355160  
     666A      0.356339   667A      0.357191   668A      0.357921  
     669A      0.359478   670A      0.359861   671A      0.360445  
     672A      0.363837   673A      0.364354   674A      0.364388  
     675A      0.365157   676A      0.366359   677A      0.367554  
     678A      0.368403   679A      0.368835   680A      0.369523  
     681A      0.369910   682A      0.372132   683A      0.372293  
     684A      0.372982   685A      0.374711   686A      0.375560  
     687A      0.376270   688A      0.378135   689A      0.378625  
     690A      0.378949   691A      0.379834   692A      0.382739  
     693A      0.383887   694A      0.387396   695A      0.388940  
     696A      0.389744   697A      0.389826   698A      0.390664  
     699A      0.391249   700A      0.391641   701A      0.392257  
     702A      0.392990   703A      0.394064   704A      0.394451  
     705A      0.395287   706A      0.395657   707A      0.396403  
     708A      0.398154   709A      0.400517   710A      0.403827  
     711A      0.403920   712A      0.404476   713A      0.404779  
     714A      0.405762   715A      0.407228   716A      0.407731  
     717A      0.408917   718A      0.409485   719A      0.409914  
     720A      0.410093   721A      0.411004   722A      0.411232  
     723A      0.413064   724A      0.413542   725A      0.413844  
     726A      0.414980   727A      0.416008   728A      0.416708  
     729A      0.417125   730A      0.417891   731A      0.419216  
     732A      0.421525   733A      0.426092   734A      0.427437  
     735A      0.428274   736A      0.429723   737A      0.430457  
     738A      0.430798   739A      0.432786   740A      0.434285  
     741A      0.434807   742A      0.435839   743A      0.436541  
     744A      0.437410   745A      0.438233   746A      0.440128  
     747A      0.442174   748A      0.443164   749A      0.443616  
     750A      0.444581   751A      0.445044   752A      0.445450  
     753A      0.447245   754A      0.449594   755A      0.451217  
     756A      0.453083   757A      0.453812   758A      0.454924  
     759A      0.456518   760A      0.457247   761A      0.457475  
     762A      0.458636   763A      0.459721   764A      0.461053  
     765A      0.462626   766A      0.463574   767A      0.464820  
     768A      0.466990   769A      0.467265   770A      0.468042  
     771A      0.469042   772A      0.469934   773A      0.471996  
     774A      0.476158   775A      0.477208   776A      0.477755  
     777A      0.478532   778A      0.481718   779A      0.483774  
     780A      0.484573   781A      0.487933   782A      0.490044  
     783A      0.493255   784A      0.495358   785A      0.496650  
     786A      0.499328   787A      0.500013   788A      0.500639  
     789A      0.501349   790A      0.502268   791A      0.503245  
     792A      0.503643   793A      0.505338   794A      0.505681  
     795A      0.506702   796A      0.507345   797A      0.510320  
     798A      0.510786   799A      0.513636   800A      0.514491  
     801A      0.515519   802A      0.517097   803A      0.517316  
     804A      0.518842   805A      0.520111   806A      0.521179  
     807A      0.521795   808A      0.522925   809A      0.527230  
     810A      0.528295   811A      0.529411   812A      0.531234  
     813A      0.532347   814A      0.533923   815A      0.535258  
     816A      0.539463   817A      0.540966   818A      0.541322  
     819A      0.542360   820A      0.542945   821A      0.544345  
     822A      0.547281   823A      0.552389   824A      0.553604  
     825A      0.555488   826A      0.558861   827A      0.560884  
     828A      0.561315   829A      0.562428   830A      0.566215  
     831A      0.566613   832A      0.568583   833A      0.569343  
     834A      0.574058   835A      0.576329   836A      0.584751  
     837A      0.585166   838A      0.586988   839A      0.590014  
     840A      0.590966   841A      0.592881   842A      0.593708  
     843A      0.595561   844A      0.596729   845A      0.597894  
     846A      0.601885   847A      0.602365   848A      0.604993  
     849A      0.606364   850A      0.615675   851A      0.618831  
     852A      0.622122   853A      0.624121   854A      0.625656  
     855A      0.626530   856A      0.627005   857A      0.627947  
     858A      0.629631   859A      0.633080   860A      0.634762  
     861A      0.635730   862A      0.636173   863A      0.640839  
     864A      0.642893   865A      0.646479   866A      0.648633  
     867A      0.664158   868A      0.665564   869A      0.669781  
     870A      0.671303   871A      0.674636   872A      0.675443  
     873A      0.676402   874A      0.678720   875A      0.680306  
     876A      0.682890   877A      0.686385   878A      0.688238  
     879A      0.691096   880A      0.693760   881A      0.712551  
     882A      0.713568   883A      0.718471   884A      0.721136  
     885A      0.723243   886A      0.725837   887A      0.727480  
     888A      0.729435   889A      0.730562   890A      0.734114  
     891A      0.736801   892A      0.738093   893A      0.740227  
     894A      0.743290   895A      0.744949   896A      0.747632  
     897A      0.748451   898A      0.750434   899A      0.752711  
     900A      0.754366   901A      0.754857   902A      0.756239  
     903A      0.757547   904A      0.758806   905A      0.761302  
     906A      0.763278   907A      0.763989   908A      0.765264  
     909A      0.765933   910A      0.766452   911A      0.771954  
     912A      0.774323   913A      0.774778   914A      0.776149  
     915A      0.779253   916A      0.782646   917A      0.782857  
     918A      0.785267   919A      0.785752   920A      0.789359  
     921A      0.789810   922A      0.791521   923A      0.792729  
     924A      0.794894   925A      0.797669   926A      0.798572  
     927A      0.800092   928A      0.801615   929A      0.802637  
     930A      0.807052   931A      0.807660   932A      0.809674  
     933A      0.811731   934A      0.812267   935A      0.813447  
     936A      0.814426   937A      0.816131   938A      0.817993  
     939A      0.819912   940A      0.822162   941A      0.823236  
     942A      0.824533   943A      0.825046   944A      0.826855  
     945A      0.827398   946A      0.829298   947A      0.830625  
     948A      0.831697   949A      0.834473   950A      0.835057  
     951A      0.839762   952A      0.841231   953A      0.843947  
     954A      0.844940   955A      0.846338   956A      0.848652  
     957A      0.849974   958A      0.851664   959A      0.852281  
     960A      0.855146   961A      0.856314   962A      0.857225  
     963A      0.858431   964A      0.858807   965A      0.859667  
     966A      0.861361   967A      0.862097   968A      0.864190  
     969A      0.864743   970A      0.867308   971A      0.868134  
     972A      0.869643   973A      0.871357   974A      0.872616  
     975A      0.874900   976A      0.875881   977A      0.877869  
     978A      0.878394   979A      0.879701   980A      0.881181  
     981A      0.882845   982A      0.885572   983A      0.886249  
     984A      0.889183   985A      0.889939   986A      0.890515  
     987A      0.891960   988A      0.892981   989A      0.893177  
     990A      0.894838   991A      0.895307   992A      0.896143  
     993A      0.897883   994A      0.899732   995A      0.902451  
     996A      0.903219   997A      0.903755   998A      0.906854  
     999A      0.908872  1000A      0.911038  1001A      0.915608  
    1002A      0.916966  1003A      0.917301  1004A      0.920806  
    1005A      0.925677  1006A      0.926133  1007A      0.929575  
    1008A      0.931097  1009A      0.931576  1010A      0.932906  
    1011A      0.933704  1012A      0.938523  1013A      0.939004  
    1014A      0.939860  1015A      0.940194  1016A      0.941467  
    1017A      0.941887  1018A      0.943426  1019A      0.944768  
    1020A      0.946267  1021A      0.947185  1022A      0.949621  
    1023A      0.951318  1024A      0.953722  1025A      0.954530  
    1026A      0.954987  1027A      0.959126  1028A      0.960106  
    1029A      0.961091  1030A      0.962377  1031A      0.962893  
    1032A      0.966739  1033A      0.968171  1034A      0.970257  
    1035A      0.972316  1036A      0.973467  1037A      0.975563  
    1038A      0.976299  1039A      0.976872  1040A      0.981000  
    1041A      0.983079  1042A      0.983248  1043A      0.983681  
    1044A      0.986332  1045A      0.986695  1046A      0.987293  
    1047A      0.987602  1048A      0.989592  1049A      0.990509  
    1050A      0.991240  1051A      0.992753  1052A      0.994190  
    1053A      0.994953  1054A      0.997104  1055A      0.997877  
    1056A      0.998516  1057A      1.000673  1058A      1.001423  
    1059A      1.003170  1060A      1.004054  1061A      1.004612  
    1062A      1.006410  1063A      1.007238  1064A      1.007929  
    1065A      1.008464  1066A      1.009019  1067A      1.009261  
    1068A      1.010109  1069A      1.010427  1070A      1.011516  
    1071A      1.012156  1072A      1.013272  1073A      1.014559  
    1074A      1.015578  1075A      1.016185  1076A      1.017122  
    1077A      1.018649  1078A      1.019806  1079A      1.020395  
    1080A      1.020727  1081A      1.020870  1082A      1.022577  
    1083A      1.023915  1084A      1.024535  1085A      1.024987  
    1086A      1.025991  1087A      1.026687  1088A      1.027463  
    1089A      1.028663  1090A      1.029031  1091A      1.031045  
    1092A      1.031472  1093A      1.033713  1094A      1.034344  
    1095A      1.035277  1096A      1.037721  1097A      1.038079  
    1098A      1.039925  1099A      1.041270  1100A      1.041680  
    1101A      1.045111  1102A      1.045593  1103A      1.048333  
    1104A      1.049495  1105A      1.051350  1106A      1.052739  
    1107A      1.053336  1108A      1.055803  1109A      1.056923  
    1110A      1.057605  1111A      1.060555  1112A      1.061403  
    1113A      1.065641  1114A      1.067167  1115A      1.068537  
    1116A      1.069553  1117A      1.070066  1118A      1.071477  
    1119A      1.072325  1120A      1.073014  1121A      1.075166  
    1122A      1.078004  1123A      1.079460  1124A      1.081391  
    1125A      1.082133  1126A      1.084953  1127A      1.085883  
    1128A      1.086647  1129A      1.087761  1130A      1.090661  
    1131A      1.092030  1132A      1.092385  1133A      1.093936  
    1134A      1.096409  1135A      1.097838  1136A      1.100306  
    1137A      1.102694  1138A      1.103888  1139A      1.105760  
    1140A      1.106329  1141A      1.108306  1142A      1.112630  
    1143A      1.114360  1144A      1.116284  1145A      1.117894  
    1146A      1.118989  1147A      1.119529  1148A      1.120497  
    1149A      1.123799  1150A      1.126603  1151A      1.129882  
    1152A      1.131017  1153A      1.131821  1154A      1.132911  
    1155A      1.133555  1156A      1.136984  1157A      1.140387  
    1158A      1.142387  1159A      1.146262  1160A      1.147247  
    1161A      1.148879  1162A      1.151387  1163A      1.153666  
    1164A      1.154385  1165A      1.156959  1166A      1.158126  
    1167A      1.159619  1168A      1.160910  1169A      1.164874  
    1170A      1.166258  1171A      1.167993  1172A      1.168384  
    1173A      1.171160  1174A      1.172073  1175A      1.179617  
    1176A      1.180002  1177A      1.183088  1178A      1.185344  
    1179A      1.187437  1180A      1.188625  1181A      1.190362  
    1182A      1.193933  1183A      1.198813  1184A      1.199166  
    1185A      1.200368  1186A      1.201500  1187A      1.205663  
    1188A      1.208370  1189A      1.210196  1190A      1.210874  
    1191A      1.214048  1192A      1.216861  1193A      1.223018  
    1194A      1.224915  1195A      1.226160  1196A      1.226407  
    1197A      1.227709  1198A      1.228842  1199A      1.230186  
    1200A      1.231054  1201A      1.232020  1202A      1.234676  
    1203A      1.237060  1204A      1.241251  1205A      1.244231  
    1206A      1.245071  1207A      1.246893  1208A      1.248581  
    1209A      1.250141  1210A      1.251253  1211A      1.253498  
    1212A      1.255966  1213A      1.256594  1214A      1.258024  
    1215A      1.258513  1216A      1.259573  1217A      1.260215  
    1218A      1.260885  1219A      1.264553  1220A      1.265900  
    1221A      1.267779  1222A      1.269328  1223A      1.269993  
    1224A      1.271571  1225A      1.273701  1226A      1.275233  
    1227A      1.275540  1228A      1.276890  1229A      1.280036  
    1230A      1.280933  1231A      1.289156  1232A      1.289352  
    1233A      1.292988  1234A      1.297898  1235A      1.298578  
    1236A      1.300013  1237A      1.302313  1238A      1.302602  
    1239A      1.303666  1240A      1.307113  1241A      1.309172  
    1242A      1.309359  1243A      1.312023  1244A      1.313664  
    1245A      1.314502  1246A      1.322314  1247A      1.324293  
    1248A      1.327307  1249A      1.332763  1250A      1.334677  
    1251A      1.335296  1252A      1.335773  1253A      1.337380  
    1254A      1.342632  1255A      1.344471  1256A      1.346615  
    1257A      1.347221  1258A      1.347689  1259A      1.349189  
    1260A      1.350819  1261A      1.353243  1262A      1.358407  
    1263A      1.359364  1264A      1.361725  1265A      1.363739  
    1266A      1.366009  1267A      1.366460  1268A      1.366920  
    1269A      1.367248  1270A      1.371044  1271A      1.371746  
    1272A      1.373359  1273A      1.375732  1274A      1.376030  
    1275A      1.377072  1276A      1.379048  1277A      1.380955  
    1278A      1.382449  1279A      1.384104  1280A      1.387404  
    1281A      1.389784  1282A      1.390155  1283A      1.390867  
    1284A      1.392263  1285A      1.394031  1286A      1.398366  
    1287A      1.402005  1288A      1.405009  1289A      1.406642  
    1290A      1.409508  1291A      1.409788  1292A      1.411025  
    1293A      1.415961  1294A      1.418577  1295A      1.422076  
    1296A      1.423511  1297A      1.424302  1298A      1.425175  
    1299A      1.429630  1300A      1.437241  1301A      1.437546  
    1302A      1.439992  1303A      1.440812  1304A      1.445522  
    1305A      1.453196  1306A      1.454934  1307A      1.455104  
    1308A      1.462541  1309A      1.470740  1310A      1.476690  
    1311A      1.477393  1312A      1.477534  1313A      1.485196  
    1314A      1.486357  1315A      1.487451  1316A      1.509943  
    1317A      1.513647  1318A      1.517880  1319A      1.519283  
    1320A      1.526270  1321A      1.531797  1322A      1.532348  
    1323A      1.534770  1324A      1.538579  1325A      1.540204  
    1326A      1.540572  1327A      1.541788  1328A      1.544030  
    1329A      1.544485  1330A      1.545350  1331A      1.547603  
    1332A      1.548512  1333A      1.549213  1334A      1.550730  
    1335A      1.552092  1336A      1.554431  1337A      1.556328  
    1338A      1.557601  1339A      1.559204  1340A      1.559911  
    1341A      1.562103  1342A      1.564350  1343A      1.566093  
    1344A      1.566389  1345A      1.567234  1346A      1.568891  
    1347A      1.569589  1348A      1.571510  1349A      1.572450  
    1350A      1.574238  1351A      1.575317  1352A      1.575694  
    1353A      1.578391  1354A      1.580616  1355A      1.581834  
    1356A      1.582897  1357A      1.587531  1358A      1.588086  
    1359A      1.590622  1360A      1.591080  1361A      1.592658  
    1362A      1.594063  1363A      1.596120  1364A      1.597721  
    1365A      1.599122  1366A      1.601229  1367A      1.601936  
    1368A      1.602055  1369A      1.603210  1370A      1.603959  
    1371A      1.605181  1372A      1.610698  1373A      1.611087  
    1374A      1.612141  1375A      1.613688  1376A      1.617055  
    1377A      1.622255  1378A      1.623624  1379A      1.623794  
    1380A      1.628518  1381A      1.631426  1382A      1.632009  
    1383A      1.633606  1384A      1.634957  1385A      1.637843  
    1386A      1.640018  1387A      1.642861  1388A      1.644443  
    1389A      1.645703  1390A      1.649324  1391A      1.649833  
    1392A      1.651240  1393A      1.651982  1394A      1.655293  
    1395A      1.656197  1396A      1.657051  1397A      1.658956  
    1398A      1.661580  1399A      1.667417  1400A      1.671517  
    1401A      1.674968  1402A      1.681573  1403A      1.682737  
    1404A      1.683271  1405A      1.685243  1406A      1.686372  
    1407A      1.693198  1408A      1.699147  1409A      1.699320  
    1410A      1.705175  1411A      1.706409  1412A      1.715343  
    1413A      1.721635  1414A      1.724103  1415A      1.724237  
    1416A      1.726533  1417A      1.731858  1418A      1.733039  
    1419A      1.734076  1420A      1.740013  1421A      1.744825  
    1422A      1.755676  1423A      1.759853  1424A      1.760380  
    1425A      1.763948  1426A      1.765637  1427A      1.766563  
    1428A      1.767427  1429A      1.768961  1430A      1.770001  
    1431A      1.771173  1432A      1.771897  1433A      1.773495  
    1434A      1.780792  1435A      1.782003  1436A      1.782542  
    1437A      1.784692  1438A      1.793128  1439A      1.793593  
    1440A      1.795385  1441A      1.796117  1442A      1.796990  
    1443A      1.797532  1444A      1.800568  1445A      1.802412  
    1446A      1.804619  1447A      1.805564  1448A      1.808222  
    1449A      1.808826  1450A      1.813191  1451A      1.813636  
    1452A      1.815215  1453A      1.816712  1454A      1.817866  
    1455A      1.819269  1456A      1.820873  1457A      1.822398  
    1458A      1.822555  1459A      1.823016  1460A      1.823386  
    1461A      1.824276  1462A      1.825728  1463A      1.830559  
    1464A      1.840048  1465A      1.840528  1466A      1.842629  
    1467A      1.844916  1468A      1.846941  1469A      1.847856  
    1470A      1.850425  1471A      1.853697  1472A      1.854500  
    1473A      1.855186  1474A      1.855628  1475A      1.856638  
    1476A      1.857961  1477A      1.859923  1478A      1.861788  
    1479A      1.862750  1480A      1.865437  1481A      1.868586  
    1482A      1.872376  1483A      1.873545  1484A      1.874654  
    1485A      1.876507  1486A      1.877440  1487A      1.879948  
    1488A      1.881368  1489A      1.882535  1490A      1.885253  
    1491A      1.885915  1492A      1.886751  1493A      1.888631  
    1494A      1.891742  1495A      1.893424  1496A      1.895414  
    1497A      1.896486  1498A      1.897291  1499A      1.899234  
    1500A      1.900515  1501A      1.903122  1502A      1.903688  
    1503A      1.906578  1504A      1.909417  1505A      1.910391  
    1506A      1.911581  1507A      1.913315  1508A      1.914620  
    1509A      1.918072  1510A      1.923590  1511A      1.924546  
    1512A      1.926731  1513A      1.927640  1514A      1.929493  
    1515A      1.930995  1516A      1.932305  1517A      1.933478  
    1518A      1.938457  1519A      1.940709  1520A      1.942800  
    1521A      1.943757  1522A      1.945783  1523A      1.948407  
    1524A      1.949081  1525A      1.950649  1526A      1.952664  
    1527A      1.954500  1528A      1.955025  1529A      1.956615  
    1530A      1.957620  1531A      1.957858  1532A      1.959443  
    1533A      1.962360  1534A      1.962635  1535A      1.967809  
    1536A      1.970169  1537A      1.970926  1538A      1.974290  
    1539A      1.974744  1540A      1.977911  1541A      1.980302  
    1542A      1.981649  1543A      1.982962  1544A      1.986710  
    1545A      1.989052  1546A      1.989614  1547A      1.990459  
    1548A      1.992525  1549A      1.995100  1550A      1.997000  
    1551A      1.997844  1552A      1.998437  1553A      2.002014  
    1554A      2.003350  1555A      2.004834  1556A      2.006750  
    1557A      2.007705  1558A      2.014300  1559A      2.015465  
    1560A      2.015998  1561A      2.016985  1562A      2.017699  
    1563A      2.017813  1564A      2.018436  1565A      2.020463  
    1566A      2.021549  1567A      2.022687  1568A      2.023335  
    1569A      2.024037  1570A      2.025913  1571A      2.026278  
    1572A      2.027096  1573A      2.027352  1574A      2.028956  
    1575A      2.029238  1576A      2.031595  1577A      2.032367  
    1578A      2.033617  1579A      2.034231  1580A      2.036552  
    1581A      2.037945  1582A      2.038311  1583A      2.041582  
    1584A      2.043820  1585A      2.047333  1586A      2.048185  
    1587A      2.048947  1588A      2.050091  1589A      2.051697  
    1590A      2.053635  1591A      2.055005  1592A      2.055496  
    1593A      2.057032  1594A      2.058224  1595A      2.059967  
    1596A      2.061378  1597A      2.063001  1598A      2.063713  
    1599A      2.064724  1600A      2.065983  1601A      2.066506  
    1602A      2.068288  1603A      2.069286  1604A      2.073204  
    1605A      2.074756  1606A      2.076870  1607A      2.079376  
    1608A      2.080874  1609A      2.081486  1610A      2.082922  
    1611A      2.085325  1612A      2.089305  1613A      2.090638  
    1614A      2.091166  1615A      2.093538  1616A      2.094510  
    1617A      2.095876  1618A      2.096902  1619A      2.100517  
    1620A      2.101180  1621A      2.102494  1622A      2.104249  
    1623A      2.109072  1624A      2.110321  1625A      2.112780  
    1626A      2.116952  1627A      2.118504  1628A      2.118783  
    1629A      2.119193  1630A      2.122414  1631A      2.124500  
    1632A      2.125240  1633A      2.125943  1634A      2.127598  
    1635A      2.128645  1636A      2.130186  1637A      2.132465  
    1638A      2.134114  1639A      2.137023  1640A      2.137139  
    1641A      2.139130  1642A      2.141422  1643A      2.144862  
    1644A      2.146815  1645A      2.147376  1646A      2.149137  
    1647A      2.150364  1648A      2.152667  1649A      2.154480  
    1650A      2.156079  1651A      2.159138  1652A      2.160171  
    1653A      2.162729  1654A      2.163948  1655A      2.165726  
    1656A      2.167279  1657A      2.168508  1658A      2.170448  
    1659A      2.171482  1660A      2.172242  1661A      2.173718  
    1662A      2.175717  1663A      2.177401  1664A      2.179983  
    1665A      2.186767  1666A      2.188024  1667A      2.189550  
    1668A      2.198971  1669A      2.199958  1670A      2.203740  
    1671A      2.205046  1672A      2.208562  1673A      2.211146  
    1674A      2.212301  1675A      2.214336  1676A      2.214767  
    1677A      2.218442  1678A      2.219026  1679A      2.227274  
    1680A      2.229048  1681A      2.229472  1682A      2.231193  
    1683A      2.234379  1684A      2.238374  1685A      2.241526  
    1686A      2.244051  1687A      2.246561  1688A      2.258466  
    1689A      2.259927  1690A      2.260533  1691A      2.263847  
    1692A      2.264563  1693A      2.264967  1694A      2.266110  
    1695A      2.266759  1696A      2.267267  1697A      2.268929  
    1698A      2.270718  1699A      2.272092  1700A      2.275569  
    1701A      2.276064  1702A      2.277322  1703A      2.277753  
    1704A      2.278585  1705A      2.279735  1706A      2.280229  
    1707A      2.282044  1708A      2.282654  1709A      2.286083  
    1710A      2.303438  1711A      2.304271  1712A      2.306708  
    1713A      2.314194  1714A      2.320256  1715A      2.324019  
    1716A      2.327470  1717A      2.329529  1718A      2.332984  
    1719A      2.342447  1720A      2.352949  1721A      2.353754  
    1722A      2.356631  1723A      2.359237  1724A      2.362724  
    1725A      2.365532  1726A      2.376464  1727A      2.380276  
    1728A      2.384473  1729A      2.385915  1730A      2.389246  
    1731A      2.400158  1732A      2.400893  1733A      2.403558  
    1734A      2.403908  1735A      2.407698  1736A      2.408106  
    1737A      2.417311  1738A      2.428052  1739A      2.429160  
    1740A      2.435208  1741A      2.436460  1742A      2.439137  
    1743A      2.446308  1744A      2.446511  1745A      2.448611  
    1746A      2.455873  1747A      2.472976  1748A      2.474649  
    1749A      2.476163  1750A      2.478667  1751A      2.479511  
    1752A      2.480984  1753A      2.482969  1754A      2.484487  
    1755A      2.486096  1756A      2.487028  1757A      2.487861  
    1758A      2.488532  1759A      2.499286  1760A      2.507293  
    1761A      2.510105  1762A      2.518824  1763A      2.521640  
    1764A      2.522818  1765A      2.523884  1766A      2.524680  
    1767A      2.527673  1768A      2.527963  1769A      2.528815  
    1770A      2.532074  1771A      2.534280  1772A      2.537999  
    1773A      2.538277  1774A      2.548799  1775A      2.549979  
    1776A      2.551365  1777A      2.553063  1778A      2.554516  
    1779A      2.555227  1780A      2.562401  1781A      2.567723  
    1782A      2.568089  1783A      2.576705  1784A      2.579180  
    1785A      2.579887  1786A      2.581207  1787A      2.583676  
    1788A      2.585035  1789A      2.586897  1790A      2.593700  
    1791A      2.594761  1792A      2.596668  1793A      2.596906  
    1794A      2.604744  1795A      2.606983  1796A      2.609142  
    1797A      2.609828  1798A      2.610616  1799A      2.616904  
    1800A      2.617611  1801A      2.621000  1802A      2.623567  
    1803A      2.624796  1804A      2.626295  1805A      2.626643  
    1806A      2.628337  1807A      2.629282  1808A      2.631909  
    1809A      2.632974  1810A      2.643838  1811A      2.649498  
    1812A      2.661890  1813A      2.665191  1814A      2.666545  
    1815A      2.668147  1816A      2.669845  1817A      2.670209  
    1818A      2.685305  1819A      2.690339  1820A      2.691561  
    1821A      2.691986  1822A      2.707555  1823A      2.710751  
    1824A      2.713792  1825A      2.715615  1826A      2.731947  
    1827A      2.732820  1828A      2.734617  1829A      2.735509  
    1830A      2.736744  1831A      2.739413  1832A      2.742638  
    1833A      2.743310  1834A      2.745985  1835A      2.746825  
    1836A      2.749869  1837A      2.751340  1838A      2.754938  
    1839A      2.762868  1840A      2.766099  1841A      2.771123  
    1842A      2.774824  1843A      2.776636  1844A      2.777716  
    1845A      2.780806  1846A      2.781350  1847A      2.790808  
    1848A      2.797166  1849A      2.798835  1850A      2.799031  
    1851A      2.800891  1852A      2.808876  1853A      2.809842  
    1854A      2.814677  1855A      2.817251  1856A      2.825108  
    1857A      2.826000  1858A      2.840307  1859A      2.856188  
    1860A      2.856903  1861A      2.866545  1862A      2.868028  
    1863A      2.870928  1864A      2.872428  1865A      2.875996  
    1866A      2.886371  1867A      2.902867  1868A      2.904378  
    1869A      2.906288  1870A      2.914119  1871A      2.931297  
    1872A      2.932922  1873A      2.947640  1874A      2.963645  
    1875A      2.964402  1876A      2.975304  1877A      2.978732  
    1878A      2.980469  1879A      2.984837  1880A      2.986761  
    1881A      2.991711  1882A      2.992283  1883A      2.994160  
    1884A      3.008298  1885A      3.008754  1886A      3.045827  
    1887A      3.049353  1888A      3.051757  1889A      3.053505  
    1890A      3.059285  1891A      3.066034  1892A      3.066849  
    1893A      3.072740  1894A      3.076996  1895A      3.080493  
    1896A      3.081746  1897A      3.088466  1898A      3.088906  
    1899A      3.090778  1900A      3.092156  1901A      3.092822  
    1902A      3.099537  1903A      3.100650  1904A      3.105882  
    1905A      3.112669  1906A      3.114098  1907A      3.116075  
    1908A      3.132075  1909A      3.133139  1910A      3.134493  
    1911A      3.159126  1912A      3.194058  1913A      3.196580  
    1914A      3.197671  1915A      3.199998  1916A      3.201736  
    1917A      3.205433  1918A      3.207180  1919A      3.211077  
    1920A      3.212728  1921A      3.214209  1922A      3.235611  
    1923A      3.238008  1924A      3.241541  1925A      3.256491  
    1926A      3.295210  1927A      3.297003  1928A      3.326516  
    1929A      3.351022  1930A      3.357910  1931A      3.375701  
    1932A      3.385579  1933A      3.387590  1934A      3.390849  
    1935A      3.399016  1936A      3.399924  1937A      3.407225  
    1938A      3.409742  1939A      3.420584  1940A      3.421850  
    1941A      3.424645  1942A      3.441365  1943A      3.446646  
    1944A      3.482076  1945A      3.512348  1946A      3.514606  
    1947A      3.520419  1948A      3.525037  1949A      3.528431  
    1950A      3.586028  1951A      3.589287  1952A      3.595527  
    1953A      3.606864  1954A      3.608119  1955A      3.640875  
    1956A      3.685799  1957A      3.691515  1958A      3.695066  
    1959A      3.709574  1960A      3.715050  1961A      3.720486  
    1962A      3.781034  1963A      3.782925  1964A      3.809177  
    1965A      3.812087  1966A      3.847694  1967A      3.859621  
    1968A      3.874165  1969A      3.883051  1970A      3.885224  
    1971A      3.889325  1972A      3.901467  1973A      3.906890  
    1974A      3.912818  1975A      3.955678  1976A      3.957879  
    1977A      4.010353  1978A      4.209704  1979A      4.316718  
    1980A      4.349091  

    Final Occupation by Irrep:
              A 
    DOCC [   326 ]
    NA   [   326 ]
    NB   [   326 ]

  @DF-RHF Final Energy: -3953.66123704450956

   => Energetics <=

    Nuclear Repulsion Energy =          18229.5054848512954777
    One-Electron Energy =              -41663.9156068342563231
    Two-Electron Energy =               19480.7488849384499190
    Total Energy =                      -3953.6612370445109264

Computation Completed


Properties will be evaluated at   0.000000,   0.000000,   0.000000 [a0]

Properties computed using the SCF density matrix


 Multipole Moments:

 ------------------------------------------------------------------------------------
     Multipole            Electronic (a.u.)      Nuclear  (a.u.)        Total (a.u.)
 ------------------------------------------------------------------------------------

 L = 1.  Multiply by 2.5417464519 to convert [e a0] to [Debye]
 Dipole X            :         -0.0022402            0.0004804           -0.0017597
 Dipole Y            :         -0.0516471            0.0561130            0.0044659
 Dipole Z            :         19.3794964          -24.8359104           -5.4564139
 Magnitude           :                                                    5.4564160

 ------------------------------------------------------------------------------------

*** tstop() called on n2cn0183 at Wed Jan 24 20:21:26 2024
Module time:
	user time   =   29704.02 seconds =     495.07 minutes
	system time =    1926.25 seconds =      32.10 minutes
	total time  =       6737 seconds =     112.28 minutes
Total time:
	user time   =   29704.02 seconds =     495.07 minutes
	system time =    1926.25 seconds =      32.10 minutes
	total time  =       6737 seconds =     112.28 minutes

  //>>>>>>>>>>>>>>>>>>>>>>>>>>>>>>>>>>>//
  //            Monomer A HF           //
  //<<<<<<<<<<<<<<<<<<<<<<<<<<<<<<<<<<<//

   => Libint2 <=

    Primary   basis highest AM E, G, H:  5, 4, 3
    Auxiliary basis highest AM E, G, H:  6, 5, 4
    Onebody   basis highest AM E, G, H:  6, 5, 4
    Solid Harmonics ordering:            gaussian

*** tstart() called on n2cn0183
*** at Wed Jan 24 20:21:26 2024

   => Loading Basis Set <=

    Name: JUN-CC-PVDZ
    Role: ORBITAL
    Keyword: BASIS
    atoms 1-2, 4-5, 10, 17-34, 41-53, 56-70, 73-89, 92-104, 109-119, 122-130 entry C          line   164 file /opt/software/pc2/EB-SW/software/PSI4/1.9-foss-2022a/share/psi4/basis/jun-cc-pvdz.gbs 
    atoms 3, 6                                                               entry N          line   198 file /opt/software/pc2/EB-SW/software/PSI4/1.9-foss-2022a/share/psi4/basis/jun-cc-pvdz.gbs 
    atoms 7-9, 11-16, 35-40, 54-55, 71-72, 90-91, 105-108, 120-121, 131-136  entry H          line    36 file /opt/software/pc2/EB-SW/software/PSI4/1.9-foss-2022a/share/psi4/basis/jun-cc-pvdz.gbs 


         ---------------------------------------------------------
                                   SCF
               by Justin Turney, Rob Parrish, Andy Simmonett
                          and Daniel G. A. Smith
                              RHF Reference
                       16 Threads,  44822 MiB Core
         ---------------------------------------------------------

  ==> Geometry <==

    Molecular point group: c1
    Full point group: C1

    Geometry (in Angstrom), charge = 1, multiplicity = 1:

       Center              X                  Y                   Z               Mass       
    ------------   -----------------  -----------------  -----------------  -----------------
         C            0.680062820275    -0.008027535675    -5.280468765214    12.000000000000
         C           -0.680508179725    -0.005999535675    -5.280084765214    12.000000000000
         N           -1.085639179725    -0.005001535675    -3.961760765214    14.003074004430
[...]
    1585A      2.197176  1586A      2.198378  1587A      2.199707  
    1588A      2.201284  1589A      2.201687  1590A      2.202214  
    1591A      2.203520  1592A      2.204099  1593A      2.207299  
    1594A      2.209443  1595A      2.211010  1596A      2.212836  
    1597A      2.215085  1598A      2.216658  1599A      2.221164  
    1600A      2.222526  1601A      2.222795  1602A      2.224033  
    1603A      2.224081  1604A      2.225320  1605A      2.228898  
    1606A      2.231705  1607A      2.232141  1608A      2.235606  
    1609A      2.236471  1610A      2.238618  1611A      2.239348  
    1612A      2.240210  1613A      2.240793  1614A      2.241778  
    1615A      2.242990  1616A      2.245869  1617A      2.248092  
    1618A      2.250427  1619A      2.254214  1620A      2.257729  
    1621A      2.261537  1622A      2.265660  1623A      2.266912  
    1624A      2.267474  1625A      2.273521  1626A      2.276087  
    1627A      2.279394  1628A      2.280474  1629A      2.282512  
    1630A      2.284328  1631A      2.287196  1632A      2.291789  
    1633A      2.293811  1634A      2.294975  1635A      2.297199  
    1636A      2.300598  1637A      2.301921  1638A      2.306092  
    1639A      2.311455  1640A      2.314896  1641A      2.323441  
    1642A      2.325774  1643A      2.326196  1644A      2.329131  
    1645A      2.330271  1646A      2.331253  1647A      2.331833  
    1648A      2.332186  1649A      2.334167  1650A      2.336248  
    1651A      2.336906  1652A      2.338078  1653A      2.342380  
    1654A      2.342975  1655A      2.343760  1656A      2.344926  
    1657A      2.345998  1658A      2.346556  1659A      2.347967  
    1660A      2.349899  1661A      2.355511  1662A      2.360824  
    1663A      2.368647  1664A      2.377255  1665A      2.378581  
    1666A      2.384836  1667A      2.387495  1668A      2.389059  
    1669A      2.393748  1670A      2.396459  1671A      2.399142  
    1672A      2.406109  1673A      2.409401  1674A      2.418710  
    1675A      2.419994  1676A      2.424235  1677A      2.425716  
    1678A      2.429177  1679A      2.432446  1680A      2.434606  
    1681A      2.439061  1682A      2.443623  1683A      2.445412  
    1684A      2.451177  1685A      2.453332  1686A      2.464824  
    1687A      2.465838  1688A      2.468543  1689A      2.469532  
    1690A      2.472105  1691A      2.472313  1692A      2.474905  
    1693A      2.490867  1694A      2.492608  1695A      2.495409  
    1696A      2.502326  1697A      2.507213  1698A      2.508384  
    1699A      2.510826  1700A      2.514109  1701A      2.517581  
    1702A      2.519850  1703A      2.536373  1704A      2.539528  
    1705A      2.540236  1706A      2.540957  1707A      2.543025  
    1708A      2.544973  1709A      2.548192  1710A      2.549464  
    1711A      2.550065  1712A      2.550651  1713A      2.556320  
    1714A      2.556891  1715A      2.557164  1716A      2.559837  
    1717A      2.565243  1718A      2.571778  1719A      2.572210  
    1720A      2.577694  1721A      2.582626  1722A      2.585147  
    1723A      2.585666  1724A      2.586139  1725A      2.588021  
    1726A      2.589527  1727A      2.589883  1728A      2.593368  
    1729A      2.594097  1730A      2.596788  1731A      2.600082  
    1732A      2.605004  1733A      2.610195  1734A      2.614885  
    1735A      2.615153  1736A      2.615832  1737A      2.619042  
    1738A      2.620626  1739A      2.621164  1740A      2.633822  
    1741A      2.636552  1742A      2.642161  1743A      2.643816  
    1744A      2.645255  1745A      2.646751  1746A      2.649154  
    1747A      2.650414  1748A      2.651600  1749A      2.657018  
    1750A      2.658230  1751A      2.661385  1752A      2.666403  
    1753A      2.670843  1754A      2.671521  1755A      2.673795  
    1756A      2.674371  1757A      2.677628  1758A      2.678976  
    1759A      2.679611  1760A      2.685238  1761A      2.687697  
    1762A      2.689950  1763A      2.691280  1764A      2.692041  
    1765A      2.692672  1766A      2.693937  1767A      2.697236  
    1768A      2.697430  1769A      2.701027  1770A      2.709040  
    1771A      2.720011  1772A      2.721518  1773A      2.723673  
    1774A      2.725316  1775A      2.730724  1776A      2.731590  
    1777A      2.732281  1778A      2.733386  1779A      2.736697  
    1780A      2.750000  1781A      2.758462  1782A      2.761759  
    1783A      2.766730  1784A      2.778760  1785A      2.779945  
    1786A      2.784027  1787A      2.788150  1788A      2.789437  
    1789A      2.798380  1790A      2.799945  1791A      2.800331  
    1792A      2.802301  1793A      2.802661  1794A      2.804006  
    1795A      2.812724  1796A      2.816219  1797A      2.816444  
    1798A      2.817695  1799A      2.817997  1800A      2.824055  
    1801A      2.826453  1802A      2.833991  1803A      2.834754  
    1804A      2.842973  1805A      2.844182  1806A      2.845118  
    1807A      2.848095  1808A      2.848729  1809A      2.866495  
    1810A      2.867060  1811A      2.872588  1812A      2.873777  
    1813A      2.877894  1814A      2.890339  1815A      2.896247  
    1816A      2.897214  1817A      2.915900  1818A      2.917771  
    1819A      2.919331  1820A      2.926952  1821A      2.931081  
    1822A      2.933772  1823A      2.935083  1824A      2.937983  
    1825A      2.941828  1826A      2.946786  1827A      2.963498  
    1828A      2.966771  1829A      2.969201  1830A      2.972511  
    1831A      2.977464  1832A      2.985408  1833A      2.996043  
    1834A      2.997386  1835A      3.014528  1836A      3.024728  
    1837A      3.031316  1838A      3.034346  1839A      3.042716  
    1840A      3.043243  1841A      3.048410  1842A      3.050698  
    1843A      3.053515  1844A      3.058129  1845A      3.059503  
    1846A      3.067823  1847A      3.069813  1848A      3.077315  
    1849A      3.090684  1850A      3.108577  1851A      3.113311  
    1852A      3.114780  1853A      3.117107  1854A      3.124188  
    1855A      3.131058  1856A      3.131984  1857A      3.139694  
    1858A      3.141951  1859A      3.144292  1860A      3.145096  
    1861A      3.146417  1862A      3.152594  1863A      3.154339  
    1864A      3.155150  1865A      3.162491  1866A      3.162785  
    1867A      3.164649  1868A      3.168845  1869A      3.174591  
    1870A      3.180524  1871A      3.180728  1872A      3.195162  
    1873A      3.197884  1874A      3.203142  1875A      3.220954  
    1876A      3.258310  1877A      3.263327  1878A      3.263371  
    1879A      3.265244  1880A      3.267038  1881A      3.268410  
    1882A      3.272418  1883A      3.274756  1884A      3.276786  
    1885A      3.278684  1886A      3.301540  1887A      3.303451  
    1888A      3.305430  1889A      3.307550  1890A      3.313882  
    1891A      3.356917  1892A      3.363255  1893A      3.365346  
    1894A      3.393157  1895A      3.405419  1896A      3.420695  
    1897A      3.435520  1898A      3.448646  1899A      3.452170  
    1900A      3.456801  1901A      3.460169  1902A      3.468778  
    1903A      3.471394  1904A      3.475864  1905A      3.477980  
    1906A      3.487565  1907A      3.491724  1908A      3.493861  
    1909A      3.505921  1910A      3.513826  1911A      3.517656  
    1912A      3.548754  1913A      3.555428  1914A      3.580873  
    1915A      3.583526  1916A      3.589507  1917A      3.591832  
    1918A      3.640639  1919A      3.651566  1920A      3.656269  
    1921A      3.666854  1922A      3.675581  1923A      3.680006  
    1924A      3.708559  1925A      3.751976  1926A      3.758054  
    1927A      3.765219  1928A      3.766494  1929A      3.778401  
    1930A      3.780809  1931A      3.791399  1932A      3.835052  
    1933A      3.846835  1934A      3.849266  1935A      3.874814  
    1936A      3.877824  1937A      3.883513  1938A      3.914934  
    1939A      3.927015  1940A      3.945449  1941A      3.949576  
    1942A      3.951390  1943A      3.960193  1944A      3.968425  
    1945A      3.978405  1946A      3.984483  1947A      4.013754  
    1948A      4.025021  1949A      4.027884  1950A      4.082095  
    1951A      4.229400  1952A      4.231939  1953A      4.290653  
    1954A      4.397560  1955A      4.419104  1956A      4.436758  
    1957A      4.442978  1958A      4.515823  1959A      4.795128  
    1960A      4.852341  1961A      4.884522  1962A      4.890651  
    1963A      4.974705  1964A      5.086379  1965A      5.089408  
    1966A      5.097870  1967A      5.135195  1968A      5.210306  
    1969A      5.413241  1970A      5.441649  1971A      5.767470  
    1972A      5.787840  1973A      6.081468  1974A     18.206231  
    1975A     18.484919  1976A     18.507399  1977A     18.594429  
    1978A     18.857549  1979A     25.357040  1980A     25.392066  

    Final Occupation by Irrep:
              A 
    DOCC [   300 ]
    NA   [   300 ]
    NB   [   300 ]

  @DF-RHF Final Energy: -3650.34117310212787

   => Energetics <=

    Nuclear Repulsion Energy =          15611.4211649754306563
    One-Electron Energy =              -36072.1824213948639226
    Two-Electron Energy =               16810.4200833173090359
    Total Energy =                      -3650.3411731021260493

Computation Completed


Properties will be evaluated at   0.000000,   0.000000,   0.000000 [a0]

Properties computed using the SCF density matrix


 Multipole Moments:

 ------------------------------------------------------------------------------------
     Multipole            Electronic (a.u.)      Nuclear  (a.u.)        Total (a.u.)
 ------------------------------------------------------------------------------------

 L = 1.  Multiply by 2.5417464519 to convert [e a0] to [Debye]
 Dipole X            :         -0.0006236            0.0002112           -0.0004124
 Dipole Y            :          0.0012921           -0.0013774           -0.0000853
 Dipole Z            :       -380.3540632          380.3601737            0.0061106
 Magnitude           :                                                    0.0061251

 ------------------------------------------------------------------------------------

*** tstop() called on n2cn0183 at Wed Jan 24 22:23:29 2024
Module time:
	user time   =   20905.83 seconds =     348.43 minutes
	system time =    1317.49 seconds =      21.96 minutes
	total time  =       4809 seconds =      80.15 minutes
Total time:
	user time   =   56598.78 seconds =     943.31 minutes
	system time =    3621.92 seconds =      60.37 minutes
	total time  =      14060 seconds =     234.33 minutes
  Constructing Basis Sets for SAPT...

   => Loading Basis Set <=

    Name: (JUN-CC-PVDZ AUX)
    Role: RIFIT
    Keyword: DF_BASIS_SAPT
    atoms 1-2, 4-5, 10, 17-34, 41-53, 56-70, 73-89, 92-104, 109-119, 122-130 entry C          line   100 file /opt/software/pc2/EB-SW/software/PSI4/1.9-foss-2022a/share/psi4/basis/jun-cc-pvdz-ri.gbs 
    atoms 3, 6                                                               entry N          line   144 file /opt/software/pc2/EB-SW/software/PSI4/1.9-foss-2022a/share/psi4/basis/jun-cc-pvdz-ri.gbs 
    atoms 7-9, 11-16, 35-40, 54-55, 71-72, 90-91, 105-108, 120-121, 131-136  entry H          line    30 file /opt/software/pc2/EB-SW/software/PSI4/1.9-foss-2022a/share/psi4/basis/jun-cc-pvdz-ri.gbs 

   => Loading Basis Set <=

    Name: (JUN-CC-PVDZ AUX)
    Role: JKFIT
    Keyword: DF_BASIS_ELST
    atoms 1-2, 4-5, 10, 17-34, 41-53, 56-70, 73-89, 92-104, 109-119, 122-130 entry C          line   146 file /opt/software/pc2/EB-SW/software/PSI4/1.9-foss-2022a/share/psi4/basis/jun-cc-pvdz-jkfit.gbs 
    atoms 3, 6                                                               entry N          line   202 file /opt/software/pc2/EB-SW/software/PSI4/1.9-foss-2022a/share/psi4/basis/jun-cc-pvdz-jkfit.gbs 
    atoms 7-9, 11-16, 35-40, 54-55, 71-72, 90-91, 105-108, 120-121, 131-136  entry H          line    70 file /opt/software/pc2/EB-SW/software/PSI4/1.9-foss-2022a/share/psi4/basis/jun-cc-pvdz-jkfit.gbs 


  //>>>>>>>>>>>>>>>>>>>>>>>>>>>>>>>>>>>//
  //               SSAPT0              //
  //<<<<<<<<<<<<<<<<<<<<<<<<<<<<<<<<<<<//


*** tstart() called on n2cn0183
*** at Wed Jan 24 22:23:30 2024

        SAPT0  
    Ed Hohenstein
     6 June 2009

      Orbital Information
  --------------------------
    NSO        =      2019
    NMO        =      1980
    NRI        =      7157
    NRI (Elst) =      8896
    NOCC A     =        26
    NOCC B     =       300
    FOCC A     =         7
    FOCC B     =        96
    NVIR A     =      1954
    NVIR B     =      1680

    Elst10,r            =    -0.014156643971 [Eh]
    Exch10              =     0.009018932571 [Eh]
    Exch10 (S^2)        =     0.008992689737 [Eh]

    Iter     Energy [mEh]          dE [mEh]         Residual      Time [s]
       1      -0.56917803       0.569178034       3.367764937           499
       2      -0.66650501       0.097326976       1.260718201           954
       3      -0.68655857       0.020053564       0.161386054          1359
       4      -0.68549103      -0.001067546       0.047991557          1791
       5      -0.68529174      -0.000199290       0.010661357          2244
       6      -0.68535808       0.000066338       0.002881137          2680
       7      -0.68535700      -0.000001079       0.001337996          3110
       8      -0.68535362      -0.000003379       0.000574933          3530
       9      -0.68535322      -0.000000401       0.000208989          4073
      10      -0.68535365       0.000000435       0.000073636          4487
      11      -0.68535380       0.000000151       0.000020427          4944
      12      -0.68535374      -0.000000064       0.000003824          5321
      13      -0.68535374      -0.000000001       0.000001141          5696
      14      -0.68535374       0.000000002       0.000000409          6112

    CHF Iterations converged


    Iter     Energy [mEh]          dE [mEh]         Residual      Time [s]
       1     -23.18120278      23.181202777      81.733757363           538
       2     -15.33239542      -7.848807356      10.513895667          1058
       3     -15.38207771       0.049682289       3.925681611          1535
       4     -15.74946482       0.367387110       1.173941852          2060
       5     -15.79040929       0.040944469       0.399591645          2552
       6     -15.78004508      -0.010364207       0.260408163          3163
       7     -15.77288224      -0.007162838       0.104682852          3651
       8     -15.77402551       0.001143265       0.046884135          4170
       9     -15.77537284       0.001347327       0.018721879          4660
      10     -15.77530466      -0.000068181       0.016878572          5160
      11     -15.77500413      -0.000300527       0.010252804          5714
      12     -15.77498469      -0.000019435       0.005749288          6282
      13     -15.77508147       0.000096779       0.002860625          6847
      14     -15.77510148       0.000020011       0.001945566          7438
      15     -15.77508144      -0.000020045       0.001256816          7997
      16     -15.77506603      -0.000015411       0.000514486          8577
      17     -15.77507557       0.000009548       0.000210533          9133
      18     -15.77507740       0.000001824       0.000084907          9612
      19     -15.77507627      -0.000001131       0.000048189         10221
      20     -15.77507566      -0.000000609       0.000021427         10699
      21     -15.77507586       0.000000203       0.000011048         11160
      22     -15.77507599       0.000000130       0.000005440         11651
      23     -15.77507596      -0.000000028       0.000002876         12105
      24     -15.77507593      -0.000000034       0.000001601         12541
      25     -15.77507593       0.000000004       0.000000868         12925

    CHF Iterations converged

    Ind20,r (A<-B)      =    -0.000685353740 [Eh]
    Ind20,r (B<-A)      =    -0.015775075932 [Eh]
    Ind20,r             =    -0.016460429672 [Eh]
    Exch-Ind20,r (A<-B) =     0.000639353486 [Eh]
    Exch-Ind20,r (B<-A) =     0.001368177235 [Eh]
    Exch-Ind20,r        =     0.002007530721 [Eh]
    Disp20              =    -0.020678003231 [Eh]
    Disp20 (SS)         =    -0.010339001616 [Eh]
    Disp20 (OS)         =    -0.010339001616 [Eh]
    Exch-Disp20         =     0.000880583776 [Eh]
    Exch-Disp20 (SS)    =     0.000536393402 [Eh]
    Exch-Disp20 (OS)    =     0.000344190373 [Eh]

    SAPT Results 
  --------------------------------------------------------------------------------------------------------
    Electrostatics                -14.15664397 [mEh]      -8.88342821 [kcal/mol]     -37.16826363 [kJ/mol]
      Elst10,r                    -14.15664397 [mEh]      -8.88342821 [kcal/mol]     -37.16826363 [kJ/mol]

    Exchange                        9.01893257 [mEh]       5.65946563 [kcal/mol]      23.67920420 [kJ/mol]
      Exch10                        9.01893257 [mEh]       5.65946563 [kcal/mol]      23.67920420 [kJ/mol]
      Exch10(S^2)                   8.99268974 [mEh]       5.64299800 [kcal/mol]      23.61030365 [kJ/mol]

    Induction                     -16.69373562 [mEh]     -10.47547725 [kcal/mol]     -43.82939683 [kJ/mol]
      Ind20,r                     -16.46042967 [mEh]     -10.32907556 [kcal/mol]     -43.21685215 [kJ/mol]
      Exch-Ind20,r                  2.00753072 [mEh]       1.25974455 [kcal/mol]       5.27077118 [kJ/mol]
      delta HF,r (2)               -2.24083667 [mEh]      -1.40614624 [kcal/mol]      -5.88331586 [kJ/mol]

    Dispersion                    -19.79741946 [mEh]     -12.42306826 [kcal/mol]     -51.97811762 [kJ/mol]
      Disp20                      -20.67800323 [mEh]     -12.97564293 [kcal/mol]     -54.29009000 [kJ/mol]
      Exch-Disp20                   0.88058378 [mEh]       0.55257466 [kcal/mol]       2.31197238 [kJ/mol]
      Disp20 (SS)                 -10.33900162 [mEh]      -6.48782146 [kcal/mol]     -27.14504500 [kJ/mol]
      Disp20 (OS)                 -10.33900162 [mEh]      -6.48782146 [kcal/mol]     -27.14504500 [kJ/mol]
      Exch-Disp20 (SS)              0.53639340 [mEh]       0.33659194 [kcal/mol]       1.40830068 [kJ/mol]
      Exch-Disp20 (OS)              0.34419037 [mEh]       0.21598272 [kcal/mol]       0.90367170 [kJ/mol]

  Total HF                        -21.83144702 [mEh]     -13.69943983 [kcal/mol]     -57.31845625 [kJ/mol]
  Total SAPT0                     -41.62886648 [mEh]     -26.12250810 [kcal/mol]    -109.29657387 [kJ/mol]

  Special recipe for scaled SAPT0 (see Manual):
    Electrostatics sSAPT0         -14.15664397 [mEh]      -8.88342821 [kcal/mol]     -37.16826363 [kJ/mol]
    Exchange sSAPT0                 9.01893257 [mEh]       5.65946563 [kcal/mol]      23.67920420 [kJ/mol]
    Induction sSAPT0              -16.67610891 [mEh]     -10.46441632 [kcal/mol]     -43.78311790 [kJ/mol]
    Dispersion sSAPT0             -19.78968767 [mEh]     -12.41821650 [kcal/mol]     -51.95781782 [kJ/mol]
  Total sSAPT0                    -41.60350798 [mEh]     -26.10659540 [kcal/mol]    -109.22999514 [kJ/mol]
  --------------------------------------------------------------------------------------------------------

*** tstop() called on n2cn0183 at Thu Jan 25 13:23:51 2024
Module time:
	user time   =   77402.74 seconds =    1290.05 minutes
	system time =    3710.47 seconds =      61.84 minutes
	total time  =      54021 seconds =     900.35 minutes
Total time:
	user time   =  134003.05 seconds =    2233.38 minutes
	system time =    7332.40 seconds =     122.21 minutes
	total time  =      68082 seconds =    1134.70 minutes

    Psi4 stopped on: Thursday, 25 January 2024 01:23PM
    Psi4 wall time for execution: 18:54:42.64

*** Psi4 exiting successfully. Buy a developer a beer!
