
    -----------------------------------------------------------------------
          Psi4: An Open-Source Ab Initio Electronic Structure Package
                               Psi4 1.9 release

                         Git: Rev {} zzzzzzz 


    D. G. A. Smith, L. A. Burns, A. C. Simmonett, R. M. Parrish,
    M. C. Schieber, R. Galvelis, P. Kraus, H. Kruse, R. Di Remigio,
    A. Alenaizan, A. M. James, S. Lehtola, J. P. Misiewicz, M. Scheurer,
    R. A. Shaw, J. B. Schriber, Y. Xie, Z. L. Glick, D. A. Sirianni,
    J. S. O'Brien, J. M. Waldrop, A. Kumar, E. G. Hohenstein,
    B. P. Pritchard, B. R. Brooks, H. F. Schaefer III, A. Yu. Sokolov,
    K. Patkowski, A. E. DePrince III, U. Bozkaya, R. A. King,
    F. A. Evangelista, J. M. Turney, T. D. Crawford, C. D. Sherrill,
    J. Chem. Phys. 152(18) 184108 (2020). https://doi.org/10.1063/5.0006002

                            Additional Code Authors
    E. T. Seidl, C. L. Janssen, E. F. Valeev, M. L. Leininger,
    J. F. Gonthier, R. M. Richard, H. R. McAlexander, M. Saitow, X. Wang,
    P. Verma, M. H. Lechner, A. Jiang, S. Behnle, A. G. Heide,
    M. F. Herbst, and D. L. Poole

             Previous Authors, Complete List of Code Contributors,
                       and Citations for Specific Modules
    https://github.com/psi4/psi4/blob/master/codemeta.json
    https://github.com/psi4/psi4/graphs/contributors
    http://psicode.org/psi4manual/master/introduction.html#citing-psifour

    -----------------------------------------------------------------------


    Psi4 started on: Saturday, 27 January 2024 11:25AM

    Process ID: 1823240
    Host:       n2cn1142
    PSIDATADIR: /opt/software/pc2/EB-SW/software/PSI4/1.9-foss-2022a/share/psi4
    Memory:     500.0 MiB
    Threads:    16
    
  ==> Input File <==

--------------------------------------------------------------------------
memory 64 GB # how much memory is available ! Depends on the nodes/cores !

molecule dimer {
# monomer A
-1 1    # Charge and multiplicity
B -0.000046  0.000337 3.599994
F -1.153597  0.000048 4.415641
F  1.153661 -0.000581 4.415641
F -0.000019 -1.153637 2.784360
F -0.000019  1.153978 2.784360
--
# monomer B
0 1     # Charge and multiplicity
C   -3.66844126402057      7.80375217008252      0.00190004133558
C   -4.84759871934653      7.13124183134024     -0.00046653359696
C   -4.89495929917518      5.69633040353158     -0.00103944469517
C   -3.65374067877320      4.98073034095895      0.00662099703436
C   -2.40942512149445      7.11398103667468      0.00209438359570
C   -2.42547734410473      5.68112195090346     -0.00491050527438
C   -1.19474401643570      7.78614419430947      0.00356656413763
C   0.03795902893699      7.09942164575698      0.00139585983271
C   0.03033258741920      5.66948955970466     -0.00408752508301
C   -1.20098450790502      4.96927034791531      0.00488220885047
C   1.27795782581485      7.77285944319479      0.00277170839332
C   2.48535808472416      7.08769688523756      0.00049722048857
C   2.48612868491717      5.65477081024076     -0.00644052849921
C   1.25408291964399      4.95607811366431      0.00518741308898
C   3.75171459140595      7.76391215098033      0.00062407186893
C   4.92356605618520      7.07878077698995     -0.00143240883900
C   4.95560727132542      5.64344746336949     -0.00159282164606
C   3.70680153420475      4.94121020833308      0.00349873852374
H   -3.65852113775815      8.89082741913536      0.00358502958574
H   -1.18921332975660      8.87412108735996      0.00753844057883
H   1.28429423888630      8.86083343548850      0.00693053253426
H   3.75354208679975      8.85103527897216      0.00214659618464
H   5.86995870320703      7.61379483465560     -0.00235777588134
H   -5.78823170750226      7.67630221293400     -0.00202638095293
C   -6.09197395869619      4.99326001364347     -0.00291168518608
C   -6.12866148031747      3.58258016879823     -0.00171050815740
C   -3.66457974004527      3.56418217974434     -0.00463560277484
C   -4.89429820469869      2.86108077590057      0.00453338221034
C   -2.43733499489796      2.84761165708481      0.00719617576166
C   -1.20922785759670      3.54788693497833     -0.00648285103018
C   1.24714157216223      3.53468075142962     -0.00729145743546
C   0.01517603956900      2.83311183930540      0.00439272578912
C   2.46764517244071      2.82128997725533      0.00449278391269
C   3.70254947457969      3.52466015442405     -0.00899517692985
C   6.14498038638375      4.92757236613191     -0.00282626685777
C   6.16658835886151      3.51658447594213     -0.00065971342101
C   4.92460995845939      2.80840792535402      0.00587903281610
H   7.08990550964105      5.46688776622306     -0.00658814770723
H   -7.03104175110130      5.54268795285765     -0.00714490013730
C   -7.33969804112295      2.85841153457957     -0.00333767559888
C   -7.36488195805880      1.47032337158330     -0.00157213747140
C   -4.90350460894690      1.44442681216000     -0.00628840166334
C   -6.13225715261081      0.73993935705394      0.00600164231964
C   -3.67687480051673      0.72669714267312      0.00433931473643
C   -2.44565658606518      1.42964113326212     -0.00597039546461
C   -1.22360068130162      0.71532450163492      0.00545886906656
C   0.00763786931376      1.41738314923765      0.00392452278437
C   1.23121980774686      0.70211669058719     -0.01490206287210
C   2.46082110053113      1.40329203612573      0.00460244601878
C   3.68443025419614      0.68719842821222      0.00377365974158
C   4.91870890153864      1.39173456118907     -0.00862816189375
C   7.36980207796101      2.77948220318441     -0.00242013321349
C   7.38016266612146      1.39121750785509     -0.00087345036788
C   6.13979953912259      0.67411862320065      0.00545489144369
H   -8.27919079934664      3.40711804112415     -0.00763522772059
H   8.31511347147953      3.31811809662368     -0.00663070901292
C   -8.59175593758115      0.72483255304480     -0.00123170985383
C   -8.59902460370342     -0.63263980622873      0.00089141472904
C   -6.13981313911873     -0.67413663715361     -0.00609792660607
C   -7.38018411213749     -1.39126618958160      0.00131813493501
C   -4.91868448025621     -1.39175501803000      0.00624257154343
C   -3.68443829568458     -0.68723731573599     -0.00478966852105
C   -2.46081704024768     -1.40334517882457      0.00575341766833
C   -1.23116201232071     -0.70217386488055     -0.00636696112346
C   -0.00756962538737     -1.41741884941102      0.00108956317991
C   1.22364771588843     -0.71527537726392      0.01109518512883
C   2.44567064933149     -1.42964328900682     -0.00065482763106
C   3.67686670284649     -0.72670743155550     -0.00479541202602
C   6.13224884641929     -0.73997883984993     -0.00632338623858
C   4.90351914550401     -1.44445752054090      0.00751768830159
C   8.59901484869081      0.63260386666793     -0.00101133422380
C   8.59174548810050     -0.72485086719319      0.00072504603735
C   7.36486276438985     -1.47033266560598      0.00049486934466
H   -9.52830597181814      1.27684744919284     -0.00270163681798
H   9.54141097460619      1.17457248844457     -0.00206336648518
C   -7.36983790976868     -2.77954514593389      0.00312634335708
C   -4.92459910905015     -2.80843725734101     -0.00460528907921
C   -6.16662249566744     -3.51665219282533      0.00169655107992
C   -3.70251035970491     -3.52468154912026      0.00571878010666
C   -2.46764698511392     -2.82132596280400     -0.00632585824990
C   -0.01513347410770     -2.83314164539971     -0.00604426974092
C   -1.24712184122656     -3.53473217556300      0.00551968366725
C   1.20924506964357     -3.54791467864352      0.00805871345849
C   2.43733602215464     -2.84764173817541     -0.00608104485234
C   4.89430234377080     -2.86112296828604     -0.00526030478103
C   3.66461525504104     -3.56421984553201      0.00761911515957
C   6.12863901474565     -3.58258405771778      0.00096495711699
C   7.33967266469532     -2.85841330737039      0.00248018319869
H   -9.54144911125902     -1.17456346666430      0.00226083090216
H   9.52826186807155     -1.27691907390448      0.00197485379837
H   -8.31516504384864     -3.31814985321231      0.00729857188773
H   8.27915514249207     -3.40714078989363      0.00681973918158
C   -6.14499418870218     -4.92764727278338      0.00302254913999
C   -3.70678334799751     -4.94126171411716     -0.00679841894792
C   -4.95559005800169     -5.64349397349412      0.00116871569699
C   -2.48612132622665     -5.65478557440947      0.00614125209662
C   -1.25405833548005     -4.95612205000132     -0.00503435388927
C   1.20101257386816     -4.96928038819302     -0.00385322963129
C   -0.03033667441341     -5.66952030313900      0.00398997003238
C   3.65375010132847     -4.98074377541453     -0.00309522988330
C   2.42549269587528     -5.68117463552727      0.00628170066869
C   6.09196561781097     -4.99325796338655      0.00325918379042
C   4.89497644461045     -5.69634842095790      0.00202298796027
H   -7.08989238804069     -5.46699984223871      0.00742531082125
H   7.03105520920009     -5.54265853633254      0.00683896355417
C   -4.92354532219813     -7.07882109967734      0.00061394679214
C   -2.48534208823777     -7.08772807792913     -0.00189594564379
C   -3.75168589177895     -7.76394715763627     -0.00170126671874
C   -0.03794895698805     -7.09946487446944     -0.00168022049625
C   -1.27795610040136     -7.77290438466689     -0.00366491325785
C   2.40944432072629     -7.11402201200282     -0.00081701968533
C   1.19474993715296     -7.78618536556242     -0.00296931056689
C   4.84762105249800     -7.13126211057943      0.00168979497423
C   3.66847160587561     -7.80378799294376     -0.00065863938960
H   -5.86994035041618     -7.61383059804164      0.00215798365757
H   5.78824962538815     -7.67633218931421      0.00281691445618
H   -3.75352693944918     -8.85107156923607     -0.00353718114765
H   -1.28430440589466     -8.86087539249706     -0.00809229711623
H   1.18922157469537     -8.87416062058945     -0.00706194725726
H   3.65854661482387     -8.89086063405326     -0.00231318081200

    units angstrom      # Angstroms are the default
    no_reorient         # Geometry fixed, default
    symmetry c1         # C1 symmetry, default
}

set {
    scf_type DF         # Density fitting, faster than exact integrals
    freeze_core True    # Freeze core electrons
    basis jun-cc-pVDZ   # Jun-cc-pVDZ basis set, recommended for sSAPT0 in https://doi.org/10.1063/1.4867135
}

energy('ssapt0')        # Compute sSAPT0 energy, includes also SAPT0
--------------------------------------------------------------------------

  Memory set to  59.605 GiB by Python driver.

Scratch directory: /tmp/
   => Loading Basis Set <=

    Name: JUN-CC-PVDZ
    Role: ORBITAL
    Keyword: BASIS
    atoms 1                                                   entry B          line   130 file /opt/software/pc2/EB-SW/software/PSI4/1.9-foss-2022a/share/psi4/basis/jun-cc-pvdz.gbs 
    atoms 2-5                                                 entry F          line   266 file /opt/software/pc2/EB-SW/software/PSI4/1.9-foss-2022a/share/psi4/basis/jun-cc-pvdz.gbs 
    atoms 6-23, 30-42, 45-59, 62-78, 81-93, 98-108, 111-119   entry C          line   164 file /opt/software/pc2/EB-SW/software/PSI4/1.9-foss-2022a/share/psi4/basis/jun-cc-pvdz.gbs 
    atoms 24-29, 43-44, 60-61, 79-80, 94-97, 109-110, 120-125 entry H          line    36 file /opt/software/pc2/EB-SW/software/PSI4/1.9-foss-2022a/share/psi4/basis/jun-cc-pvdz.gbs 

   => Loading Basis Set <=

    Name: JUN-CC-PVDZ
    Role: ORBITAL
    Keyword: BASIS
    atoms 1                                                   entry B          line   130 file /opt/software/pc2/EB-SW/software/PSI4/1.9-foss-2022a/share/psi4/basis/jun-cc-pvdz.gbs 
    atoms 2-5                                                 entry F          line   266 file /opt/software/pc2/EB-SW/software/PSI4/1.9-foss-2022a/share/psi4/basis/jun-cc-pvdz.gbs 
    atoms 6-23, 30-42, 45-59, 62-78, 81-93, 98-108, 111-119   entry C          line   164 file /opt/software/pc2/EB-SW/software/PSI4/1.9-foss-2022a/share/psi4/basis/jun-cc-pvdz.gbs 
    atoms 24-29, 43-44, 60-61, 79-80, 94-97, 109-110, 120-125 entry H          line    36 file /opt/software/pc2/EB-SW/software/PSI4/1.9-foss-2022a/share/psi4/basis/jun-cc-pvdz.gbs 


  //>>>>>>>>>>>>>>>>>>>>>>>>>>>>>>>>>>>//
  //              Dimer HF             //
  //<<<<<<<<<<<<<<<<<<<<<<<<<<<<<<<<<<<//

   => Libint2 <=

    Primary   basis highest AM E, G, H:  5, 4, 3
    Auxiliary basis highest AM E, G, H:  6, 5, 4
    Onebody   basis highest AM E, G, H:  6, 5, 4
    Solid Harmonics ordering:            gaussian

*** tstart() called on n2cn1142
*** at Sat Jan 27 11:25:34 2024

   => Loading Basis Set <=

    Name: JUN-CC-PVDZ
    Role: ORBITAL
    Keyword: BASIS
    atoms 1                                                   entry B          line   130 file /opt/software/pc2/EB-SW/software/PSI4/1.9-foss-2022a/share/psi4/basis/jun-cc-pvdz.gbs 
    atoms 2-5                                                 entry F          line   266 file /opt/software/pc2/EB-SW/software/PSI4/1.9-foss-2022a/share/psi4/basis/jun-cc-pvdz.gbs 
    atoms 6-23, 30-42, 45-59, 62-78, 81-93, 98-108, 111-119   entry C          line   164 file /opt/software/pc2/EB-SW/software/PSI4/1.9-foss-2022a/share/psi4/basis/jun-cc-pvdz.gbs 
    atoms 24-29, 43-44, 60-61, 79-80, 94-97, 109-110, 120-125 entry H          line    36 file /opt/software/pc2/EB-SW/software/PSI4/1.9-foss-2022a/share/psi4/basis/jun-cc-pvdz.gbs 


         ---------------------------------------------------------
                                   SCF
               by Justin Turney, Rob Parrish, Andy Simmonett
                          and Daniel G. A. Smith
                              RHF Reference
                       16 Threads,  61035 MiB Core
         ---------------------------------------------------------

  ==> Geometry <==

    Molecular point group: c1
    Full point group: C1

    Geometry (in Angstrom), charge = -1, multiplicity = 1:

       Center              X                  Y                   Z               Mass       
    ------------   -----------------  -----------------  -----------------  -----------------
         B           -0.000050191042     0.000351518223     3.352039025239    11.009305360000
         F           -1.153601191042     0.000062518223     4.167686025239    18.998403162730
         F            1.153656808958    -0.000566481777     4.167686025239    18.998403162730
         F           -0.000023191042    -1.153622481777     2.536405025239    18.998403162730
         F           -0.000023191042     1.153992518223     2.536405025239    18.998403162730
         C           -3.668445455062     7.803766688305    -0.246054933425    12.000000000000
         C           -4.847602910388     7.131256349563    -0.248421508358    12.000000000000
         C           -4.894963490217     5.696344921754    -0.248994419456    12.000000000000
         C           -3.653744869815     4.980744859182    -0.241333977726    12.000000000000
         C           -2.409429312536     7.113995554897    -0.245860591165    12.000000000000
         C           -2.425481535146     5.681136469126    -0.252865480035    12.000000000000
         C           -1.194748207477     7.786158712532    -0.244388410623    12.000000000000
         C            0.037954837895     7.099436163980    -0.246559114928    12.000000000000
         C            0.030328396378     5.669504077927    -0.252042499844    12.000000000000
         C           -1.200988698947     4.969284866138    -0.243072765910    12.000000000000
         C            1.277953634773     7.772873961417    -0.245183266367    12.000000000000
         C            2.485353893683     7.087711403460    -0.247457754272    12.000000000000
         C            2.486124493876     5.654785328463    -0.254395503260    12.000000000000
         C            1.254078728602     4.956092631887    -0.242767561672    12.000000000000
         C            3.751710400364     7.763926669203    -0.247330902892    12.000000000000
         C            4.923561865144     7.078795295213    -0.249387383600    12.000000000000
         C            4.955603080284     5.643461981592    -0.249547796407    12.000000000000
         C            3.706797343163     4.941224726556    -0.244456236237    12.000000000000
         H           -3.658525328800     8.890841937358    -0.244369945175     1.007825032230
         H           -1.189217520798     8.874135605583    -0.240416534182     1.007825032230
         H            1.284290047845     8.860847953711    -0.241024442226     1.007825032230
         H            3.753537895758     8.851049797195    -0.245808378576     1.007825032230
         H            5.869954512165     7.613809352878    -0.250312750642     1.007825032230
         H           -5.788235898544     7.676316731157    -0.249981355714     1.007825032230
         C           -6.091978149738     4.993274531866    -0.250866659947    12.000000000000
         C           -6.128665671359     3.582594687021    -0.249665482918    12.000000000000
         C           -3.664583931087     3.564196697967    -0.252590577536    12.000000000000
         C           -4.894302395740     2.861095294123    -0.243421592550    12.000000000000
         C           -2.437339185940     2.847626175307    -0.240758798999    12.000000000000
         C           -1.209232048638     3.547901453201    -0.254437825791    12.000000000000
         C            1.247137381121     3.534695269652    -0.255246432196    12.000000000000
         C            0.015171848527     2.833126357528    -0.243562248972    12.000000000000
         C            2.467640981399     2.821304495478    -0.243462190848    12.000000000000
         C            3.702545283538     3.524674672647    -0.256950151691    12.000000000000
         C            6.144976195342     4.927586884354    -0.250781241619    12.000000000000
         C            6.166584167820     3.516598994165    -0.248614688182    12.000000000000
         C            4.924605767418     2.808422443577    -0.242075941945    12.000000000000
         H            7.089901318599     5.466902284446    -0.254543122468     1.007825032230
         H           -7.031045942143     5.542702471080    -0.255099874898     1.007825032230
         C           -7.339702232165     2.858426052802    -0.251292650360    12.000000000000
         C           -7.364886149100     1.470337889806    -0.249527112232    12.000000000000
         C           -4.903508799989     1.444441330383    -0.254243376424    12.000000000000
         C           -6.132261343652     0.739953875277    -0.241953332441    12.000000000000
         C           -3.676878991558     0.726711660896    -0.243615660024    12.000000000000
         C           -2.445660777107     1.429655651485    -0.253925370225    12.000000000000
         C           -1.223604872343     0.715339019858    -0.242496105694    12.000000000000
         C            0.007633678272     1.417397667460    -0.244030451976    12.000000000000
         C            1.231215616705     0.702131208810    -0.262857037633    12.000000000000
         C            2.460816909489     1.403306554348    -0.243352528742    12.000000000000
         C            3.684426063155     0.687212946435    -0.244181315019    12.000000000000
         C            4.918704710497     1.391749079412    -0.256583136654    12.000000000000
         C            7.369797886919     2.779496721407    -0.250375107974    12.000000000000
         C            7.380158475080     1.391232026078    -0.248828425129    12.000000000000
         C            6.139795348081     0.674133141423    -0.242500083317    12.000000000000
         H           -8.279194990388     3.407132559347    -0.255590202481     1.007825032230
         H            8.315109280438     3.318132614846    -0.254585683774     1.007825032230
         C           -8.591760128623     0.724847071267    -0.249186684615    12.000000000000
         C           -8.599028794745    -0.632625288006    -0.247063560032    12.000000000000
         C           -6.139817330160    -0.674122118931    -0.254052901367    12.000000000000
         C           -7.380188303179    -1.391251671359    -0.246636839826    12.000000000000
         C           -4.918688671298    -1.391740499807    -0.241712403217    12.000000000000
         C           -3.684442486726    -0.687222797513    -0.252744643282    12.000000000000
         C           -2.460821231289    -1.403330660602    -0.242201557092    12.000000000000
         C           -1.231166203362    -0.702159346658    -0.254321935884    12.000000000000
         C           -0.007573816429    -1.417404331188    -0.246865411581    12.000000000000
         C            1.223643524847    -0.715260859041    -0.236859789632    12.000000000000
         C            2.445666458290    -1.429628770784    -0.248609802392    12.000000000000
         C            3.676862511805    -0.726692913333    -0.252750386787    12.000000000000
         C            6.132244655378    -0.739964321627    -0.254278360999    12.000000000000
         C            4.903514954462    -1.444443002318    -0.240437286459    12.000000000000
         C            8.599010657649     0.632618384891    -0.248966308985    12.000000000000
         C            8.591741297059    -0.724836348971    -0.247229928723    12.000000000000
         C            7.364858573348    -1.470318147383    -0.247460105416    12.000000000000
         H           -9.528310162860     1.276861967415    -0.250656611579     1.007825032230
         H            9.541406783565     1.174587006667    -0.250018341246     1.007825032230
         C           -7.369842100810    -2.779530627711    -0.244828631404    12.000000000000
         C           -4.924603300092    -2.808422739118    -0.252560263840    12.000000000000
         C           -6.166626686709    -3.516637674603    -0.246258423681    12.000000000000
         C           -3.702514550747    -3.524667030898    -0.242236194654    12.000000000000
         C           -2.467651176156    -2.821311444581    -0.254280833011    12.000000000000
         C           -0.015137665149    -2.833127127177    -0.253999244502    12.000000000000
         C           -1.247126032268    -3.534717657340    -0.242435291093    12.000000000000
         C            1.209240878602    -3.547900160421    -0.239896261302    12.000000000000
         C            2.437331831113    -2.847627219953    -0.254036019613    12.000000000000
         C            4.894298152729    -2.861108450063    -0.253215279542    12.000000000000
         C            3.664611063999    -3.564205327309    -0.240335859601    12.000000000000
         C            6.128634823704    -3.582569539495    -0.246990017644    12.000000000000
         C            7.339668473654    -2.858398789148    -0.245474791562    12.000000000000
         H           -9.541453302301    -1.174548948442    -0.245694143859     1.007825032230
         H            9.528257677030    -1.276904555682    -0.245980120962     1.007825032230
         H           -8.315169234890    -3.318135334990    -0.240656402873     1.007825032230
         H            8.279150951450    -3.407126271671    -0.241135235579     1.007825032230
         C           -6.144998379744    -4.927632754561    -0.244932425621    12.000000000000
         C           -3.706787539039    -4.941247195895    -0.254753393709    12.000000000000
         C           -4.955594249043    -5.643479455272    -0.246786259064    12.000000000000
         C           -2.486125517268    -5.654771056187    -0.241813722664    12.000000000000
         C           -1.254062526522    -4.956107531779    -0.252989328650    12.000000000000
         C            1.201008382827    -4.969265869970    -0.251808204392    12.000000000000
         C           -0.030340865455    -5.669505784916    -0.243965004728    12.000000000000
         C            3.653745910287    -4.980729257192    -0.251050204644    12.000000000000
         C            2.425488504834    -5.681160117305    -0.241673274092    12.000000000000
         C            6.091961426769    -4.993243445164    -0.244695790970    12.000000000000
         C            4.894972253569    -5.696333902735    -0.245931986800    12.000000000000
         H           -7.089896579082    -5.466985324016    -0.240529663939     1.007825032230
         H            7.031051018158    -5.542644018110    -0.241116011207     1.007825032230
         C           -4.923549513240    -7.078806581455    -0.247341027969    12.000000000000
         C           -2.485346279279    -7.087713559707    -0.249850920405    12.000000000000
         C           -3.751690082821    -7.763932639414    -0.249656241479    12.000000000000
         C           -0.037953148030    -7.099450356247    -0.249635195257    12.000000000000
         C           -1.277960291443    -7.772889866444    -0.251619888019    12.000000000000
         C            2.409440129685    -7.114007493780    -0.248771994446    12.000000000000
         C            1.194745746111    -7.786170847340    -0.250924285328    12.000000000000
         C            4.847616861456    -7.131247592357    -0.246265179787    12.000000000000
         C            3.668467414834    -7.803773474721    -0.248613614150    12.000000000000
         H           -5.869944541458    -7.613816079819    -0.245796991103     1.007825032230
         H            5.788245434347    -7.676317671092    -0.245138060305     1.007825032230
         H           -3.753531130491    -8.851057051013    -0.251492155908     1.007825032230
         H           -1.284308596936    -8.860860874274    -0.256047271877     1.007825032230
         H            1.189217383654    -8.874146102367    -0.255016922018     1.007825032230
         H            3.658542423782    -8.890846115831    -0.250268155573     1.007825032230

  Running in c1 symmetry.

  Rotational constants: A =      0.00067  B =      0.00067  C =      0.00035 [cm^-1]
  Rotational constants: A =     20.17700  B =     20.17353  C =     10.55117 [MHz]
  Nuclear repulsion = 17733.529946714101243

  Charge       = -1
  Multiplicity = 1
  Electrons    = 642
  Nalpha       = 321
  Nbeta        = 321

  ==> Algorithm <==

  SCF Algorithm Type is DF.
  DIIS enabled.
  MOM disabled.
  Fractional occupation disabled.
  Guess Type is SAD.
  Energy threshold   = 1.00e-08
  Density threshold  = 1.00e-08
  Integral threshold = 1.00e-12

  ==> Primary Basis <==

  Basis Set: JUN-CC-PVDZ
    Blend: JUN-CC-PVDZ
    Number of shells: 880
    Number of basis functions: 1938
    Number of Cartesian functions: 2039
    Spherical Harmonics?: true
    Max angular momentum: 2

   => Loading Basis Set <=

    Name: (JUN-CC-PVDZ AUX)
    Role: JKFIT
    Keyword: DF_BASIS_SCF
    atoms 1                                                   entry B          line    90 file /opt/software/pc2/EB-SW/software/PSI4/1.9-foss-2022a/share/psi4/basis/jun-cc-pvdz-jkfit.gbs 
    atoms 2-5                                                 entry F          line   314 file /opt/software/pc2/EB-SW/software/PSI4/1.9-foss-2022a/share/psi4/basis/jun-cc-pvdz-jkfit.gbs 
    atoms 6-23, 30-42, 45-59, 62-78, 81-93, 98-108, 111-119   entry C          line   146 file /opt/software/pc2/EB-SW/software/PSI4/1.9-foss-2022a/share/psi4/basis/jun-cc-pvdz-jkfit.gbs 
    atoms 24-29, 43-44, 60-61, 79-80, 94-97, 109-110, 120-125 entry H          line    70 file /opt/software/pc2/EB-SW/software/PSI4/1.9-foss-2022a/share/psi4/basis/jun-cc-pvdz-jkfit.gbs 

  ==> Integral Setup <==

  ==> DiskDFJK: Density-Fitted J/K Matrices <==

    J tasked:                  Yes
    K tasked:                  Yes
    wK tasked:                  No
    OpenMP threads:             16
    Integrals threads:          16
    Memory [MiB]:            45776
    Algorithm:                Disk
    Integral Cache:           SAVE
    Schwarz Cutoff:          1E-12
    Fitting Condition:       1E-10

   => Auxiliary Basis Set <=

  Basis Set: (JUN-CC-PVDZ AUX)
    Blend: JUN-CC-PVDZ-JKFIT
    Number of shells: 2943
    Number of basis functions: 8531
    Number of Cartesian functions: 9791
    Spherical Harmonics?: true
    Max angular momentum: 3

  Minimum eigenvalue in the overlap matrix is 7.7813141563E-11.
  Reciprocal condition number of the overlap matrix is 3.2494649350E-12.
    Using canonical orthogonalization.
  Overall, 39 of 1938 possible MOs eliminated.


  ==> Pre-Iterations <==

  SCF Guess: Superposition of Atomic Densities via on-the-fly atomic UHF (no occupation information).

   -------------------------
    Irrep   Nso     Nmo    
   -------------------------
     A       1938    1899 
   -------------------------
    Total    1938    1899
   -------------------------

  ==> Iterations <==

                           Total Energy        Delta E     RMS |[F,P]|

   @DF-RHF iter SAD: -4085.17701587505962   -4.08518e+03   0.00000e+00 
   @DF-RHF iter   1: -4071.50177058238023    1.36752e+01   7.92237e-04 ADIIS/DIIS
   @DF-RHF iter   2: -4072.91027431621569   -1.40850e+00   3.12728e-04 ADIIS/DIIS
   @DF-RHF iter   3: -4073.08143457358528   -1.71160e-01   1.07405e-04 ADIIS/DIIS
   @DF-RHF iter   4: -4073.10522059553932   -2.37860e-02   4.37516e-05 DIIS
   @DF-RHF iter   5: -4073.10981890192625   -4.59831e-03   1.29435e-05 DIIS
   @DF-RHF iter   6: -4073.11039049232613   -5.71590e-04   4.85522e-06 DIIS
   @DF-RHF iter   7: -4073.11058119257950   -1.90700e-04   2.63256e-06 DIIS
   @DF-RHF iter   8: -4073.11064793657533   -6.67440e-05   1.26120e-06 DIIS
   @DF-RHF iter   9: -4073.11067020355040   -2.22670e-05   4.54798e-07 DIIS
   @DF-RHF iter  10: -4073.11067167600322   -1.47245e-06   1.80592e-07 DIIS
   @DF-RHF iter  11: -4073.11067190419044   -2.28187e-07   6.49547e-08 DIIS
   @DF-RHF iter  12: -4073.11067194137195   -3.71815e-08   3.49005e-08 DIIS
   @DF-RHF iter  13: -4073.11067195088344   -9.51150e-09   1.19079e-08 DIIS
   @DF-RHF iter  14: -4073.11067195184933   -9.65883e-10   5.35763e-09 DIIS
  Energy and wave function converged.


  ==> Post-Iterations <==

    Orbital Energies [Eh]
    ---------------------

    Doubly Occupied:                                                      

       1A    -26.097401     2A    -26.097193     3A    -26.086320  
       4A    -26.086283     5A    -11.197085     6A    -11.197078  
       7A    -11.197070     8A    -11.197057     9A    -11.196989  
      10A    -11.196982    11A    -11.196981    12A    -11.196973  
      13A    -11.196945    14A    -11.196940    15A    -11.196931  
      16A    -11.196924    17A    -11.196152    18A    -11.196148  
      19A    -11.196141    20A    -11.196134    21A    -11.196040  
      22A    -11.196022    23A    -11.193921    24A    -11.193913  
      25A    -11.193843    26A    -11.193842    27A    -11.193840  
      28A    -11.193836    29A    -11.192963    30A    -11.192940  
      31A    -11.192819    32A    -11.192798    33A    -11.192697  
      34A    -11.192655    35A    -11.192643    36A    -11.192579  
      37A    -11.192501    38A    -11.192470    39A    -11.192462  
      40A    -11.192450    41A    -11.192392    42A    -11.192390  
      43A    -11.192387    44A    -11.192381    45A    -11.192332  
      46A    -11.192308    47A    -11.191943    48A    -11.191912  
      49A    -11.191765    50A    -11.191728    51A    -11.191591  
      52A    -11.191553    53A    -11.191184    54A    -11.191153  
      55A    -11.191019    56A    -11.190957    57A    -11.190929  
      58A    -11.190871    59A    -11.190738    60A    -11.190702  
      61A    -11.190687    62A    -11.190657    63A    -11.190506  
      64A    -11.190500    65A    -11.188953    66A    -11.188948  
      67A    -11.188924    68A    -11.188897    69A    -11.188894  
      70A    -11.188855    71A    -11.188852    72A    -11.188795  
      73A    -11.188699    74A    -11.188692    75A    -11.188638  
      76A    -11.188619    77A    -11.188570    78A    -11.188546  
      79A    -11.187933    80A    -11.187918    81A    -11.187869  
      82A    -11.187855    83A    -11.187527    84A    -11.187498  
      85A    -11.186896    86A    -11.186874    87A    -11.186808  
      88A    -11.186800    89A    -11.184784    90A    -11.184773  
      91A    -11.184677    92A    -11.184611    93A    -11.183514  
      94A    -11.183424    95A    -11.182090    96A    -11.181678  
      97A    -11.181563    98A    -11.180642    99A    -11.180513  
     100A    -11.180057   101A     -7.563628   102A     -1.437025  
     103A     -1.383023   104A     -1.376246   105A     -1.370315  
     106A     -1.179490   107A     -1.168583   108A     -1.168254  
     109A     -1.151981   110A     -1.151938   111A     -1.141969  
     112A     -1.134217   113A     -1.127886   114A     -1.116623  
     115A     -1.116120   116A     -1.107355   117A     -1.107289  
     118A     -1.085248   119A     -1.085174   120A     -1.081029  
     121A     -1.078699   122A     -1.078678   123A     -1.060043  
     124A     -1.046931   125A     -1.046148   126A     -1.044765  
     127A     -1.041754   128A     -1.041384   129A     -1.020195  
     130A     -1.020054   131A     -1.011097   132A     -1.011033  
     133A     -0.998282   134A     -0.998240   135A     -0.994198  
     136A     -0.979320   137A     -0.979302   138A     -0.972832  
     139A     -0.972814   140A     -0.972621   141A     -0.955362  
     142A     -0.948629   143A     -0.948346   144A     -0.940344  
     145A     -0.938310   146A     -0.935522   147A     -0.931197  
     148A     -0.931057   149A     -0.925839   150A     -0.902057  
     151A     -0.901960   152A     -0.889063   153A     -0.888977  
     154A     -0.840789   155A     -0.840759   156A     -0.834862  
     157A     -0.834839   158A     -0.831989   159A     -0.821021  
     160A     -0.821014   161A     -0.820419   162A     -0.819532  
     163A     -0.819346   164A     -0.806204   165A     -0.805587  
     166A     -0.785690   167A     -0.778491   168A     -0.778403  
     169A     -0.775120   170A     -0.774354   171A     -0.767329  
     172A     -0.767295   173A     -0.762920   174A     -0.762856  
     175A     -0.719797   176A     -0.719776   177A     -0.714223  
     178A     -0.714160   179A     -0.712806   180A     -0.712705  
     181A     -0.712303   182A     -0.699829   183A     -0.690571  
     184A     -0.681030   185A     -0.668456   186A     -0.659786  
     187A     -0.659678   188A     -0.657254   189A     -0.657229  
     190A     -0.657095   191A     -0.647716   192A     -0.644462  
     193A     -0.644436   194A     -0.633207   195A     -0.633049  
     196A     -0.628895   197A     -0.620070   198A     -0.620031  
     199A     -0.616062   200A     -0.615465   201A     -0.615414  
     202A     -0.611246   203A     -0.587140   204A     -0.584145  
     205A     -0.584119   206A     -0.583722   207A     -0.580471  
     208A     -0.580449   209A     -0.573783   210A     -0.573308  
     211A     -0.572116   212A     -0.571960   213A     -0.567761  
     214A     -0.567729   215A     -0.561786   216A     -0.559073  
     217A     -0.553727   218A     -0.551927   219A     -0.549631  
     220A     -0.549589   221A     -0.542791   222A     -0.542785  
     223A     -0.542561   224A     -0.531080   225A     -0.530318  
     226A     -0.530243   227A     -0.530071   228A     -0.529383  
     229A     -0.529335   230A     -0.528518   231A     -0.528228  
     232A     -0.527733   233A     -0.523250   234A     -0.523186  
     235A     -0.521527   236A     -0.516737   237A     -0.513867  
     238A     -0.513857   239A     -0.507458   240A     -0.507443  
     241A     -0.507212   242A     -0.500974   243A     -0.500927  
     244A     -0.499182   245A     -0.497259   246A     -0.497175  
     247A     -0.496788   248A     -0.493762   249A     -0.490293  
     250A     -0.490178   251A     -0.486296   252A     -0.484273  
     253A     -0.484175   254A     -0.477003   255A     -0.473007  
     256A     -0.471363   257A     -0.467311   258A     -0.467301  
     259A     -0.463178   260A     -0.462006   261A     -0.461678  
     262A     -0.461631   263A     -0.457579   264A     -0.449610  
     265A     -0.449554   266A     -0.448846   267A     -0.448786  
     268A     -0.444065   269A     -0.443991   270A     -0.435927  
     271A     -0.434798   272A     -0.433144   273A     -0.430807  
     274A     -0.428393   275A     -0.428382   276A     -0.423304  
     277A     -0.423011   278A     -0.415802   279A     -0.415427  
     280A     -0.412166   281A     -0.411538   282A     -0.410678  
     283A     -0.409430   284A     -0.407304   285A     -0.406315  
     286A     -0.400120   287A     -0.398367   288A     -0.398320  
     289A     -0.390510   290A     -0.374812   291A     -0.374667  
     292A     -0.371080   293A     -0.370174   294A     -0.368775  
     295A     -0.368160   296A     -0.366381   297A     -0.339181  
     298A     -0.338873   299A     -0.320962   300A     -0.320726  
     301A     -0.316350   302A     -0.316321   303A     -0.311125  
     304A     -0.286826   305A     -0.286659   306A     -0.282688  
     307A     -0.268123   308A     -0.268061   309A     -0.264264  
     310A     -0.259632   311A     -0.257500   312A     -0.237322  
     313A     -0.233690   314A     -0.231094   315A     -0.230629  
     316A     -0.219095   317A     -0.193231   318A     -0.182627  
     319A     -0.181439   320A     -0.136657   321A     -0.136405  

    Virtual:                                                              

     322A      0.055594   323A      0.055664   324A      0.094235  
     325A      0.094284   326A      0.094882   327A      0.096618  
     328A      0.096747   329A      0.101971   330A      0.102005  
     331A      0.104490   332A      0.104840   333A      0.105178  
     334A      0.109989   335A      0.109995   336A      0.121310  
     337A      0.121329   338A      0.130289   339A      0.130912  
     340A      0.133741   341A      0.136837   342A      0.137023  
     343A      0.137828   344A      0.138959   345A      0.139549  
     346A      0.139738   347A      0.140302   348A      0.140703  
     349A      0.141619   350A      0.142460   351A      0.142489  
     352A      0.148415   353A      0.148834   354A      0.149012  
     355A      0.149255   356A      0.149279   357A      0.149433  
     358A      0.156904   359A      0.161455   360A      0.161583  
     361A      0.161657   362A      0.163209   363A      0.163295  
     364A      0.164071   365A      0.165778   366A      0.170411  
     367A      0.170844   368A      0.171036   369A      0.171252  
     370A      0.171489   371A      0.172802   372A      0.173099  
     373A      0.174402   374A      0.174601   375A      0.176338  
     376A      0.178910   377A      0.179279   378A      0.179314  
     379A      0.179514   380A      0.187072   381A      0.187085  
     382A      0.189510   383A      0.194370   384A      0.195130  
     385A      0.195436   386A      0.197996   387A      0.198009  
     388A      0.201754   389A      0.202863   390A      0.203041  
     391A      0.203363   392A      0.203535   393A      0.212176  
     394A      0.214205   395A      0.214989   396A      0.215390  
     397A      0.215621   398A      0.217167   399A      0.218871  
     400A      0.220316   401A      0.220844   402A      0.221564  
     403A      0.222810   404A      0.222916   405A      0.223680  
     406A      0.224931   407A      0.225042   408A      0.226001  
     409A      0.226110   410A      0.228042   411A      0.229937  
     412A      0.233377   413A      0.234671   414A      0.238406  
     415A      0.238424   416A      0.241472   417A      0.242091  
     418A      0.242584   419A      0.242635   420A      0.242766  
     421A      0.242890   422A      0.249513   423A      0.250681  
     424A      0.251095   425A      0.252204   426A      0.253235  
     427A      0.256360   428A      0.256871   429A      0.257104  
     430A      0.259277   431A      0.259445   432A      0.259618  
     433A      0.260681   434A      0.262125   435A      0.262923  
     436A      0.267942   437A      0.268568   438A      0.270924  
     439A      0.271139   440A      0.271676   441A      0.271791  
     442A      0.272623   443A      0.272828   444A      0.273413  
     445A      0.273526   446A      0.273872   447A      0.274934  
     448A      0.275093   449A      0.275159   450A      0.277244  
     451A      0.277532   452A      0.278728   453A      0.279448  
     454A      0.283660   455A      0.284394   456A      0.288329  
     457A      0.289191   458A      0.290275   459A      0.290979  
     460A      0.291237   461A      0.291362   462A      0.292521  
     463A      0.292572   464A      0.293834   465A      0.294006  
     466A      0.295185   467A      0.296883   468A      0.298056  
     469A      0.301757   470A      0.304163   471A      0.305099  
     472A      0.306247   473A      0.307901   474A      0.309627  
     475A      0.314307   476A      0.315067   477A      0.315110  
     478A      0.315231   479A      0.317735   480A      0.318009  
     481A      0.319722   482A      0.320054   483A      0.320282  
     484A      0.320909   485A      0.322995   486A      0.323843  
     487A      0.324810   488A      0.326710   489A      0.326995  
     490A      0.328553   491A      0.329518   492A      0.329692  
     493A      0.337225   494A      0.337417   495A      0.337822  
     496A      0.338127   497A      0.339393   498A      0.339811  
     499A      0.340996   500A      0.342345   501A      0.342920  
     502A      0.343096   503A      0.343505   504A      0.345816  
     505A      0.347418   506A      0.347739   507A      0.348419  
     508A      0.349243   509A      0.351566   510A      0.352260  
     511A      0.357586   512A      0.358318   513A      0.358812  
     514A      0.359567   515A      0.361751   516A      0.364418  
     517A      0.365184   518A      0.365208   519A      0.366289  
     520A      0.367067   521A      0.367244   522A      0.368617  
     523A      0.368929   524A      0.369720   525A      0.371086  
     526A      0.371744   527A      0.372231   528A      0.374008  
     529A      0.374435   530A      0.374586   531A      0.375848  
     532A      0.378096   533A      0.378226   534A      0.378714  
     535A      0.380043   536A      0.381601   537A      0.383884  
     538A      0.384367   539A      0.385207   540A      0.385705  
     541A      0.387557   542A      0.388387   543A      0.388529  
     544A      0.389312   545A      0.389952   546A      0.391043  
     547A      0.392544   548A      0.395038   549A      0.395378  
     550A      0.395544   551A      0.395912   552A      0.397549  
     553A      0.397757   554A      0.400923   555A      0.401634  
     556A      0.401864   557A      0.403031   558A      0.405537  
     559A      0.405675   560A      0.406189   561A      0.408513  
     562A      0.409835   563A      0.414866   564A      0.415196  
     565A      0.417681   566A      0.418172   567A      0.420875  
     568A      0.421434   569A      0.422194   570A      0.422748  
     571A      0.423041   572A      0.425248   573A      0.425309  
     574A      0.427892   575A      0.429587   576A      0.429961  
     577A      0.432064   578A      0.433203   579A      0.435275  
     580A      0.435375   581A      0.437614   582A      0.437906  
     583A      0.438024   584A      0.441241   585A      0.442069  
     586A      0.443055   587A      0.444088   588A      0.444467  
     589A      0.445897   590A      0.448983   591A      0.449375  
     592A      0.452685   593A      0.453373   594A      0.453814  
     595A      0.454099   596A      0.455163   597A      0.456089  
     598A      0.456804   599A      0.457700   600A      0.458087  
     601A      0.458665   602A      0.459685   603A      0.460970  
     604A      0.461858   605A      0.462959   606A      0.463921  
     607A      0.464171   608A      0.464598   609A      0.465231  
     610A      0.465898   611A      0.469047   612A      0.469439  
     613A      0.470040   614A      0.470677   615A      0.471424  
     616A      0.471713   617A      0.471862   618A      0.472235  
     619A      0.472427   620A      0.473883   621A      0.474579  
     622A      0.475872   623A      0.476016   624A      0.476320  
     625A      0.476741   626A      0.479223   627A      0.479585  
     628A      0.480677   629A      0.481323   630A      0.482615  
     631A      0.483366   632A      0.483475   633A      0.484109  
     634A      0.485839   635A      0.486286   636A      0.488747  
     637A      0.489121   638A      0.489710   639A      0.490327  
     640A      0.494711   641A      0.495577   642A      0.495948  
     643A      0.496095   644A      0.498293   645A      0.499331  
     646A      0.499372   647A      0.499687   648A      0.500622  
     649A      0.502221   650A      0.503147   651A      0.503398  
     652A      0.503625   653A      0.504277   654A      0.505209  
     655A      0.507070   656A      0.508246   657A      0.509658  
     658A      0.510244   659A      0.510482   660A      0.513745  
     661A      0.514932   662A      0.516550   663A      0.516687  
     664A      0.517470   665A      0.517724   666A      0.517949  
     667A      0.519455   668A      0.519989   669A      0.520712  
     670A      0.521184   671A      0.523649   672A      0.524238  
     673A      0.525749   674A      0.526005   675A      0.526849  
     676A      0.528932   677A      0.530130   678A      0.530504  
     679A      0.534699   680A      0.535360   681A      0.536891  
     682A      0.537847   683A      0.538689   684A      0.539978  
     685A      0.540956   686A      0.541675   687A      0.542804  
     688A      0.543037   689A      0.543675   690A      0.544331  
     691A      0.546364   692A      0.547152   693A      0.548282  
     694A      0.548657   695A      0.549349   696A      0.549553  
     697A      0.549979   698A      0.550197   699A      0.551279  
     700A      0.555702   701A      0.556602   702A      0.557584  
     703A      0.557864   704A      0.560077   705A      0.561324  
     706A      0.562184   707A      0.563188   708A      0.563483  
     709A      0.564473   710A      0.565932   711A      0.566144  
     712A      0.566182   713A      0.566320   714A      0.567282  
     715A      0.569017   716A      0.569563   717A      0.571363  
     718A      0.575230   719A      0.576034   720A      0.576622  
     721A      0.576644   722A      0.580923   723A      0.581951  
     724A      0.582883   725A      0.583176   726A      0.584481  
     727A      0.586280   728A      0.587354   729A      0.589815  
     730A      0.590964   731A      0.591354   732A      0.593545  
     733A      0.597197   734A      0.598236   735A      0.598653  
     736A      0.599788   737A      0.600487   738A      0.601770  
     739A      0.603787   740A      0.606068   741A      0.607199  
     742A      0.607738   743A      0.611936   744A      0.613511  
     745A      0.616433   746A      0.617788   747A      0.619438  
     748A      0.622130   749A      0.622538   750A      0.624752  
     751A      0.626285   752A      0.626722   753A      0.629280  
     754A      0.629974   755A      0.630937   756A      0.631310  
     757A      0.633013   758A      0.633887   759A      0.636924  
     760A      0.638031   761A      0.640583   762A      0.643140  
     763A      0.644861   764A      0.644992   765A      0.646928  
     766A      0.648249   767A      0.650423   768A      0.651423  
     769A      0.651809   770A      0.652739   771A      0.654700  
     772A      0.657212   773A      0.658620   774A      0.659975  
     775A      0.662366   776A      0.666605   777A      0.667470  
     778A      0.669589   779A      0.670754   780A      0.671635  
     781A      0.672528   782A      0.674643   783A      0.675136  
     784A      0.675883   785A      0.677491   786A      0.683528  
     787A      0.684661   788A      0.685165   789A      0.685816  
     790A      0.686168   791A      0.687722   792A      0.691842  
     793A      0.694595   794A      0.695714   795A      0.699917  
     796A      0.705285   797A      0.706112   798A      0.707457  
     799A      0.709640   800A      0.711241   801A      0.713294  
     802A      0.714604   803A      0.716435   804A      0.721393  
     805A      0.723353   806A      0.726170   807A      0.726942  
     808A      0.728396   809A      0.728944   810A      0.731334  
     811A      0.733742   812A      0.735341   813A      0.737508  
     814A      0.742789   815A      0.743201   816A      0.746287  
     817A      0.748752   818A      0.753698   819A      0.756583  
     820A      0.757040   821A      0.758992   822A      0.759461  
     823A      0.760051   824A      0.763050   825A      0.763113  
     826A      0.765332   827A      0.766857   828A      0.770162  
     829A      0.775214   830A      0.776359   831A      0.780189  
     832A      0.781161   833A      0.784612   834A      0.793611  
     835A      0.798004   836A      0.800259   837A      0.800674  
     838A      0.802705   839A      0.805335   840A      0.808066  
     841A      0.808783   842A      0.810945   843A      0.814396  
     844A      0.817957   845A      0.820582   846A      0.822435  
     847A      0.822527   848A      0.823798   849A      0.826841  
     850A      0.841633   851A      0.844963   852A      0.853621  
     853A      0.854130   854A      0.855259   855A      0.856497  
     856A      0.862768   857A      0.863646   858A      0.865907  
     859A      0.867150   860A      0.867240   861A      0.868195  
     862A      0.870611   863A      0.873720   864A      0.874254  
     865A      0.878400   866A      0.879799   867A      0.880480  
     868A      0.881500   869A      0.883124   870A      0.883794  
     871A      0.884338   872A      0.887136   873A      0.890192  
     874A      0.893193   875A      0.894464   876A      0.895197  
     877A      0.897111   878A      0.902775   879A      0.904865  
     880A      0.908329   881A      0.909367   882A      0.910507  
     883A      0.911454   884A      0.911888   885A      0.917068  
     886A      0.920459   887A      0.920994   888A      0.921540  
     889A      0.924216   890A      0.927201   891A      0.928127  
     892A      0.929036   893A      0.930707   894A      0.930959  
     895A      0.931352   896A      0.933841   897A      0.936723  
     898A      0.938431   899A      0.940703   900A      0.941429  
     901A      0.942491   902A      0.943659   903A      0.944327  
     904A      0.947603   905A      0.949518   906A      0.950401  
     907A      0.952892   908A      0.954848   909A      0.959061  
     910A      0.959769   911A      0.962047   912A      0.963307  
     913A      0.964317   914A      0.964833   915A      0.966789  
     916A      0.968685   917A      0.969756   918A      0.971871  
     919A      0.976992   920A      0.977741   921A      0.979428  
     922A      0.980723   923A      0.981226   924A      0.981670  
     925A      0.983166   926A      0.984641   927A      0.987093  
     928A      0.987198   929A      0.988720   930A      0.993006  
     931A      0.993941   932A      0.994438   933A      0.996717  
     934A      0.997401   935A      0.998212   936A      1.000154  
     937A      1.002123   938A      1.003072   939A      1.004980  
     940A      1.006660   941A      1.008990   942A      1.009331  
     943A      1.011751   944A      1.013049   945A      1.015208  
     946A      1.015889   947A      1.016397   948A      1.016839  
     949A      1.019639   950A      1.020793   951A      1.021046  
     952A      1.021291   953A      1.022736   954A      1.023384  
     955A      1.027576   956A      1.028324   957A      1.030134  
     958A      1.033810   959A      1.039228   960A      1.039816  
     961A      1.044799   962A      1.047176   963A      1.049548  
     964A      1.054219   965A      1.054678   966A      1.056443  
     967A      1.059654   968A      1.060334   969A      1.063077  
     970A      1.063156   971A      1.065279   972A      1.069705  
     973A      1.070394   974A      1.070621   975A      1.071283  
     976A      1.071778   977A      1.073340   978A      1.079122  
     979A      1.079589   980A      1.079864   981A      1.081204  
     982A      1.085497   983A      1.086697   984A      1.086819  
     985A      1.089694   986A      1.092439   987A      1.092942  
     988A      1.093073   989A      1.093523   990A      1.102205  
     991A      1.102670   992A      1.104735   993A      1.109967  
     994A      1.111489   995A      1.113028   996A      1.113597  
     997A      1.114007   998A      1.115091   999A      1.115929  
    1000A      1.117291  1001A      1.118485  1002A      1.120096  
    1003A      1.120775  1004A      1.121814  1005A      1.121918  
    1006A      1.125038  1007A      1.126639  1008A      1.128093  
    1009A      1.128544  1010A      1.129477  1011A      1.130203  
    1012A      1.131616  1013A      1.132303  1014A      1.133514  
    1015A      1.136117  1016A      1.137187  1017A      1.137324  
    1018A      1.138391  1019A      1.139469  1020A      1.139836  
    1021A      1.140402  1022A      1.142625  1023A      1.142975  
    1024A      1.143603  1025A      1.144281  1026A      1.145984  
    1027A      1.146818  1028A      1.147536  1029A      1.147765  
    1030A      1.148276  1031A      1.148345  1032A      1.148861  
    1033A      1.149149  1034A      1.149865  1035A      1.151493  
    1036A      1.151916  1037A      1.153080  1038A      1.153735  
    1039A      1.154525  1040A      1.155348  1041A      1.157583  
    1042A      1.158860  1043A      1.161045  1044A      1.162733  
    1045A      1.164807  1046A      1.166452  1047A      1.167953  
    1048A      1.169846  1049A      1.170956  1050A      1.171926  
    1051A      1.173186  1052A      1.174358  1053A      1.176316  
    1054A      1.177956  1055A      1.180963  1056A      1.181405  
    1057A      1.183852  1058A      1.184970  1059A      1.185882  
    1060A      1.186703  1061A      1.190606  1062A      1.191686  
    1063A      1.192793  1064A      1.194768  1065A      1.196181  
    1066A      1.199527  1067A      1.199946  1068A      1.200447  
    1069A      1.203728  1070A      1.204651  1071A      1.206216  
    1072A      1.207042  1073A      1.207172  1074A      1.212582  
    1075A      1.215568  1076A      1.217054  1077A      1.218752  
    1078A      1.219442  1079A      1.219826  1080A      1.222924  
    1081A      1.224193  1082A      1.224563  1083A      1.225700  
    1084A      1.226608  1085A      1.227638  1086A      1.229466  
    1087A      1.234853  1088A      1.235523  1089A      1.236334  
    1090A      1.238254  1091A      1.239482  1092A      1.241101  
    1093A      1.241474  1094A      1.244828  1095A      1.248753  
    1096A      1.250588  1097A      1.251693  1098A      1.255278  
    1099A      1.256321  1100A      1.256391  1101A      1.260150  
    1102A      1.261733  1103A      1.263801  1104A      1.265353  
    1105A      1.267232  1106A      1.269905  1107A      1.273705  
    1108A      1.275017  1109A      1.275426  1110A      1.276374  
    1111A      1.279252  1112A      1.279834  1113A      1.280922  
    1114A      1.283116  1115A      1.284259  1116A      1.285104  
    1117A      1.286729  1118A      1.288366  1119A      1.291109  
    1120A      1.292499  1121A      1.293389  1122A      1.300699  
    1123A      1.302181  1124A      1.304724  1125A      1.314172  
    1126A      1.318653  1127A      1.318815  1128A      1.320333  
    1129A      1.322588  1130A      1.323415  1131A      1.325214  
    1132A      1.328714  1133A      1.328795  1134A      1.332750  
    1135A      1.334717  1136A      1.335485  1137A      1.338521  
    1138A      1.338939  1139A      1.347035  1140A      1.347197  
    1141A      1.352891  1142A      1.356216  1143A      1.358549  
    1144A      1.359389  1145A      1.360081  1146A      1.360779  
    1147A      1.363018  1148A      1.365515  1149A      1.369062  
    1150A      1.370215  1151A      1.370921  1152A      1.373270  
    1153A      1.378705  1154A      1.380563  1155A      1.381127  
    1156A      1.381943  1157A      1.382140  1158A      1.384723  
    1159A      1.386340  1160A      1.387542  1161A      1.388688  
    1162A      1.389333  1163A      1.392112  1164A      1.394885  
    1165A      1.395019  1166A      1.397457  1167A      1.399015  
    1168A      1.400469  1169A      1.402202  1170A      1.406692  
    1171A      1.408400  1172A      1.408816  1173A      1.412941  
    1174A      1.419969  1175A      1.424112  1176A      1.424821  
    1177A      1.426000  1178A      1.426627  1179A      1.428505  
    1180A      1.428782  1181A      1.429095  1182A      1.429843  
    1183A      1.431109  1184A      1.433371  1185A      1.440319  
    1186A      1.442237  1187A      1.442427  1188A      1.446639  
    1189A      1.451356  1190A      1.453592  1191A      1.454065  
    1192A      1.456967  1193A      1.457661  1194A      1.459224  
    1195A      1.463432  1196A      1.471095  1197A      1.472568  
    1198A      1.473666  1199A      1.475698  1200A      1.475899  
    1201A      1.475935  1202A      1.476561  1203A      1.477563  
    1204A      1.478486  1205A      1.481031  1206A      1.484337  
    1207A      1.488766  1208A      1.488937  1209A      1.490883  
    1210A      1.494276  1211A      1.496734  1212A      1.499086  
    1213A      1.499836  1214A      1.501458  1215A      1.502140  
    1216A      1.504373  1217A      1.505157  1218A      1.508008  
    1219A      1.508576  1220A      1.510014  1221A      1.513270  
    1222A      1.515413  1223A      1.519292  1224A      1.525250  
    1225A      1.525849  1226A      1.526638  1227A      1.527164  
    1228A      1.529487  1229A      1.534153  1230A      1.535469  
    1231A      1.539067  1232A      1.540854  1233A      1.542664  
    1234A      1.543379  1235A      1.545855  1236A      1.548729  
    1237A      1.553135  1238A      1.553457  1239A      1.557442  
    1240A      1.557998  1241A      1.560984  1242A      1.562318  
    1243A      1.566440  1244A      1.570432  1245A      1.571181  
    1246A      1.575480  1247A      1.582885  1248A      1.587657  
    1249A      1.588382  1250A      1.604298  1251A      1.604604  
    1252A      1.607961  1253A      1.608730  1254A      1.616555  
    1255A      1.620614  1256A      1.624476  1257A      1.635733  
    1258A      1.644302  1259A      1.651739  1260A      1.655725  
    1261A      1.665691  1262A      1.671142  1263A      1.674908  
    1264A      1.676456  1265A      1.677507  1266A      1.679492  
    1267A      1.681402  1268A      1.682671  1269A      1.683028  
    1270A      1.684755  1271A      1.685561  1272A      1.685946  
    1273A      1.687300  1274A      1.688198  1275A      1.689600  
    1276A      1.691307  1277A      1.691890  1278A      1.692048  
    1279A      1.695594  1280A      1.696466  1281A      1.698064  
    1282A      1.700449  1283A      1.701516  1284A      1.703063  
    1285A      1.704138  1286A      1.706090  1287A      1.707783  
    1288A      1.708132  1289A      1.709141  1290A      1.710233  
    1291A      1.712623  1292A      1.713287  1293A      1.713587  
    1294A      1.714852  1295A      1.715304  1296A      1.716616  
    1297A      1.717478  1298A      1.719848  1299A      1.721162  
    1300A      1.724263  1301A      1.724886  1302A      1.726050  
    1303A      1.726757  1304A      1.728407  1305A      1.735828  
    1306A      1.736300  1307A      1.738520  1308A      1.738716  
    1309A      1.739167  1310A      1.739937  1311A      1.740671  
    1312A      1.742704  1313A      1.744023  1314A      1.748388  
    1315A      1.749501  1316A      1.752951  1317A      1.755321  
    1318A      1.761167  1319A      1.762448  1320A      1.764452  
    1321A      1.767437  1322A      1.770776  1323A      1.771520  
    1324A      1.772449  1325A      1.775450  1326A      1.777155  
    1327A      1.779414  1328A      1.780465  1329A      1.782196  
    1330A      1.783112  1331A      1.784861  1332A      1.788986  
    1333A      1.791574  1334A      1.791965  1335A      1.794394  
    1336A      1.794783  1337A      1.796176  1338A      1.805940  
    1339A      1.808908  1340A      1.815569  1341A      1.816725  
    1342A      1.817741  1343A      1.818297  1344A      1.833009  
    1345A      1.833838  1346A      1.834610  1347A      1.843496  
    1348A      1.847612  1349A      1.851336  1350A      1.851543  
    1351A      1.854777  1352A      1.875300  1353A      1.875518  
    1354A      1.885024  1355A      1.887279  1356A      1.891158  
    1357A      1.892170  1358A      1.893363  1359A      1.893665  
    1360A      1.895796  1361A      1.897628  1362A      1.900271  
    1363A      1.900366  1364A      1.902001  1365A      1.906982  
    1366A      1.912763  1367A      1.916390  1368A      1.916734  
    1369A      1.918271  1370A      1.919255  1371A      1.920778  
    1372A      1.927519  1373A      1.928134  1374A      1.929124  
    1375A      1.932575  1376A      1.932588  1377A      1.934893  
    1378A      1.935620  1379A      1.938009  1380A      1.938793  
    1381A      1.939007  1382A      1.940286  1383A      1.940661  
    1384A      1.945631  1385A      1.945843  1386A      1.949805  
    1387A      1.951932  1388A      1.952454  1389A      1.953983  
    1390A      1.956539  1391A      1.958188  1392A      1.959267  
    1393A      1.960605  1394A      1.969073  1395A      1.969627  
    1396A      1.973772  1397A      1.974175  1398A      1.975860  
    1399A      1.982724  1400A      1.986946  1401A      1.988612  
    1402A      1.990384  1403A      1.992500  1404A      1.992721  
    1405A      1.995669  1406A      1.996787  1407A      1.998480  
    1408A      2.000281  1409A      2.000439  1410A      2.002077  
    1411A      2.005570  1412A      2.005834  1413A      2.009207  
    1414A      2.010557  1415A      2.011602  1416A      2.013374  
    1417A      2.015310  1418A      2.016416  1419A      2.017967  
    1420A      2.019674  1421A      2.025236  1422A      2.026684  
    1423A      2.026924  1424A      2.027755  1425A      2.030422  
    1426A      2.032392  1427A      2.034312  1428A      2.037304  
    1429A      2.037900  1430A      2.039317  1431A      2.042348  
    1432A      2.043573  1433A      2.045798  1434A      2.047578  
    1435A      2.052232  1436A      2.055668  1437A      2.056789  
    1438A      2.057028  1439A      2.058581  1440A      2.060162  
    1441A      2.063474  1442A      2.064467  1443A      2.068471  
    1444A      2.069562  1445A      2.076913  1446A      2.077672  
    1447A      2.079996  1448A      2.080468  1449A      2.083319  
    1450A      2.083386  1451A      2.083848  1452A      2.087005  
    1453A      2.087980  1454A      2.089023  1455A      2.089440  
    1456A      2.090729  1457A      2.094872  1458A      2.095771  
    1459A      2.099741  1460A      2.100705  1461A      2.102439  
    1462A      2.103218  1463A      2.104409  1464A      2.104986  
    1465A      2.106137  1466A      2.108369  1467A      2.112496  
    1468A      2.118863  1469A      2.119468  1470A      2.121423  
    1471A      2.122815  1472A      2.125648  1473A      2.127088  
    1474A      2.128296  1475A      2.131162  1476A      2.133132  
    1477A      2.133912  1478A      2.136115  1479A      2.138773  
    1480A      2.141764  1481A      2.145019  1482A      2.145490  
    1483A      2.147053  1484A      2.148731  1485A      2.149586  
    1486A      2.150466  1487A      2.151464  1488A      2.152216  
    1489A      2.153102  1490A      2.154040  1491A      2.154418  
    1492A      2.155464  1493A      2.155803  1494A      2.156653  
    1495A      2.158056  1496A      2.158983  1497A      2.159448  
    1498A      2.160312  1499A      2.164956  1500A      2.166711  
    1501A      2.167012  1502A      2.167532  1503A      2.168235  
    1504A      2.169429  1505A      2.173741  1506A      2.174500  
    1507A      2.177408  1508A      2.177969  1509A      2.179536  
    1510A      2.181879  1511A      2.182710  1512A      2.183559  
    1513A      2.184431  1514A      2.184733  1515A      2.186433  
    1516A      2.190220  1517A      2.191243  1518A      2.191695  
    1519A      2.193034  1520A      2.193636  1521A      2.194003  
    1522A      2.198192  1523A      2.198723  1524A      2.199745  
    1525A      2.201465  1526A      2.202992  1527A      2.204579  
    1528A      2.207465  1529A      2.209746  1530A      2.210377  
    1531A      2.211429  1532A      2.212772  1533A      2.214562  
    1534A      2.216972  1535A      2.217242  1536A      2.218539  
    1537A      2.222030  1538A      2.224899  1539A      2.227127  
    1540A      2.227776  1541A      2.228878  1542A      2.228949  
    1543A      2.232693  1544A      2.234996  1545A      2.236800  
    1546A      2.239780  1547A      2.243272  1548A      2.245295  
    1549A      2.248530  1550A      2.250060  1551A      2.250532  
    1552A      2.256589  1553A      2.257964  1554A      2.260124  
    1555A      2.262153  1556A      2.262550  1557A      2.264480  
    1558A      2.266827  1559A      2.267297  1560A      2.268254  
    1561A      2.269559  1562A      2.271577  1563A      2.272747  
    1564A      2.273910  1565A      2.275189  1566A      2.278209  
    1567A      2.279006  1568A      2.279835  1569A      2.282923  
    1570A      2.284861  1571A      2.288153  1572A      2.289139  
    1573A      2.289962  1574A      2.290958  1575A      2.293911  
    1576A      2.294608  1577A      2.294812  1578A      2.297690  
    1579A      2.299200  1580A      2.300213  1581A      2.301589  
    1582A      2.302833  1583A      2.307657  1584A      2.308468  
    1585A      2.310499  1586A      2.312273  1587A      2.312824  
    1588A      2.314671  1589A      2.325396  1590A      2.328215  
    1591A      2.333166  1592A      2.334428  1593A      2.336948  
    1594A      2.340327  1595A      2.343444  1596A      2.348022  
    1597A      2.349974  1598A      2.351734  1599A      2.355199  
    1600A      2.357940  1601A      2.359179  1602A      2.362714  
    1603A      2.366862  1604A      2.367186  1605A      2.370255  
    1606A      2.370719  1607A      2.386383  1608A      2.390533  
    1609A      2.392516  1610A      2.395211  1611A      2.396296  
    1612A      2.396613  1613A      2.398859  1614A      2.402114  
    1615A      2.403515  1616A      2.403808  1617A      2.405352  
    1618A      2.406914  1619A      2.409013  1620A      2.410393  
    1621A      2.411737  1622A      2.412510  1623A      2.412621  
    1624A      2.413941  1625A      2.421089  1626A      2.422676  
    1627A      2.425075  1628A      2.442287  1629A      2.445821  
    1630A      2.447390  1631A      2.448476  1632A      2.451558  
    1633A      2.455900  1634A      2.461922  1635A      2.468514  
    1636A      2.472230  1637A      2.479652  1638A      2.485691  
    1639A      2.489950  1640A      2.493973  1641A      2.495317  
    1642A      2.503368  1643A      2.511013  1644A      2.511544  
    1645A      2.518206  1646A      2.523055  1647A      2.526342  
    1648A      2.532289  1649A      2.533665  1650A      2.535292  
    1651A      2.537678  1652A      2.538462  1653A      2.539000  
    1654A      2.556925  1655A      2.559654  1656A      2.567752  
    1657A      2.571598  1658A      2.572312  1659A      2.573648  
    1660A      2.576272  1661A      2.584693  1662A      2.607519  
    1663A      2.608937  1664A      2.609293  1665A      2.610192  
    1666A      2.612240  1667A      2.612628  1668A      2.616679  
    1669A      2.618163  1670A      2.619896  1671A      2.621881  
    1672A      2.628298  1673A      2.628932  1674A      2.631811  
    1675A      2.635518  1676A      2.638241  1677A      2.645253  
    1678A      2.648045  1679A      2.649161  1680A      2.651855  
    1681A      2.652263  1682A      2.652726  1683A      2.653847  
    1684A      2.656012  1685A      2.659748  1686A      2.668669  
    1687A      2.669147  1688A      2.680302  1689A      2.681161  
    1690A      2.681664  1691A      2.681976  1692A      2.685585  
    1693A      2.686538  1694A      2.701276  1695A      2.708911  
    1696A      2.709031  1697A      2.713296  1698A      2.714001  
    1699A      2.715812  1700A      2.717908  1701A      2.719394  
    1702A      2.721181  1703A      2.721748  1704A      2.723039  
    1705A      2.732863  1706A      2.735577  1707A      2.736015  
    1708A      2.737578  1709A      2.738744  1710A      2.743470  
    1711A      2.745194  1712A      2.745790  1713A      2.755146  
    1714A      2.757003  1715A      2.757522  1716A      2.759322  
    1717A      2.759530  1718A      2.762650  1719A      2.762864  
    1720A      2.764173  1721A      2.768750  1722A      2.780624  
    1723A      2.791393  1724A      2.795546  1725A      2.795888  
    1726A      2.796606  1727A      2.798875  1728A      2.800385  
    1729A      2.823106  1730A      2.834349  1731A      2.844297  
    1732A      2.849820  1733A      2.850213  1734A      2.852532  
    1735A      2.858387  1736A      2.869969  1737A      2.870182  
    1738A      2.871961  1739A      2.872373  1740A      2.876003  
    1741A      2.884660  1742A      2.886017  1743A      2.887055  
    1744A      2.887428  1745A      2.890235  1746A      2.893240  
    1747A      2.901641  1748A      2.906121  1749A      2.909804  
    1750A      2.911921  1751A      2.912290  1752A      2.914979  
    1753A      2.925514  1754A      2.935037  1755A      2.935700  
    1756A      2.938525  1757A      2.938800  1758A      2.943585  
    1759A      2.945049  1760A      2.970253  1761A      2.971065  
    1762A      2.982259  1763A      2.982760  1764A      2.990175  
    1765A      2.993681  1766A      2.995044  1767A      3.001457  
    1768A      3.002670  1769A      3.028514  1770A      3.031242  
    1771A      3.032113  1772A      3.041183  1773A      3.052563  
    1774A      3.058772  1775A      3.061412  1776A      3.097739  
    1777A      3.098937  1778A      3.104338  1779A      3.105638  
    1780A      3.116700  1781A      3.118033  1782A      3.119665  
    1783A      3.126289  1784A      3.126725  1785A      3.127630  
    1786A      3.140964  1787A      3.172801  1788A      3.176882  
    1789A      3.178403  1790A      3.190325  1791A      3.194104  
    1792A      3.196185  1793A      3.196835  1794A      3.205154  
    1795A      3.207569  1796A      3.208156  1797A      3.215290  
    1798A      3.216086  1799A      3.217137  1800A      3.219168  
    1801A      3.221602  1802A      3.225850  1803A      3.230961  
    1804A      3.237118  1805A      3.238872  1806A      3.241774  
    1807A      3.253219  1808A      3.258726  1809A      3.267602  
    1810A      3.274780  1811A      3.287336  1812A      3.325771  
    1813A      3.327442  1814A      3.330181  1815A      3.331108  
    1816A      3.332247  1817A      3.333242  1818A      3.339374  
    1819A      3.341637  1820A      3.342097  1821A      3.345822  
    1822A      3.366395  1823A      3.370873  1824A      3.375900  
    1825A      3.385648  1826A      3.409608  1827A      3.433137  
    1828A      3.433686  1829A      3.470540  1830A      3.489363  
    1831A      3.513612  1832A      3.517804  1833A      3.530396  
    1834A      3.534631  1835A      3.536754  1836A      3.540298  
    1837A      3.547359  1838A      3.548409  1839A      3.551306  
    1840A      3.559092  1841A      3.572366  1842A      3.576145  
    1843A      3.581963  1844A      3.614545  1845A      3.636731  
    1846A      3.646943  1847A      3.652626  1848A      3.657886  
    1849A      3.661622  1850A      3.716362  1851A      3.732512  
    1852A      3.735569  1853A      3.744963  1854A      3.778290  
    1855A      3.821796  1856A      3.826571  1857A      3.835312  
    1858A      3.840636  1859A      3.844968  1860A      3.856087  
    1861A      3.911226  1862A      3.917201  1863A      3.939795  
    1864A      3.946041  1865A      3.985776  1866A      3.990250  
    1867A      4.016965  1868A      4.017097  1869A      4.021750  
    1870A      4.031596  1871A      4.037768  1872A      4.049011  
    1873A      4.064221  1874A      4.096840  1875A      4.100077  
    1876A      4.154244  1877A      4.158746  1878A      4.161130  
    1879A      4.178147  1880A      4.185638  1881A      4.189401  
    1882A      4.196142  1883A      4.200295  1884A      4.205874  
    1885A      4.238892  1886A      4.247876  1887A      4.276149  
    1888A      4.373570  1889A      4.421777  1890A      4.434044  
    1891A      4.435656  1892A      4.439029  1893A      4.520819  
    1894A      4.637367  1895A      4.646253  1896A      4.658571  
    1897A      4.733839  1898A      4.767826  1899A      4.769219  

    Final Occupation by Irrep:
              A 
    DOCC [   321 ]
    NA   [   321 ]
    NB   [   321 ]

  @DF-RHF Final Energy: -4073.11067195184933

   => Energetics <=

    Nuclear Repulsion Energy =          17733.5299467141012428
    One-Electron Energy =              -40956.4088465688400902
    Two-Electron Energy =               19149.7682279028886114
    Total Energy =                      -4073.1106719518502359

Computation Completed


Properties will be evaluated at   0.000000,   0.000000,   0.000000 [a0]

Properties computed using the SCF density matrix


 Multipole Moments:

 ------------------------------------------------------------------------------------
     Multipole            Electronic (a.u.)      Nuclear  (a.u.)        Total (a.u.)
 ------------------------------------------------------------------------------------

 L = 1.  Multiply by 2.5417464519 to convert [e a0] to [Debye]
 Dipole X            :          0.0015229           -0.0001188            0.0014041
 Dipole Y            :          0.0014844           -0.0002727            0.0012117
 Dipole Z            :         16.6712173          -21.4244976           -4.7532804
 Magnitude           :                                                    4.7532807

 ------------------------------------------------------------------------------------

*** tstop() called on n2cn1142 at Sat Jan 27 15:11:06 2024
Module time:
	user time   =   23091.10 seconds =     384.85 minutes
	system time =    1635.76 seconds =      27.26 minutes
	total time  =      13532 seconds =     225.53 minutes
Total time:
	user time   =   23091.10 seconds =     384.85 minutes
	system time =    1635.76 seconds =      27.26 minutes
	total time  =      13532 seconds =     225.53 minutes

  //>>>>>>>>>>>>>>>>>>>>>>>>>>>>>>>>>>>//
  //            Monomer A HF           //
  //<<<<<<<<<<<<<<<<<<<<<<<<<<<<<<<<<<<//

   => Libint2 <=

    Primary   basis highest AM E, G, H:  5, 4, 3
    Auxiliary basis highest AM E, G, H:  6, 5, 4
    Onebody   basis highest AM E, G, H:  6, 5, 4
    Solid Harmonics ordering:            gaussian

*** tstart() called on n2cn1142
*** at Sat Jan 27 15:11:06 2024

   => Loading Basis Set <=

    Name: JUN-CC-PVDZ
    Role: ORBITAL
    Keyword: BASIS
    atoms 1                                                   entry B          line   130 file /opt/software/pc2/EB-SW/software/PSI4/1.9-foss-2022a/share/psi4/basis/jun-cc-pvdz.gbs 
    atoms 2-5                                                 entry F          line   266 file /opt/software/pc2/EB-SW/software/PSI4/1.9-foss-2022a/share/psi4/basis/jun-cc-pvdz.gbs 
    atoms 6-23, 30-42, 45-59, 62-78, 81-93, 98-108, 111-119   entry C          line   164 file /opt/software/pc2/EB-SW/software/PSI4/1.9-foss-2022a/share/psi4/basis/jun-cc-pvdz.gbs 
    atoms 24-29, 43-44, 60-61, 79-80, 94-97, 109-110, 120-125 entry H          line    36 file /opt/software/pc2/EB-SW/software/PSI4/1.9-foss-2022a/share/psi4/basis/jun-cc-pvdz.gbs 


         ---------------------------------------------------------
                                   SCF
               by Justin Turney, Rob Parrish, Andy Simmonett
                          and Daniel G. A. Smith
                              RHF Reference
                       16 Threads,  61035 MiB Core
         ---------------------------------------------------------

  ==> Geometry <==

    Molecular point group: c1
    Full point group: C1

    Geometry (in Angstrom), charge = -1, multiplicity = 1:

       Center              X                  Y                   Z               Mass       
    ------------   -----------------  -----------------  -----------------  -----------------
         B           -0.000050191042     0.000351518223     3.352039025239    11.009305360000
         F           -1.153601191042     0.000062518223     4.167686025239    18.998403162730
         F            1.153656808958    -0.000566481777     4.167686025239    18.998403162730
         F           -0.000023191042    -1.153622481777     2.536405025239    18.998403162730
         F           -0.000023191042     1.153992518223     2.536405025239    18.998403162730
      Gh(C)          -3.668445455062     7.803766688305    -0.246054933425    12.000000000000
      Gh(C)          -4.847602910388     7.131256349563    -0.248421508358    12.000000000000
      Gh(C)          -4.894963490217     5.696344921754    -0.248994419456    12.000000000000
      Gh(C)          -3.653744869815     4.980744859182    -0.241333977726    12.000000000000
      Gh(C)          -2.409429312536     7.113995554897    -0.245860591165    12.000000000000
      Gh(C)          -2.425481535146     5.681136469126    -0.252865480035    12.000000000000
      Gh(C)          -1.194748207477     7.786158712532    -0.244388410623    12.000000000000
      Gh(C)           0.037954837895     7.099436163980    -0.246559114928    12.000000000000
      Gh(C)           0.030328396378     5.669504077927    -0.252042499844    12.000000000000
      Gh(C)          -1.200988698947     4.969284866138    -0.243072765910    12.000000000000
      Gh(C)           1.277953634773     7.772873961417    -0.245183266367    12.000000000000
      Gh(C)           2.485353893683     7.087711403460    -0.247457754272    12.000000000000
      Gh(C)           2.486124493876     5.654785328463    -0.254395503260    12.000000000000
      Gh(C)           1.254078728602     4.956092631887    -0.242767561672    12.000000000000
      Gh(C)           3.751710400364     7.763926669203    -0.247330902892    12.000000000000
      Gh(C)           4.923561865144     7.078795295213    -0.249387383600    12.000000000000
      Gh(C)           4.955603080284     5.643461981592    -0.249547796407    12.000000000000
      Gh(C)           3.706797343163     4.941224726556    -0.244456236237    12.000000000000
      Gh(H)          -3.658525328800     8.890841937358    -0.244369945175     1.007825032230
      Gh(H)          -1.189217520798     8.874135605583    -0.240416534182     1.007825032230
      Gh(H)           1.284290047845     8.860847953711    -0.241024442226     1.007825032230
      Gh(H)           3.753537895758     8.851049797195    -0.245808378576     1.007825032230
      Gh(H)           5.869954512165     7.613809352878    -0.250312750642     1.007825032230
      Gh(H)          -5.788235898544     7.676316731157    -0.249981355714     1.007825032230
      Gh(C)          -6.091978149738     4.993274531866    -0.250866659947    12.000000000000
[...]
    1507A      2.130010  1508A      2.131041  1509A      2.131200  
    1510A      2.133143  1511A      2.134995  1512A      2.139536  
    1513A      2.140051  1514A      2.143167  1515A      2.143460  
    1516A      2.144181  1517A      2.144920  1518A      2.146304  
    1519A      2.147992  1520A      2.150829  1521A      2.158873  
    1522A      2.160064  1523A      2.160424  1524A      2.160813  
    1525A      2.161619  1526A      2.162668  1527A      2.164080  
    1528A      2.165044  1529A      2.167037  1530A      2.170220  
    1531A      2.172292  1532A      2.175590  1533A      2.180790  
    1534A      2.183407  1535A      2.183726  1536A      2.190948  
    1537A      2.191806  1538A      2.192306  1539A      2.193442  
    1540A      2.196031  1541A      2.196960  1542A      2.199752  
    1543A      2.200707  1544A      2.201813  1545A      2.202671  
    1546A      2.202872  1547A      2.204485  1548A      2.206216  
    1549A      2.209012  1550A      2.211628  1551A      2.212520  
    1552A      2.215185  1553A      2.219533  1554A      2.220330  
    1555A      2.220822  1556A      2.222901  1557A      2.224236  
    1558A      2.226603  1559A      2.229222  1560A      2.229453  
    1561A      2.231983  1562A      2.232159  1563A      2.233255  
    1564A      2.236191  1565A      2.240180  1566A      2.241020  
    1567A      2.242876  1568A      2.244313  1569A      2.247881  
    1570A      2.248563  1571A      2.255226  1572A      2.258946  
    1573A      2.264387  1574A      2.268541  1575A      2.269093  
    1576A      2.272866  1577A      2.274450  1578A      2.275349  
    1579A      2.278994  1580A      2.282419  1581A      2.284279  
    1582A      2.291805  1583A      2.295225  1584A      2.296921  
    1585A      2.297105  1586A      2.304577  1587A      2.305720  
    1588A      2.306624  1589A      2.318478  1590A      2.325342  
    1591A      2.326924  1592A      2.327730  1593A      2.329148  
    1594A      2.330589  1595A      2.330898  1596A      2.333835  
    1597A      2.335208  1598A      2.335571  1599A      2.336679  
    1600A      2.340451  1601A      2.341737  1602A      2.342487  
    1603A      2.343462  1604A      2.344845  1605A      2.346287  
    1606A      2.346432  1607A      2.349446  1608A      2.350224  
    1609A      2.354155  1610A      2.372909  1611A      2.374013  
    1612A      2.381910  1613A      2.384221  1614A      2.388930  
    1615A      2.392488  1616A      2.399011  1617A      2.401800  
    1618A      2.416187  1619A      2.419339  1620A      2.420370  
    1621A      2.425188  1622A      2.428205  1623A      2.433419  
    1624A      2.443848  1625A      2.444164  1626A      2.453232  
    1627A      2.454982  1628A      2.464970  1629A      2.465714  
    1630A      2.468402  1631A      2.468710  1632A      2.471992  
    1633A      2.472343  1634A      2.491470  1635A      2.491735  
    1636A      2.498581  1637A      2.502372  1638A      2.506832  
    1639A      2.508382  1640A      2.512096  1641A      2.516840  
    1642A      2.540061  1643A      2.540346  1644A      2.540862  
    1645A      2.542918  1646A      2.545345  1647A      2.547437  
    1648A      2.548001  1649A      2.550062  1650A      2.550477  
    1651A      2.554464  1652A      2.556735  1653A      2.556918  
    1654A      2.564340  1655A      2.571663  1656A      2.571791  
    1657A      2.581439  1658A      2.585316  1659A      2.585576  
    1660A      2.586264  1661A      2.587951  1662A      2.589305  
    1663A      2.589520  1664A      2.593285  1665A      2.594024  
    1666A      2.602583  1667A      2.603055  1668A      2.614276  
    1669A      2.614542  1670A      2.614750  1671A      2.615448  
    1672A      2.618578  1673A      2.619613  1674A      2.633478  
    1675A      2.640822  1676A      2.642293  1677A      2.645804  
    1678A      2.646357  1679A      2.649229  1680A      2.650394  
    1681A      2.650729  1682A      2.654014  1683A      2.656471  
    1684A      2.657285  1685A      2.666223  1686A      2.667956  
    1687A      2.668644  1688A      2.671298  1689A      2.671547  
    1690A      2.674041  1691A      2.679409  1692A      2.680986  
    1693A      2.686577  1694A      2.686920  1695A      2.690042  
    1696A      2.691653  1697A      2.691735  1698A      2.692865  
    1699A      2.695407  1700A      2.696681  1701A      2.701273  
    1702A      2.708217  1703A      2.725375  1704A      2.730854  
    1705A      2.731073  1706A      2.731753  1707A      2.732031  
    1708A      2.733021  1709A      2.756427  1710A      2.761393  
    1711A      2.769251  1712A      2.777798  1713A      2.778427  
    1714A      2.781237  1715A      2.782977  1716A      2.799700  
    1717A      2.800219  1718A      2.802338  1719A      2.802406  
    1720A      2.803373  1721A      2.812614  1722A      2.815045  
    1723A      2.816139  1724A      2.816708  1725A      2.818220  
    1726A      2.820383  1727A      2.829407  1728A      2.830959  
    1729A      2.840940  1730A      2.841961  1731A      2.842674  
    1732A      2.845167  1733A      2.845693  1734A      2.846596  
    1735A      2.864289  1736A      2.865471  1737A      2.868936  
    1738A      2.871393  1739A      2.871752  1740A      2.875810  
    1741A      2.896043  1742A      2.896961  1743A      2.900714  
    1744A      2.916165  1745A      2.918198  1746A      2.922406  
    1747A      2.928120  1748A      2.931354  1749A      2.935430  
    1750A      2.936151  1751A      2.942455  1752A      2.964192  
    1753A      2.966231  1754A      2.970488  1755A      2.976429  
    1756A      2.992813  1757A      2.997256  1758A      3.030256  
    1759A      3.031044  1760A      3.039731  1761A      3.040732  
    1762A      3.047408  1763A      3.049460  1764A      3.051293  
    1765A      3.057925  1766A      3.058379  1767A      3.067744  
    1768A      3.073375  1769A      3.110860  1770A      3.113520  
    1771A      3.114391  1772A      3.123853  1773A      3.129317  
    1774A      3.129707  1775A      3.137750  1776A      3.138655  
    1777A      3.143326  1778A      3.143481  1779A      3.150457  
    1780A      3.151070  1781A      3.152714  1782A      3.153213  
    1783A      3.155553  1784A      3.162225  1785A      3.168987  
    1786A      3.173301  1787A      3.177668  1788A      3.178591  
    1789A      3.194192  1790A      3.194429  1791A      3.221445  
    1792A      3.259751  1793A      3.261956  1794A      3.262301  
    1795A      3.263012  1796A      3.263325  1797A      3.265841  
    1798A      3.272663  1799A      3.272966  1800A      3.276203  
    1801A      3.276334  1802A      3.297970  1803A      3.300672  
    1804A      3.306564  1805A      3.309832  1806A      3.362672  
    1807A      3.363141  1808A      3.390736  1809A      3.418113  
    1810A      3.437961  1811A      3.445573  1812A      3.456387  
    1813A      3.457908  1814A      3.462710  1815A      3.467370  
    1816A      3.469904  1817A      3.476179  1818A      3.478509  
    1819A      3.484767  1820A      3.491939  1821A      3.494602  
    1822A      3.510263  1823A      3.537265  1824A      3.559349  
    1825A      3.577320  1826A      3.581264  1827A      3.589874  
    1828A      3.591687  1829A      3.645506  1830A      3.656240  
    1831A      3.667411  1832A      3.674349  1833A      3.707659  
    1834A      3.754403  1835A      3.757922  1836A      3.761238  
    1837A      3.768236  1838A      3.778786  1839A      3.787126  
    1840A      3.844142  1841A      3.848398  1842A      3.872311  
    1843A      3.877324  1844A      3.918342  1845A      3.923373  
    1846A      3.948357  1847A      3.949242  1848A      3.952192  
    1849A      3.959312  1850A      3.966971  1851A      3.974245  
    1852A      3.985513  1853A      4.024784  1854A      4.027656  
    1855A      4.085464  1856A      4.237858  1857A      4.289383  
    1858A      4.343803  1859A      4.423179  1860A      4.455802  
    1861A      4.548117  1862A      4.568874  1863A      5.756791  
    1864A      5.758233  1865A      5.768010  1866A      5.770798  
    1867A      5.771882  1868A      5.773218  1869A      5.782981  
    1870A      5.792083  1871A      5.816555  1872A      5.824921  
    1873A      5.838035  1874A      6.030979  1875A      6.031619  
    1876A      6.035032  1877A      6.212986  1878A      6.334884  
    1879A      6.335082  1880A      6.391460  1881A      6.392379  
    1882A      6.396576  1883A      7.237921  1884A      7.305830  
    1885A      7.313550  1886A      7.340586  1887A      7.452442  
    1888A      7.456897  1889A      7.471690  1890A      7.533731  
    1891A      7.567873  1892A      7.605130  1893A      7.772705  
    1894A      7.833170  1895A     12.763775  1896A     42.928252  
    1897A     42.955336  1898A     42.977143  1899A     42.980106  

    Final Occupation by Irrep:
              A 
    DOCC [   300 ]
    NA   [   300 ]
    NB   [   300 ]

  @DF-RHF Final Energy: -3650.33981391164070

   => Energetics <=

    Nuclear Repulsion Energy =          15611.4211649754324753
    One-Electron Energy =              -36072.1398894562153146
    Two-Electron Energy =               16810.3789105691430450
    Total Energy =                      -3650.3398139116397942

Computation Completed


Properties will be evaluated at   0.000000,   0.000000,   0.000000 [a0]

Properties computed using the SCF density matrix


 Multipole Moments:

 ------------------------------------------------------------------------------------
     Multipole            Electronic (a.u.)      Nuclear  (a.u.)        Total (a.u.)
 ------------------------------------------------------------------------------------

 L = 1.  Multiply by 2.5417464519 to convert [e a0] to [Debye]
 Dipole X            :          0.0000849            0.0001983            0.0002833
 Dipole Y            :          0.0013298           -0.0013163            0.0000135
 Dipole Z            :        281.1363489         -281.1368043           -0.0004554
 Magnitude           :                                                    0.0005365

 ------------------------------------------------------------------------------------

*** tstop() called on n2cn1142 at Sat Jan 27 18:31:46 2024
Module time:
	user time   =   16535.16 seconds =     275.59 minutes
	system time =    1158.98 seconds =      19.32 minutes
	total time  =       7182 seconds =     119.70 minutes
Total time:
	user time   =   43430.15 seconds =     723.84 minutes
	system time =    3161.90 seconds =      52.70 minutes
	total time  =      25572 seconds =     426.20 minutes
  Constructing Basis Sets for SAPT...

   => Loading Basis Set <=

    Name: (JUN-CC-PVDZ AUX)
    Role: RIFIT
    Keyword: DF_BASIS_SAPT
    atoms 1                                                   entry B          line    56 file /opt/software/pc2/EB-SW/software/PSI4/1.9-foss-2022a/share/psi4/basis/jun-cc-pvdz-ri.gbs 
    atoms 2-5                                                 entry F          line   232 file /opt/software/pc2/EB-SW/software/PSI4/1.9-foss-2022a/share/psi4/basis/jun-cc-pvdz-ri.gbs 
    atoms 6-23, 30-42, 45-59, 62-78, 81-93, 98-108, 111-119   entry C          line   100 file /opt/software/pc2/EB-SW/software/PSI4/1.9-foss-2022a/share/psi4/basis/jun-cc-pvdz-ri.gbs 
    atoms 24-29, 43-44, 60-61, 79-80, 94-97, 109-110, 120-125 entry H          line    30 file /opt/software/pc2/EB-SW/software/PSI4/1.9-foss-2022a/share/psi4/basis/jun-cc-pvdz-ri.gbs 

   => Loading Basis Set <=

    Name: (JUN-CC-PVDZ AUX)
    Role: JKFIT
    Keyword: DF_BASIS_ELST
    atoms 1                                                   entry B          line    90 file /opt/software/pc2/EB-SW/software/PSI4/1.9-foss-2022a/share/psi4/basis/jun-cc-pvdz-jkfit.gbs 
    atoms 2-5                                                 entry F          line   314 file /opt/software/pc2/EB-SW/software/PSI4/1.9-foss-2022a/share/psi4/basis/jun-cc-pvdz-jkfit.gbs 
    atoms 6-23, 30-42, 45-59, 62-78, 81-93, 98-108, 111-119   entry C          line   146 file /opt/software/pc2/EB-SW/software/PSI4/1.9-foss-2022a/share/psi4/basis/jun-cc-pvdz-jkfit.gbs 
    atoms 24-29, 43-44, 60-61, 79-80, 94-97, 109-110, 120-125 entry H          line    70 file /opt/software/pc2/EB-SW/software/PSI4/1.9-foss-2022a/share/psi4/basis/jun-cc-pvdz-jkfit.gbs 


  //>>>>>>>>>>>>>>>>>>>>>>>>>>>>>>>>>>>//
  //               SSAPT0              //
  //<<<<<<<<<<<<<<<<<<<<<<<<<<<<<<<<<<<//


*** tstart() called on n2cn1142
*** at Sat Jan 27 18:31:47 2024

        SAPT0  
    Ed Hohenstein
     6 June 2009

      Orbital Information
  --------------------------
    NSO        =      1938
    NMO        =      1899
    NRI        =      6901
    NRI (Elst) =      8531
    NOCC A     =        21
    NOCC B     =       300
    FOCC A     =         5
    FOCC B     =        96
    NVIR A     =      1878
    NVIR B     =      1599

    Elst10,r            =     0.004886849130 [Eh]
    Exch10              =     0.018562081091 [Eh]
    Exch10 (S^2)        =     0.018507882295 [Eh]

    Iter     Energy [mEh]          dE [mEh]         Residual      Time [s]
       1      -1.91637505       1.916375050       7.283986845           593
       2      -2.39608039       0.479705343       2.846864146          1246
       3      -2.43744095       0.041360557       0.484196993          2012
       4      -2.42981728      -0.007623671       0.133237588          2879
       5      -2.42972323      -0.000094050       0.037938510          3654
       6      -2.42998775       0.000264520       0.010049027          4567
       7      -2.43002680       0.000039050       0.002155133          5414
       8      -2.43000938      -0.000017421       0.000365509          6540
       9      -2.43001138       0.000001998       0.000057044          7684
      10      -2.43001124      -0.000000135       0.000011519          8918
      11      -2.43001123      -0.000000010       0.000002135         10027
      12      -2.43001124       0.000000005       0.000000772         11370

    CHF Iterations converged


    Iter     Energy [mEh]          dE [mEh]         Residual      Time [s]
       1     -33.38719793      33.387197935      96.219130565          1465
       2     -22.40558537     -10.981612565      11.681940611          2901
       3     -22.38739840      -0.018186970       3.874885750          4200
       4     -22.76941632       0.382017923       1.308559027          5704
       5     -22.82032964       0.050913320       0.491445354          7340
       6     -22.79929397      -0.021035673       0.281208524          8962
       7     -22.79015953      -0.009134444       0.117430018         10541
       8     -22.79297146       0.002811932       0.051043458         11987
       9     -22.79486091       0.001889453       0.020994601         13523
      10     -22.79443719      -0.000423720       0.018447204         14765
      11     -22.79399798      -0.000439208       0.012062929         16002
      12     -22.79413990       0.000141920       0.007123266         17323
      13     -22.79428642       0.000146514       0.002880185         18526
      14     -22.79427997      -0.000006446       0.001472431         19522
      15     -22.79425777      -0.000022205       0.001022767         21700
      16     -22.79424854      -0.000009228       0.000515394         23050
      17     -22.79425975       0.000011216       0.000188488         24324
      18     -22.79426125       0.000001500       0.000061539         25745
      19     -22.79426026      -0.000000993       0.000031051         26957
      20     -22.79425971      -0.000000549       0.000013131         27955
      21     -22.79425987       0.000000158       0.000006475         29272
      22     -22.79425998       0.000000109       0.000003042         30835
      23     -22.79425996      -0.000000019       0.000001404         31855
      24     -22.79425994      -0.000000022       0.000000728         32863

    CHF Iterations converged

    Ind20,r (A<-B)      =    -0.002430011236 [Eh]
    Ind20,r (B<-A)      =    -0.022794259937 [Eh]
    Ind20,r             =    -0.025224271173 [Eh]
    Exch-Ind20,r (A<-B) =     0.002230408650 [Eh]
    Exch-Ind20,r (B<-A) =     0.004140101485 [Eh]
    Exch-Ind20,r        =     0.006370510135 [Eh]
    Disp20              =    -0.014606049877 [Eh]
    Disp20 (SS)         =    -0.007303024939 [Eh]
    Disp20 (OS)         =    -0.007303024939 [Eh]
    Exch-Disp20         =     0.002254875832 [Eh]
    Exch-Disp20 (SS)    =     0.001283656968 [Eh]
    Exch-Disp20 (OS)    =     0.000971218865 [Eh]

    SAPT Results 
  --------------------------------------------------------------------------------------------------------
    Electrostatics                  4.88684913 [mEh]       3.06654413 [kcal/mol]      12.83042062 [kJ/mol]
      Elst10,r                      4.88684913 [mEh]       3.06654413 [kcal/mol]      12.83042062 [kJ/mol]

    Exchange                       18.56208109 [mEh]      11.64788174 [kcal/mol]      48.73473719 [kJ/mol]
      Exch10                       18.56208109 [mEh]      11.64788174 [kcal/mol]      48.73473719 [kJ/mol]
      Exch10(S^2)                  18.50788229 [mEh]      11.61387148 [kcal/mol]      48.59243827 [kJ/mol]

    Induction                     -20.48850934 [mEh]     -12.85673372 [kcal/mol]     -53.79257387 [kJ/mol]
      Ind20,r                     -25.22427117 [mEh]     -15.82846913 [kcal/mol]     -66.22631484 [kJ/mol]
      Exch-Ind20,r                  6.37051013 [mEh]       3.99755546 [kcal/mol]      16.72577205 [kJ/mol]
      delta HF,r (2)               -1.63474831 [mEh]      -1.02582005 [kcal/mol]      -4.29203109 [kJ/mol]

    Dispersion                    -12.35117404 [mEh]      -7.75047873 [kcal/mol]     -32.42800299 [kJ/mol]
      Disp20                      -14.60604988 [mEh]      -9.16543467 [kcal/mol]     -38.34817867 [kJ/mol]
      Exch-Disp20                   2.25487583 [mEh]       1.41495595 [kcal/mol]       5.92017568 [kJ/mol]
      Disp20 (SS)                  -7.30302494 [mEh]      -4.58271734 [kcal/mol]     -19.17408933 [kJ/mol]
      Disp20 (OS)                  -7.30302494 [mEh]      -4.58271734 [kcal/mol]     -19.17408933 [kJ/mol]
      Exch-Disp20 (SS)              1.28365697 [mEh]       0.80550691 [kcal/mol]       3.37024090 [kJ/mol]
      Exch-Disp20 (OS)              0.97121886 [mEh]       0.60944904 [kcal/mol]       2.54993478 [kJ/mol]

  Total HF                          2.96042088 [mEh]       1.85769215 [kcal/mol]       7.77258394 [kJ/mol]
  Total SAPT0                      -9.39075317 [mEh]      -5.89278658 [kcal/mol]     -24.65541904 [kJ/mol]

  Special recipe for scaled SAPT0 (see Manual):
    Electrostatics sSAPT0           4.88684913 [mEh]       3.06654413 [kcal/mol]      12.83042062 [kJ/mol]
    Exchange sSAPT0                18.56208109 [mEh]      11.64788174 [kcal/mol]      48.73473719 [kJ/mol]
    Induction sSAPT0              -20.43237876 [mEh]     -12.82151124 [kcal/mol]     -53.64520305 [kJ/mol]
    Dispersion sSAPT0             -12.33130633 [mEh]      -7.73801154 [kcal/mol]     -32.37584030 [kJ/mol]
  Total sSAPT0                     -9.31475487 [mEh]      -5.84509692 [kcal/mol]     -24.45588553 [kJ/mol]
  --------------------------------------------------------------------------------------------------------

*** tstop() called on n2cn1142 at Mon Jan 29 14:26:57 2024
Module time:
	user time   =   62610.30 seconds =    1043.51 minutes
	system time =    3550.71 seconds =      59.18 minutes
	total time  =     158110 seconds =    2635.17 minutes
Total time:
	user time   =  106041.75 seconds =    1767.36 minutes
	system time =    6712.62 seconds =     111.88 minutes
	total time  =     183683 seconds =    3061.38 minutes

    Psi4 stopped on: Monday, 29 January 2024 02:26PM
    Psi4 wall time for execution: 2 days, 3:01:24.82

*** Psi4 exiting successfully. Buy a developer a beer!
