
    -----------------------------------------------------------------------
          Psi4: An Open-Source Ab Initio Electronic Structure Package
                               Psi4 1.9 release

                         Git: Rev {} zzzzzzz 


    D. G. A. Smith, L. A. Burns, A. C. Simmonett, R. M. Parrish,
    M. C. Schieber, R. Galvelis, P. Kraus, H. Kruse, R. Di Remigio,
    A. Alenaizan, A. M. James, S. Lehtola, J. P. Misiewicz, M. Scheurer,
    R. A. Shaw, J. B. Schriber, Y. Xie, Z. L. Glick, D. A. Sirianni,
    J. S. O'Brien, J. M. Waldrop, A. Kumar, E. G. Hohenstein,
    B. P. Pritchard, B. R. Brooks, H. F. Schaefer III, A. Yu. Sokolov,
    K. Patkowski, A. E. DePrince III, U. Bozkaya, R. A. King,
    F. A. Evangelista, J. M. Turney, T. D. Crawford, C. D. Sherrill,
    J. Chem. Phys. 152(18) 184108 (2020). https://doi.org/10.1063/5.0006002

                            Additional Code Authors
    E. T. Seidl, C. L. Janssen, E. F. Valeev, M. L. Leininger,
    J. F. Gonthier, R. M. Richard, H. R. McAlexander, M. Saitow, X. Wang,
    P. Verma, M. H. Lechner, A. Jiang, S. Behnle, A. G. Heide,
    M. F. Herbst, and D. L. Poole

             Previous Authors, Complete List of Code Contributors,
                       and Citations for Specific Modules
    https://github.com/psi4/psi4/blob/master/codemeta.json
    https://github.com/psi4/psi4/graphs/contributors
    http://psicode.org/psi4manual/master/introduction.html#citing-psifour

    -----------------------------------------------------------------------


    Psi4 started on: Saturday, 10 February 2024 01:13PM

    Process ID: 1247456
    Host:       n2cn0541
    PSIDATADIR: /opt/software/pc2/EB-SW/software/PSI4/1.9-foss-2022a/share/psi4
    Memory:     500.0 MiB
    Threads:    16
    
  ==> Input File <==

--------------------------------------------------------------------------
memory 48 GB # how much memory is available ! Depends on the nodes/cores !

molecule dimer {
# monomer A
+1 1    # Charge and multiplicity
C  0.680067 1.417258 -5.915929
C -0.680504 1.419286 -5.915545
N -1.085635 1.420284 -4.597221
C  0.000108 1.423560 -3.815820
C -2.477365 1.469690 -4.129242
N  1.085222 1.420284 -4.597221
H  1.385146 1.409430 -6.733368
H -1.385302 1.419096 -6.733214
H -0.000009 1.425307 -2.734731
C  2.478117 1.403392 -4.132123
H  2.490592 1.430737 -3.041870
H  2.967028 0.489946 -4.479299
H  3.001428 2.278875 -4.523595
H -2.857359 2.491761 -4.209201
H -3.082679 0.799606 -4.742306
H -2.518128 1.142706 -3.089294
--
# monomer B
0 1     # Charge and multiplicity
C   1.22531237526482      0.70753866091955      0.00613762728373
C   1.22532433589282     -0.70753852257020     -0.00619318228664
C   -0.00000567409046      1.41496628609039     -0.00672680580738
C   2.45644923379077      1.41832825917820      0.00902448468363
C   0.00001130712078     -1.41497612663474      0.00347275151708
C   -1.22530046906674      0.70754574598412      0.00838914760619
C   2.45643823516184     -1.41832293188077     -0.00843833914343
C   -0.00000085313587      2.83680140328112     -0.00913035594137
C   3.68182717731192      0.70931832800114     -0.00808954934571
C   2.45512052870677      2.83422403348893     -0.00819210630633
C   3.68182158506039     -0.70933346742900      0.00798293467272
C   -1.22531311884624     -0.70752714354401     -0.00512042085974
C   1.22670006104402      3.54346985599427      0.00816696660346
C   0.00000526469929     -2.83678176723568      0.00832091913869
C   -2.45643555300670      1.41831729028492      0.00842454345199
C   2.45512389762097     -2.83422965658853      0.00783102630520
C   -1.22671388474763      3.54346943575023      0.00827029982280
C   4.91451777504333      1.42717324448953     -0.00160886631602
C   3.69315067131765      3.54279566454522     -0.00155906667985
C   -2.45643712022637     -1.41831290883911     -0.00846337726810
C   1.22670532178455     -3.54347386990643     -0.00780316414624
C   -2.45512491866593      2.83421703463423     -0.00818572995999
C   4.91452486062398     -1.42718653794377      0.00136387641845
C   1.22142509354026      4.97013443726031      0.00150231067809
C   4.89300870916237      2.82518837202648     -0.00039219795739
C   -1.22669652864725     -3.54347062507680     -0.00753595973677
C   -3.68181849668397      0.70932533873199     -0.00807686886569
C   3.69314758099218     -3.54280096939050      0.00148176697923
C   -1.22143177215231      4.97012866986289      0.00168580605083
C   6.13477145276790      0.68054831910577     -0.00083909176631
C   3.65678936045204      4.97295361556775     -0.00065042889723
C   -2.45512642789169     -2.83421472106065      0.00758666850712
C   -3.68181869921921     -0.70932533146830      0.00810055625144
C   4.89301309775526     -2.82519973363176      0.00021895393805
C   -0.00000059327114      5.65044773803267      0.00045449734393
C   6.13477559217374     -0.68055448207492      0.00042622874941
C   2.47813196269732      5.65357712333155      0.00063835075260
C   1.22142288457925     -4.97012668293268     -0.00129718634452
C   -3.69316190412301      3.54279732619245     -0.00139355922051
C   -1.22142804110313     -4.97011793159564     -0.00140994817719
C   -4.91452132810043      1.42717581899491     -0.00153192130862
C   3.65678749952045     -4.97295485423912      0.00080007163680
C   -2.47813805026426      5.65357479452875      0.00092287576113
C   -3.69314125872231     -3.54278984697859      0.00136564082345
C   -4.91451200321153     -1.42718062802730      0.00139857359209
C   -0.00000552908399     -5.65043791501335      0.00005899322272
C   -4.89302000425900      2.82518897091939     -0.00040227981744
C   2.47812647313991     -5.65357317188818     -0.00029052915548
C   -3.65679823041642      4.97295655404175     -0.00047374852278
C   -4.89299899901461     -2.82519139505969      0.00006491824035
C   -2.47812801824129     -5.65356579800621     -0.00056571680280
C   -6.13477002348955      0.68054913825639     -0.00086464346868
C   -3.65678835334731     -4.97294365097028      0.00058578382008
C   -6.13476456307132     -0.68055354348201      0.00040575295444
H   5.83528897565761      3.36927626695423      0.00396712770529
H   7.07385965258860      1.22821762089947     -0.00037744837300
H   4.60066374401555      5.51238117445323     -0.00014522814529
H   5.83528386714679     -3.36930568472863     -0.00423551337640
H   -0.00001167146422      6.73853104613662     -0.00389474766392
H   7.07386165167227     -1.22822657074368     -0.00008250934481
H   2.47331421164041      6.74068466339473      0.00017162982210
H   4.60066897122302     -5.51237575717576      0.00039007446835
H   -2.47331820069565      6.74068209160650      0.00047297644710
H   -0.00000978838621     -6.73852780445195      0.00458867820736
H   -5.83530143450167      3.36927132229595      0.00410314985360
H   2.47330840367253     -6.74068500242887      0.00027980126949
H   -4.60067436136587      5.51237839860371      0.00002010017831
H   -5.83527902699321     -3.36928859177951     -0.00451481925734
H   -2.47329986759855     -6.74067870613986     -0.00016951527498
H   -7.07385728692578      1.22822084484047     -0.00046143985387
H   -4.60067330624313     -5.51236229778631      0.00021776644566
H   -7.07385645456741     -1.22822025997701     -0.00017736581114

    units angstrom      # Angstroms are the default
    no_reorient         # Geometry fixed, default
    symmetry c1         # C1 symmetry, default
}

set {
    scf_type DF         # Density fitting, faster than exact integrals
    freeze_core True    # Freeze core electrons
    basis jun-cc-pVDZ   # Jun-cc-pVDZ basis set, recommended for sSAPT0 in https://doi.org/10.1063/1.4867135
}

energy('ssapt0')        # Compute sSAPT0 energy, includes also SAPT0
--------------------------------------------------------------------------

  Memory set to  44.703 GiB by Python driver.

Scratch directory: /tmp/
   => Loading Basis Set <=

    Name: JUN-CC-PVDZ
    Role: ORBITAL
    Keyword: BASIS
    atoms 1-2, 4-5, 10, 17-70 entry C          line   164 file /opt/software/pc2/EB-SW/software/PSI4/1.9-foss-2022a/share/psi4/basis/jun-cc-pvdz.gbs 
    atoms 3, 6                entry N          line   198 file /opt/software/pc2/EB-SW/software/PSI4/1.9-foss-2022a/share/psi4/basis/jun-cc-pvdz.gbs 
    atoms 7-9, 11-16, 71-88   entry H          line    36 file /opt/software/pc2/EB-SW/software/PSI4/1.9-foss-2022a/share/psi4/basis/jun-cc-pvdz.gbs 

   => Loading Basis Set <=

    Name: JUN-CC-PVDZ
    Role: ORBITAL
    Keyword: BASIS
    atoms 1-2, 4-5, 10, 17-70 entry C          line   164 file /opt/software/pc2/EB-SW/software/PSI4/1.9-foss-2022a/share/psi4/basis/jun-cc-pvdz.gbs 
    atoms 3, 6                entry N          line   198 file /opt/software/pc2/EB-SW/software/PSI4/1.9-foss-2022a/share/psi4/basis/jun-cc-pvdz.gbs 
    atoms 7-9, 11-16, 71-88   entry H          line    36 file /opt/software/pc2/EB-SW/software/PSI4/1.9-foss-2022a/share/psi4/basis/jun-cc-pvdz.gbs 


  //>>>>>>>>>>>>>>>>>>>>>>>>>>>>>>>>>>>//
  //              Dimer HF             //
  //<<<<<<<<<<<<<<<<<<<<<<<<<<<<<<<<<<<//

   => Libint2 <=

    Primary   basis highest AM E, G, H:  5, 4, 3
    Auxiliary basis highest AM E, G, H:  6, 5, 4
    Onebody   basis highest AM E, G, H:  6, 5, 4
    Solid Harmonics ordering:            gaussian

*** tstart() called on n2cn0541
*** at Sat Feb 10 13:13:52 2024

   => Loading Basis Set <=

    Name: JUN-CC-PVDZ
    Role: ORBITAL
    Keyword: BASIS
    atoms 1-2, 4-5, 10, 17-70 entry C          line   164 file /opt/software/pc2/EB-SW/software/PSI4/1.9-foss-2022a/share/psi4/basis/jun-cc-pvdz.gbs 
    atoms 3, 6                entry N          line   198 file /opt/software/pc2/EB-SW/software/PSI4/1.9-foss-2022a/share/psi4/basis/jun-cc-pvdz.gbs 
    atoms 7-9, 11-16, 71-88   entry H          line    36 file /opt/software/pc2/EB-SW/software/PSI4/1.9-foss-2022a/share/psi4/basis/jun-cc-pvdz.gbs 


         ---------------------------------------------------------
                                   SCF
               by Justin Turney, Rob Parrish, Andy Simmonett
                          and Daniel G. A. Smith
                              RHF Reference
                       16 Threads,  45776 MiB Core
         ---------------------------------------------------------

  ==> Geometry <==

    Molecular point group: c1
    Full point group: C1

    Geometry (in Angstrom), charge = 1, multiplicity = 1:

       Center              X                  Y                   Z               Mass       
    ------------   -----------------  -----------------  -----------------  -----------------
         C            0.680066520158     1.235968212970    -5.318120107941    12.000000000000
         C           -0.680504479842     1.237996212970    -5.317736107941    12.000000000000
         N           -1.085635479842     1.238994212970    -3.999412107941    14.003074004430
         C            0.000107520158     1.242270212970    -3.218011107941    12.000000000000
         C           -2.477365479842     1.288400212970    -3.531433107941    12.000000000000
         N            1.085221520158     1.238994212970    -3.999412107941    14.003074004430
         H            1.385145520158     1.228140212970    -6.135559107941     1.007825032230
         H           -1.385302479842     1.237806212970    -6.135405107941     1.007825032230
         H           -0.000009479842     1.244017212970    -2.136922107941     1.007825032230
         C            2.478116520158     1.222102212970    -3.534314107941    12.000000000000
         H            2.490591520158     1.249447212970    -2.444061107941     1.007825032230
         H            2.967027520158     0.308656212970    -3.881490107941     1.007825032230
         H            3.001427520158     2.097585212970    -3.925786107941     1.007825032230
         H           -2.857359479842     2.310471212970    -3.611392107941     1.007825032230
         H           -3.082679479842     0.618316212970    -4.144497107941     1.007825032230
         H           -2.518128479842     0.961416212970    -2.491485107941     1.007825032230
         C            1.225311895423     0.526248873889     0.603946519343    12.000000000000
         C            1.225323856051    -0.888828309601     0.591615709773    12.000000000000
         C           -0.000006153932     1.233676499060     0.591082086252    12.000000000000
         C            2.456448753949     1.237038472148     0.606833376743    12.000000000000
         C            0.000010827279    -1.596265913665     0.601281643576    12.000000000000
         C           -1.225300948908     0.526255958954     0.606198039665    12.000000000000
         C            2.456437755320    -1.599612718911     0.589370552916    12.000000000000
         C           -0.000001332978     2.655511616251     0.588678536118    12.000000000000
         C            3.681826697470     0.528028540971     0.589719342714    12.000000000000
         C            2.455120048865     2.652934246459     0.589616785753    12.000000000000
         C            3.681821105219    -0.890623254459     0.605791826732    12.000000000000
         C           -1.225313598688    -0.888816930574     0.592688471200    12.000000000000
         C            1.226699581202     3.362180068964     0.605975858663    12.000000000000
         C            0.000004784858    -3.018071554266     0.606129811198    12.000000000000
         C           -2.456436032848     1.237027503255     0.606233435511    12.000000000000
         C            2.455123417779    -3.015519443619     0.605639918364    12.000000000000
         C           -1.226714364589     3.362179648720     0.606079191882    12.000000000000
         C            4.914517295202     1.245883457459     0.596200025743    12.000000000000
         C            3.693150191476     3.361505877515     0.596249825379    12.000000000000
         C           -2.456437600068    -1.599602695869     0.589345514791    12.000000000000
         C            1.226704841943    -3.724763656937     0.590005727913    12.000000000000
         C           -2.455125398508     2.652927247604     0.589623162099    12.000000000000
         C            4.914524380782    -1.608476324974     0.599172768478    12.000000000000
         C            1.221424613699     4.788844650230     0.599311202737    12.000000000000
         C            4.893008229321     2.643898584996     0.597416694102    12.000000000000
         C           -1.226697008489    -3.724760412107     0.590272932323    12.000000000000
         C           -3.681818976526     0.528035551702     0.589732023194    12.000000000000
         C            3.693147101150    -3.724090756421     0.599290659039    12.000000000000
         C           -1.221432251994     4.788838882833     0.599494698110    12.000000000000
         C            6.134770972926     0.499258532075     0.596969800293    12.000000000000
         C            3.656788880610     4.791663828537     0.597158463162    12.000000000000
         C           -2.455126907733    -3.015504508091     0.605395560566    12.000000000000
         C           -3.681819179061    -0.890615118499     0.605909448311    12.000000000000
         C            4.893012617914    -3.006489520662     0.598027845997    12.000000000000
         C           -0.000001073113     5.469157951002     0.598263389403    12.000000000000
         C            6.134775112332    -0.861844269105     0.598235120809    12.000000000000
         C            2.478131482856     5.472287336301     0.598447242812    12.000000000000
         C            1.221422404738    -5.151416469963     0.596511705715    12.000000000000
         C           -3.693162383965     3.361507539162     0.596415332839    12.000000000000
         C           -1.221428520945    -5.151407718626     0.596398943882    12.000000000000
         C           -4.914521807942     1.245886031965     0.596276970751    12.000000000000
         C            3.656787019679    -5.154244641269     0.598608963696    12.000000000000
         C           -2.478138530106     5.472285007498     0.598731767820    12.000000000000
         C           -3.693141738564    -3.724079634009     0.599174532883    12.000000000000
         C           -4.914512483053    -1.608470415058     0.599207465651    12.000000000000
         C           -0.000006008926    -5.831727702044     0.597867885282    12.000000000000
         C           -4.893020484101     2.643899183889     0.597406612242    12.000000000000
         C            2.478125993298    -5.834862958919     0.597518362904    12.000000000000
         C           -3.656798710258     4.791666767011     0.597335143536    12.000000000000
         C           -4.892999478856    -3.006481182090     0.597873810300    12.000000000000
         C           -2.478128498083    -5.834855585037     0.597243175256    12.000000000000
         C           -6.134770503331     0.499259351226     0.596944248591    12.000000000000
         C           -3.656788833189    -5.154233438001     0.598394675879    12.000000000000
         C           -6.134765042913    -0.861843330512     0.598214645014    12.000000000000
         H            5.835288495816     3.187986479924     0.601776019765     1.007825032230
         H            7.073859172747     1.046927833869     0.597431443686     1.007825032230
         H            4.600663264174     5.331091387423     0.597663663914     1.007825032230
         H            5.835283387305    -3.550595471759     0.593573378683     1.007825032230
         H           -0.000012151306     6.557241259106     0.593914144395     1.007825032230
         H            7.073861171831    -1.409516357774     0.597726382714     1.007825032230
         H            2.473313731799     6.559394876364     0.597980521881     1.007825032230
         H            4.600668491381    -5.693665544206     0.598198966528     1.007825032230
         H           -2.473318680537     6.559392304576     0.598281868506     1.007825032230
         H           -0.000010268228    -6.919817591482     0.602397570267     1.007825032230
         H           -5.835301914343     3.187981535266     0.601912041913     1.007825032230
         H            2.473307923831    -6.921974789459     0.598088693329     1.007825032230
         H           -4.600674841208     5.331088611573     0.597828992238     1.007825032230
         H           -5.835279506835    -3.550578378810     0.593294072802     1.007825032230
         H           -2.473300347440    -6.921968493170     0.597639376784     1.007825032230
         H           -7.073857766768     1.046931057810     0.597347452205     1.007825032230
         H           -4.600673786085    -5.693652084817     0.598026658505     1.007825032230
         H           -7.073856934409    -1.409510047007     0.597631526248     1.007825032230

  Running in c1 symmetry.

  Rotational constants: A =      0.00173  B =      0.00173  C =      0.00108 [cm^-1]
  Rotational constants: A =     51.99665  B =     51.92429  C =     32.23770 [MHz]
  Nuclear repulsion = 8207.366788917253871

  Charge       = 1
  Multiplicity = 1
  Electrons    = 394
  Nalpha       = 197
  Nbeta        = 197

  ==> Algorithm <==

  SCF Algorithm Type is DF.
  DIIS enabled.
  MOM disabled.
  Fractional occupation disabled.
  Guess Type is SAD.
  Energy threshold   = 1.00e-08
  Density threshold  = 1.00e-08
  Integral threshold = 1.00e-12

  ==> Primary Basis <==

  Basis Set: JUN-CC-PVDZ
    Blend: JUN-CC-PVDZ
    Number of shells: 569
    Number of basis functions: 1233
    Number of Cartesian functions: 1294
    Spherical Harmonics?: true
    Max angular momentum: 2

   => Loading Basis Set <=

    Name: (JUN-CC-PVDZ AUX)
    Role: JKFIT
    Keyword: DF_BASIS_SCF
    atoms 1-2, 4-5, 10, 17-70 entry C          line   146 file /opt/software/pc2/EB-SW/software/PSI4/1.9-foss-2022a/share/psi4/basis/jun-cc-pvdz-jkfit.gbs 
    atoms 3, 6                entry N          line   202 file /opt/software/pc2/EB-SW/software/PSI4/1.9-foss-2022a/share/psi4/basis/jun-cc-pvdz-jkfit.gbs 
    atoms 7-9, 11-16, 71-88   entry H          line    70 file /opt/software/pc2/EB-SW/software/PSI4/1.9-foss-2022a/share/psi4/basis/jun-cc-pvdz-jkfit.gbs 

  ==> Integral Setup <==

  ==> DiskDFJK: Density-Fitted J/K Matrices <==

    J tasked:                  Yes
    K tasked:                  Yes
    wK tasked:                  No
    OpenMP threads:             16
    Integrals threads:          16
    Memory [MiB]:            34332
    Algorithm:                Core
    Integral Cache:           SAVE
    Schwarz Cutoff:          1E-12
    Fitting Condition:       1E-10

   => Auxiliary Basis Set <=

  Basis Set: (JUN-CC-PVDZ AUX)
    Blend: JUN-CC-PVDZ-JKFIT
    Number of shells: 1890
    Number of basis functions: 5440
    Number of Cartesian functions: 6226
    Spherical Harmonics?: true
    Max angular momentum: 3

  Minimum eigenvalue in the overlap matrix is 7.5317631920E-10.
  Reciprocal condition number of the overlap matrix is 3.2132868985E-11.
    Using canonical orthogonalization.
  Overall, 14 of 1233 possible MOs eliminated.


  ==> Pre-Iterations <==

  SCF Guess: Superposition of Atomic Densities via on-the-fly atomic UHF (no occupation information).

   -------------------------
    Irrep   Nso     Nmo    
   -------------------------
     A       1233    1219 
   -------------------------
    Total    1233    1219
   -------------------------

  ==> Iterations <==

                           Total Energy        Delta E     RMS |[F,P]|

   @DF-RHF iter SAD: -2365.54539055826626   -2.36555e+03   0.00000e+00 
   @DF-RHF iter   1: -2358.21484249751757    7.33055e+00   9.43768e-04 ADIIS/DIIS
   @DF-RHF iter   2: -2359.10834652698122   -8.93504e-01   3.19393e-04 ADIIS/DIIS
   @DF-RHF iter   3: -2359.19727771186990   -8.89312e-02   1.19132e-04 ADIIS/DIIS
   @DF-RHF iter   4: -2359.21034803544808   -1.30703e-02   4.42836e-05 DIIS
   @DF-RHF iter   5: -2359.21222130500200   -1.87327e-03   9.81803e-06 DIIS
   @DF-RHF iter   6: -2359.21239813252487   -1.76828e-04   5.15390e-06 DIIS
   @DF-RHF iter   7: -2359.21246635046464   -6.82179e-05   2.28046e-06 DIIS
   @DF-RHF iter   8: -2359.21248724678162   -2.08963e-05   1.13029e-06 DIIS
   @DF-RHF iter   9: -2359.21249217115337   -4.92437e-06   2.88398e-07 DIIS
   @DF-RHF iter  10: -2359.21249242044360   -2.49290e-07   1.08366e-07 DIIS
   @DF-RHF iter  11: -2359.21249244351975   -2.30762e-08   5.06049e-08 DIIS
   @DF-RHF iter  12: -2359.21249244978253   -6.26278e-09   2.70624e-08 DIIS
   @DF-RHF iter  13: -2359.21249245216404   -2.38151e-09   1.30087e-08 DIIS
   @DF-RHF iter  14: -2359.21249245310264   -9.38599e-10   8.59702e-09 DIIS
  Energy and wave function converged.


  ==> Post-Iterations <==

    Orbital Energies [Eh]
    ---------------------

    Doubly Occupied:                                                      

       1A    -15.803870     2A    -15.803421     3A    -11.496727  
       4A    -11.432872     5A    -11.431315     6A    -11.418837  
       7A    -11.418719     8A    -11.344512     9A    -11.343316  
      10A    -11.342917    11A    -11.341842    12A    -11.341040  
      13A    -11.340713    14A    -11.340477    15A    -11.340385  
      16A    -11.339190    17A    -11.338698    18A    -11.338536  
      19A    -11.337499    20A    -11.337362    21A    -11.336208  
      22A    -11.336181    23A    -11.336074    24A    -11.335996  
      25A    -11.335688    26A    -11.335597    27A    -11.335448  
      28A    -11.335420    29A    -11.334758    30A    -11.334705  
      31A    -11.333432    32A    -11.333387    33A    -11.333152  
      34A    -11.331579    35A    -11.331545    36A    -11.331310  
      37A    -11.331299    38A    -11.330194    39A    -11.330086  
      40A    -11.329806    41A    -11.329751    42A    -11.328628  
      43A    -11.328499    44A    -11.328425    45A    -11.327723  
      46A    -11.327650    47A    -11.326640    48A    -11.326596  
      49A    -11.325198    50A    -11.325154    51A    -11.323898  
      52A    -11.323865    53A    -11.323625    54A    -11.323613  
      55A    -11.322190    56A    -11.322163    57A    -11.321570  
      58A    -11.319605    59A    -11.319583    60A    -11.318121  
      61A    -11.318100    62A     -1.548065    63A     -1.403508  
      64A     -1.324396    65A     -1.297626    66A     -1.296963  
      67A     -1.265533    68A     -1.265515    69A     -1.259101  
      70A     -1.232062    71A     -1.224605    72A     -1.213052  
      73A     -1.212785    74A     -1.209402    75A     -1.187510  
      76A     -1.187481    77A     -1.159216    78A     -1.159012  
      79A     -1.158626    80A     -1.155353    81A     -1.139909  
      82A     -1.139849    83A     -1.114339    84A     -1.101841  
      85A     -1.099706    86A     -1.099442    87A     -1.091706  
      88A     -1.088716    89A     -1.086331    90A     -1.063038  
      91A     -1.062899    92A     -1.036231    93A     -1.036172  
      94A     -0.993317    95A     -0.969697    96A     -0.969564  
      97A     -0.966383    98A     -0.965713    99A     -0.963161  
     100A     -0.962988   101A     -0.957327   102A     -0.957079  
     103A     -0.936162   104A     -0.909933   105A     -0.893315  
     106A     -0.893276   107A     -0.888009   108A     -0.887688  
     109A     -0.886920   110A     -0.868266   111A     -0.868233  
     112A     -0.823335   113A     -0.821115   114A     -0.820572  
     115A     -0.809831   116A     -0.809615   117A     -0.805926  
     118A     -0.805710   119A     -0.791687   120A     -0.787784  
     121A     -0.781564   122A     -0.773568   123A     -0.773235  
     124A     -0.768754   125A     -0.768453   126A     -0.760952  
     127A     -0.756554   128A     -0.754057   129A     -0.734882  
     130A     -0.728801   131A     -0.727489   132A     -0.723607  
     133A     -0.723551   134A     -0.713385   135A     -0.713371  
     136A     -0.705043   137A     -0.702903   138A     -0.702890  
     139A     -0.701908   140A     -0.695816   141A     -0.687717  
     142A     -0.685121   143A     -0.677314   144A     -0.676648  
     145A     -0.674066   146A     -0.673845   147A     -0.669388  
     148A     -0.667273   149A     -0.667238   150A     -0.657475  
     151A     -0.654498   152A     -0.653822   153A     -0.642000  
     154A     -0.641671   155A     -0.640131   156A     -0.640029  
     157A     -0.634396   158A     -0.628066   159A     -0.627967  
     160A     -0.614408   161A     -0.614283   162A     -0.612222  
     163A     -0.611791   164A     -0.607234   165A     -0.603724  
     166A     -0.597167   167A     -0.597004   168A     -0.573682  
     169A     -0.569937   170A     -0.567064   171A     -0.566874  
     172A     -0.563323   173A     -0.560342   174A     -0.556419  
     175A     -0.556152   176A     -0.548721   177A     -0.548262  
     178A     -0.527564   179A     -0.527285   180A     -0.512971  
     181A     -0.512901   182A     -0.495971   183A     -0.481954  
     184A     -0.481798   185A     -0.480753   186A     -0.448661  
     187A     -0.448650   188A     -0.424321   189A     -0.417377  
     190A     -0.416587   191A     -0.416359   192A     -0.385248  
     193A     -0.370387   194A     -0.361797   195A     -0.361575  
     196A     -0.300025   197A     -0.299875  

    Virtual:                                                              

     198A     -0.061276   199A     -0.061268   200A     -0.040948  
     201A     -0.038072   202A     -0.034510   203A     -0.020945  
     204A     -0.013886   205A     -0.013608   206A     -0.012727  
     207A     -0.012277   208A     -0.010442   209A     -0.007994  
     210A     -0.003636   211A     -0.002849   212A      0.001751  
     213A      0.003855   214A      0.005674   215A      0.007674  
     216A      0.009833   217A      0.010291   218A      0.011507  
     219A      0.012752   220A      0.016019   221A      0.016379  
     222A      0.016945   223A      0.019146   224A      0.019317  
     225A      0.021802   226A      0.023445   227A      0.027278  
     228A      0.027861   229A      0.031798   230A      0.034269  
     231A      0.035077   232A      0.035122   233A      0.037601  
     234A      0.043030   235A      0.045404   236A      0.046391  
     237A      0.046997   238A      0.049670   239A      0.052150  
     240A      0.052836   241A      0.055533   242A      0.056157  
     243A      0.061319   244A      0.061472   245A      0.064802  
     246A      0.064981   247A      0.067750   248A      0.069537  
     249A      0.073308   250A      0.074387   251A      0.075901  
     252A      0.077249   253A      0.077650   254A      0.078888  
     255A      0.083650   256A      0.085665   257A      0.086991  
     258A      0.088931   259A      0.091905   260A      0.095218  
     261A      0.096626   262A      0.098044   263A      0.099518  
     264A      0.100390   265A      0.102110   266A      0.102383  
     267A      0.108170   268A      0.110232   269A      0.110565  
     270A      0.111551   271A      0.112289   272A      0.114134  
     273A      0.116451   274A      0.116946   275A      0.118637  
     276A      0.120056   277A      0.122330   278A      0.123613  
     279A      0.123837   280A      0.128456   281A      0.129179  
     282A      0.132019   283A      0.135738   284A      0.139339  
     285A      0.139939   286A      0.141542   287A      0.145599  
     288A      0.146685   289A      0.147248   290A      0.149616  
     291A      0.150855   292A      0.151157   293A      0.151477  
     294A      0.152131   295A      0.152700   296A      0.153086  
     297A      0.156311   298A      0.156394   299A      0.158244  
     300A      0.161558   301A      0.162821   302A      0.163635  
     303A      0.164330   304A      0.166665   305A      0.168127  
     306A      0.169753   307A      0.171179   308A      0.171546  
     309A      0.171929   310A      0.174574   311A      0.175568  
     312A      0.179091   313A      0.180365   314A      0.181930  
     315A      0.182324   316A      0.183237   317A      0.189500  
     318A      0.189542   319A      0.190093   320A      0.191403  
     321A      0.191736   322A      0.193221   323A      0.193889  
     324A      0.195681   325A      0.198309   326A      0.199340  
     327A      0.199421   328A      0.202900   329A      0.202982  
     330A      0.205511   331A      0.206489   332A      0.207985  
     333A      0.208360   334A      0.211492   335A      0.211938  
     336A      0.214136   337A      0.214853   338A      0.215740  
     339A      0.217351   340A      0.224109   341A      0.226654  
     342A      0.228054   343A      0.231103   344A      0.233170  
     345A      0.234100   346A      0.235706   347A      0.237328  
     348A      0.239060   349A      0.240106   350A      0.240425  
     351A      0.241758   352A      0.242519   353A      0.242599  
     354A      0.244295   355A      0.245740   356A      0.245971  
     357A      0.247619   358A      0.248470   359A      0.249085  
     360A      0.249492   361A      0.250750   362A      0.252775  
     363A      0.253020   364A      0.254960   365A      0.255673  
     366A      0.257145   367A      0.261972   368A      0.263679  
     369A      0.265010   370A      0.265820   371A      0.267682  
     372A      0.269224   373A      0.271108   374A      0.272107  
     375A      0.272469   376A      0.274525   377A      0.277271  
     378A      0.279199   379A      0.280692   380A      0.282725  
     381A      0.283925   382A      0.285633   383A      0.287085  
     384A      0.287556   385A      0.289284   386A      0.290217  
     387A      0.292181   388A      0.294961   389A      0.296322  
     390A      0.298914   391A      0.300042   392A      0.300823  
     393A      0.302495   394A      0.303231   395A      0.305124  
     396A      0.306819   397A      0.307465   398A      0.308134  
     399A      0.310579   400A      0.314759   401A      0.315427  
     402A      0.317254   403A      0.320088   404A      0.320543  
     405A      0.320935   406A      0.322742   407A      0.323850  
     408A      0.325200   409A      0.329204   410A      0.329643  
     411A      0.330650   412A      0.331185   413A      0.332737  
     414A      0.334230   415A      0.336303   416A      0.336867  
     417A      0.337853   418A      0.339335   419A      0.339672  
     420A      0.340425   421A      0.341192   422A      0.342032  
     423A      0.343266   424A      0.345270   425A      0.345836  
     426A      0.346965   427A      0.347486   428A      0.348931  
     429A      0.352658   430A      0.353069   431A      0.354591  
     432A      0.358006   433A      0.360058   434A      0.362816  
     435A      0.364280   436A      0.366743   437A      0.371186  
     438A      0.372514   439A      0.372706   440A      0.374703  
     441A      0.375451   442A      0.376840   443A      0.377252  
     444A      0.382928   445A      0.383391   446A      0.384199  
     447A      0.386412   448A      0.386972   449A      0.388887  
     450A      0.389604   451A      0.390796   452A      0.393306  
     453A      0.395166   454A      0.396087   455A      0.400393  
     456A      0.400936   457A      0.403240   458A      0.403883  
     459A      0.406343   460A      0.409319   461A      0.410749  
     462A      0.412752   463A      0.414857   464A      0.415537  
     465A      0.419612   466A      0.422440   467A      0.423641  
     468A      0.425038   469A      0.426925   470A      0.427782  
     471A      0.429131   472A      0.431111   473A      0.432853  
     474A      0.435283   475A      0.437325   476A      0.438812  
     477A      0.440077   478A      0.442103   479A      0.447698  
     480A      0.448517   481A      0.449397   482A      0.451033  
     483A      0.454346   484A      0.456111   485A      0.458021  
     486A      0.465176   487A      0.465441   488A      0.469055  
     489A      0.471560   490A      0.474246   491A      0.475936  
     492A      0.477399   493A      0.478110   494A      0.480158  
     495A      0.483199   496A      0.483594   497A      0.483894  
     498A      0.485505   499A      0.485841   500A      0.486757  
     501A      0.488802   502A      0.490968   503A      0.492268  
     504A      0.497448   505A      0.501637   506A      0.502393  
     507A      0.515950   508A      0.518326   509A      0.520799  
     510A      0.521549   511A      0.523780   512A      0.525322  
     513A      0.530599   514A      0.532561   515A      0.543720  
     516A      0.546247   517A      0.547773   518A      0.551075  
     519A      0.554213   520A      0.554767   521A      0.559746  
     522A      0.563769   523A      0.567805   524A      0.577584  
     525A      0.582180   526A      0.587281   527A      0.595500  
     528A      0.596217   529A      0.596644   530A      0.603659  
     531A      0.603891   532A      0.611497   533A      0.642438  
     534A      0.642510   535A      0.656836   536A      0.667284  
     537A      0.669342   538A      0.670159   539A      0.671815  
     540A      0.672263   541A      0.682792   542A      0.684058  
     543A      0.686580   544A      0.689726   545A      0.693443  
     546A      0.702258   547A      0.714491   548A      0.721004  
     549A      0.721946   550A      0.727060   551A      0.729362  
     552A      0.732926   553A      0.735863   554A      0.739152  
     555A      0.741802   556A      0.746229   557A      0.749037  
     558A      0.751428   559A      0.755010   560A      0.756343  
     561A      0.757692   562A      0.761207   563A      0.762140  
     564A      0.769241   565A      0.771086   566A      0.775938  
     567A      0.778425   568A      0.782558   569A      0.785827  
     570A      0.787746   571A      0.788693   572A      0.791395  
     573A      0.792310   574A      0.798327   575A      0.802324  
     576A      0.804210   577A      0.806175   578A      0.810926  
     579A      0.813044   580A      0.814672   581A      0.818599  
     582A      0.819721   583A      0.821596   584A      0.823843  
     585A      0.827097   586A      0.827939   587A      0.829836  
     588A      0.831008   589A      0.832987   590A      0.836321  
     591A      0.839560   592A      0.840943   593A      0.843255  
     594A      0.843530   595A      0.844074   596A      0.846182  
     597A      0.847593   598A      0.852339   599A      0.853632  
     600A      0.854324   601A      0.857684   602A      0.858786  
     603A      0.862640   604A      0.864462   605A      0.865959  
     606A      0.869674   607A      0.870639   608A      0.875502  
     609A      0.876217   610A      0.881229   611A      0.882828  
     612A      0.886902   613A      0.889724   614A      0.890914  
     615A      0.892030   616A      0.894736   617A      0.899183  
     618A      0.901083   619A      0.901980   620A      0.903779  
     621A      0.904908   622A      0.905821   623A      0.909396  
     624A      0.911639   625A      0.913221   626A      0.915467  
     627A      0.916167   628A      0.920150   629A      0.922602  
     630A      0.925703   631A      0.928332   632A      0.932047  
     633A      0.936775   634A      0.939509   635A      0.943107  
     636A      0.945640   637A      0.948022   638A      0.949596  
     639A      0.950211   640A      0.951626   641A      0.952385  
     642A      0.955388   643A      0.960731   644A      0.961831  
     645A      0.963445   646A      0.965569   647A      0.967928  
     648A      0.969104   649A      0.970781   650A      0.972443  
     651A      0.974500   652A      0.975218   653A      0.975679  
     654A      0.977396   655A      0.979978   656A      0.982407  
     657A      0.984918   658A      0.985878   659A      0.989183  
     660A      0.989923   661A      0.994558   662A      0.995205  
     663A      0.996951   664A      1.001898   665A      1.002839  
     666A      1.003869   667A      1.005142   668A      1.009223  
     669A      1.009702   670A      1.011911   671A      1.013935  
     672A      1.016030   673A      1.016326   674A      1.020452  
     675A      1.025440   676A      1.027144   677A      1.028841  
     678A      1.031867   679A      1.032687   680A      1.033813  
     681A      1.036496   682A      1.037689   683A      1.039727  
     684A      1.040054   685A      1.043592   686A      1.046974  
     687A      1.048333   688A      1.051784   689A      1.054206  
     690A      1.055937   691A      1.058115   692A      1.059584  
     693A      1.061823   694A      1.065104   695A      1.067268  
     696A      1.067973   697A      1.070237   698A      1.073340  
     699A      1.074171   700A      1.080003   701A      1.081270  
     702A      1.082993   703A      1.086695   704A      1.091745  
     705A      1.096034   706A      1.098975   707A      1.100074  
     708A      1.103486   709A      1.106624   710A      1.107784  
     711A      1.109322   712A      1.111687   713A      1.120832  
     714A      1.124153   715A      1.127560   716A      1.132964  
     717A      1.133525   718A      1.139908   719A      1.142185  
     720A      1.143647   721A      1.148237   722A      1.150394  
     723A      1.151724   724A      1.155201   725A      1.160492  
     726A      1.162560   727A      1.165798   728A      1.169987  
     729A      1.171960   730A      1.177839   731A      1.180695  
     732A      1.185389   733A      1.187378   734A      1.189586  
     735A      1.190369   736A      1.191355   737A      1.193553  
     738A      1.195930   739A      1.196533   740A      1.197254  
     741A      1.199791   742A      1.202531   743A      1.206549  
     744A      1.210771   745A      1.212920   746A      1.222982  
     747A      1.224005   748A      1.225020   749A      1.226561  
     750A      1.227150   751A      1.238434   752A      1.241231  
     753A      1.245061   754A      1.246140   755A      1.250132  
     756A      1.251668   757A      1.254858   758A      1.255707  
     759A      1.256920   760A      1.258712   761A      1.259189  
     762A      1.264479   763A      1.271279   764A      1.273722  
     765A      1.276655   766A      1.278174   767A      1.278492  
     768A      1.282608   769A      1.285776   770A      1.288483  
     771A      1.290416   772A      1.293131   773A      1.301115  
     774A      1.304820   775A      1.311508   776A      1.312613  
     777A      1.315515   778A      1.319429   779A      1.331755  
     780A      1.335283   781A      1.337110   782A      1.337834  
     783A      1.340468   784A      1.344619   785A      1.346009  
     786A      1.346714   787A      1.352811   788A      1.354395  
     789A      1.360548   790A      1.362226   791A      1.365137  
     792A      1.367046   793A      1.368840   794A      1.371757  
     795A      1.372313   796A      1.373333   797A      1.377376  
     798A      1.379695   799A      1.380943   800A      1.385573  
     801A      1.394068   802A      1.401762   803A      1.403257  
     804A      1.408181   805A      1.418724   806A      1.424020  
     807A      1.444644   808A      1.445338   809A      1.446004  
     810A      1.446848   811A      1.461479   812A      1.475480  
     813A      1.475602   814A      1.492482   815A      1.501944  
     816A      1.505411   817A      1.511129   818A      1.519865  
     819A      1.525032   820A      1.527078   821A      1.527833  
     822A      1.533707   823A      1.535993   824A      1.537912  
     825A      1.539267   826A      1.546019   827A      1.547913  
     828A      1.552092   829A      1.553836   830A      1.561204  
     831A      1.561584   832A      1.566053   833A      1.568185  
     834A      1.568643   835A      1.570349   836A      1.572097  
     837A      1.573605   838A      1.584735   839A      1.586942  
     840A      1.586977   841A      1.590303   842A      1.594309  
     843A      1.595867   844A      1.598029   845A      1.600182  
     846A      1.602213   847A      1.604651   848A      1.606754  
     849A      1.610427   850A      1.612738   851A      1.613704  
     852A      1.621579   853A      1.623676   854A      1.623873  
     855A      1.626018   856A      1.626193   857A      1.626431  
     858A      1.629002   859A      1.632975   860A      1.643896  
     861A      1.646996   862A      1.653320   863A      1.665395  
     864A      1.666618   865A      1.674169   866A      1.676706  
     867A      1.687845   868A      1.688106   869A      1.690965  
     870A      1.693378   871A      1.703917   872A      1.705829  
     873A      1.710558   874A      1.718709   875A      1.719014  
     876A      1.727945   877A      1.742914   878A      1.746535  
     879A      1.747471   880A      1.747529   881A      1.748849  
     882A      1.749171   883A      1.756032   884A      1.763441  
     885A      1.764900   886A      1.765639   887A      1.767177  
     888A      1.768359   889A      1.780464   890A      1.783608  
     891A      1.790122   892A      1.791418   893A      1.791813  
     894A      1.794184   895A      1.797043   896A      1.798408  
     897A      1.803869   898A      1.804297   899A      1.812221  
     900A      1.820677   901A      1.821668   902A      1.823843  
     903A      1.829410   904A      1.831096   905A      1.832464  
     906A      1.834178   907A      1.834993   908A      1.837696  
     909A      1.839194   910A      1.842287   911A      1.843304  
     912A      1.844699   913A      1.846067   914A      1.847791  
     915A      1.849577   916A      1.851618   917A      1.859136  
     918A      1.869308   919A      1.870031   920A      1.872290  
     921A      1.874427   922A      1.875295   923A      1.877505  
     924A      1.879631   925A      1.880791   926A      1.882641  
     927A      1.883840   928A      1.884072   929A      1.886447  
     930A      1.890118   931A      1.891805   932A      1.903488  
     933A      1.908135   934A      1.910764   935A      1.916364  
     936A      1.920895   937A      1.923162   938A      1.925852  
     939A      1.929384   940A      1.931066   941A      1.937690  
     942A      1.939438   943A      1.942045   944A      1.942747  
     945A      1.950134   946A      1.954306   947A      1.957735  
     948A      1.958670   949A      1.958988   950A      1.961372  
     951A      1.964811   952A      1.970703   953A      1.974332  
     954A      1.975727   955A      1.981026   956A      1.982649  
     957A      1.984704   958A      1.986236   959A      1.987248  
     960A      1.996030   961A      1.997189   962A      1.997861  
     963A      1.998363   964A      2.001270   965A      2.003127  
     966A      2.007638   967A      2.009647   968A      2.014025  
     969A      2.016013   970A      2.020606   971A      2.023319  
     972A      2.023764   973A      2.025809   974A      2.026117  
     975A      2.028724   976A      2.030421   977A      2.033375  
     978A      2.036523   979A      2.036689   980A      2.038071  
     981A      2.041377   982A      2.043054   983A      2.044739  
     984A      2.045277   985A      2.048024   986A      2.049008  
     987A      2.051122   988A      2.053059   989A      2.056141  
     990A      2.057769   991A      2.062286   992A      2.064168  
     993A      2.064732   994A      2.067153   995A      2.069931  
     996A      2.071219   997A      2.075066   998A      2.083726  
     999A      2.084410  1000A      2.085181  1001A      2.088760  
    1002A      2.091151  1003A      2.098091  1004A      2.100718  
    1005A      2.107876  1006A      2.109263  1007A      2.113368  
    1008A      2.116197  1009A      2.118702  1010A      2.119645  
    1011A      2.120523  1012A      2.121551  1013A      2.124738  
    1014A      2.138391  1015A      2.140436  1016A      2.143644  
    1017A      2.145067  1018A      2.149182  1019A      2.150248  
    1020A      2.158238  1021A      2.160988  1022A      2.161466  
    1023A      2.171794  1024A      2.172754  1025A      2.175643  
    1026A      2.175841  1027A      2.178069  1028A      2.187382  
    1029A      2.190238  1030A      2.191613  1031A      2.197016  
    1032A      2.197646  1033A      2.199470  1034A      2.201073  
    1035A      2.209417  1036A      2.211068  1037A      2.221078  
    1038A      2.228485  1039A      2.233312  1040A      2.237002  
    1041A      2.239283  1042A      2.241181  1043A      2.244141  
    1044A      2.247575  1045A      2.251875  1046A      2.253070  
    1047A      2.254275  1048A      2.259282  1049A      2.265100  
    1050A      2.276154  1051A      2.278224  1052A      2.278763  
    1053A      2.280268  1054A      2.281977  1055A      2.293390  
    1056A      2.293852  1057A      2.298686  1058A      2.308378  
    1059A      2.322891  1060A      2.343875  1061A      2.348941  
    1062A      2.350010  1063A      2.350096  1064A      2.351654  
    1065A      2.363261  1066A      2.367076  1067A      2.367565  
    1068A      2.392684  1069A      2.395112  1070A      2.400926  
    1071A      2.403147  1072A      2.403569  1073A      2.414223  
    1074A      2.416340  1075A      2.428142  1076A      2.447523  
    1077A      2.455856  1078A      2.458731  1079A      2.472589  
    1080A      2.474360  1081A      2.477066  1082A      2.477278  
    1083A      2.483911  1084A      2.484483  1085A      2.486131  
    1086A      2.486248  1087A      2.497954  1088A      2.498223  
    1089A      2.502256  1090A      2.505341  1091A      2.505698  
    1092A      2.507464  1093A      2.513613  1094A      2.514062  
    1095A      2.515057  1096A      2.521334  1097A      2.533650  
    1098A      2.539869  1099A      2.543984  1100A      2.552500  
    1101A      2.552639  1102A      2.554410  1103A      2.559683  
    1104A      2.561429  1105A      2.570854  1106A      2.571379  
    1107A      2.580769  1108A      2.582231  1109A      2.585024  
    1110A      2.610167  1111A      2.611190  1112A      2.613124  
    1113A      2.618793  1114A      2.625178  1115A      2.625817  
    1116A      2.633679  1117A      2.636982  1118A      2.637286  
    1119A      2.643361  1120A      2.643404  1121A      2.649410  
    1122A      2.650065  1123A      2.664898  1124A      2.668578  
    1125A      2.682852  1126A      2.684657  1127A      2.702603  
    1128A      2.710942  1129A      2.716675  1130A      2.719504  
    1131A      2.722429  1132A      2.744405  1133A      2.745327  
    1134A      2.752342  1135A      2.753991  1136A      2.772154  
    1137A      2.777666  1138A      2.778237  1139A      2.779534  
    1140A      2.780099  1141A      2.781689  1142A      2.786051  
    1143A      2.787346  1144A      2.789138  1145A      2.798362  
    1146A      2.810481  1147A      2.826675  1148A      2.848757  
    1149A      2.849007  1150A      2.854011  1151A      2.863112  
    1152A      2.865832  1153A      2.878817  1154A      2.879637  
    1155A      2.891468  1156A      2.892196  1157A      2.939988  
    1158A      2.941153  1159A      2.942936  1160A      2.957711  
    1161A      2.959488  1162A      2.987447  1163A      2.988067  
    1164A      2.997599  1165A      2.998264  1166A      3.031719  
    1167A      3.038412  1168A      3.046263  1169A      3.058375  
    1170A      3.059224  1171A      3.060156  1172A      3.065459  
    1173A      3.072847  1174A      3.074240  1175A      3.076566  
    1176A      3.077668  1177A      3.079517  1178A      3.089384  
    1179A      3.090236  1180A      3.093343  1181A      3.096108  
    1182A      3.096741  1183A      3.114918  1184A      3.120395  
    1185A      3.140131  1186A      3.146488  1187A      3.167774  
    1188A      3.201202  1189A      3.204732  1190A      3.205605  
    1191A      3.214317  1192A      3.218100  1193A      3.342752  
    1194A      3.343837  1195A      3.382728  1196A      3.410580  
    1197A      3.412502  1198A      3.470276  1199A      3.485006  
    1200A      3.508219  1201A      3.524348  1202A      3.538886  
    1203A      3.555570  1204A      3.557933  1205A      3.575599  
    1206A      3.589682  1207A      3.604007  1208A      3.696843  
    1209A      3.712012  1210A      3.718810  1211A      3.797768  
    1212A      3.797889  1213A      3.839978  1214A      3.840441  
    1215A      3.900519  1216A      3.934354  1217A      3.978528  
    1218A      3.986145  1219A      4.042143  

    Final Occupation by Irrep:
              A 
    DOCC [   197 ]
    NA   [   197 ]
    NB   [   197 ]

  @DF-RHF Final Energy: -2359.21249245310264

   => Energetics <=

    Nuclear Repulsion Energy =           8207.3667889172538707
    One-Electron Energy =              -19515.1637414818542311
    Two-Electron Energy =                8948.5844601114986290
    Total Energy =                      -2359.2124924531017314

Computation Completed


Properties will be evaluated at   0.000000,   0.000000,   0.000000 [a0]

Properties computed using the SCF density matrix


 Multipole Moments:

 ------------------------------------------------------------------------------------
     Multipole            Electronic (a.u.)      Nuclear  (a.u.)        Total (a.u.)
 ------------------------------------------------------------------------------------

 L = 1.  Multiply by 2.5417464519 to convert [e a0] to [Debye]
 Dipole X            :         -0.0022543            0.0006313           -0.0016230
 Dipole Y            :         -5.9984207            7.4856329            1.4872122
 Dipole Z            :         16.8063789          -22.6127977           -5.8064188
 Magnitude           :                                                    5.9938554

 ------------------------------------------------------------------------------------

*** tstop() called on n2cn0541 at Sat Feb 10 13:22:05 2024
Module time:
	user time   =    6167.82 seconds =     102.80 minutes
	system time =     223.79 seconds =       3.73 minutes
	total time  =        493 seconds =       8.22 minutes
Total time:
	user time   =    6167.82 seconds =     102.80 minutes
	system time =     223.79 seconds =       3.73 minutes
	total time  =        493 seconds =       8.22 minutes

  //>>>>>>>>>>>>>>>>>>>>>>>>>>>>>>>>>>>//
  //            Monomer A HF           //
  //<<<<<<<<<<<<<<<<<<<<<<<<<<<<<<<<<<<//

   => Libint2 <=

    Primary   basis highest AM E, G, H:  5, 4, 3
    Auxiliary basis highest AM E, G, H:  6, 5, 4
    Onebody   basis highest AM E, G, H:  6, 5, 4
    Solid Harmonics ordering:            gaussian

*** tstart() called on n2cn0541
*** at Sat Feb 10 13:22:05 2024

   => Loading Basis Set <=

    Name: JUN-CC-PVDZ
    Role: ORBITAL
    Keyword: BASIS
    atoms 1-2, 4-5, 10, 17-70 entry C          line   164 file /opt/software/pc2/EB-SW/software/PSI4/1.9-foss-2022a/share/psi4/basis/jun-cc-pvdz.gbs 
    atoms 3, 6                entry N          line   198 file /opt/software/pc2/EB-SW/software/PSI4/1.9-foss-2022a/share/psi4/basis/jun-cc-pvdz.gbs 
    atoms 7-9, 11-16, 71-88   entry H          line    36 file /opt/software/pc2/EB-SW/software/PSI4/1.9-foss-2022a/share/psi4/basis/jun-cc-pvdz.gbs 


         ---------------------------------------------------------
                                   SCF
               by Justin Turney, Rob Parrish, Andy Simmonett
                          and Daniel G. A. Smith
                              RHF Reference
                       16 Threads,  45776 MiB Core
         ---------------------------------------------------------

  ==> Geometry <==

    Molecular point group: c1
    Full point group: C1

    Geometry (in Angstrom), charge = 1, multiplicity = 1:

       Center              X                  Y                   Z               Mass       
    ------------   -----------------  -----------------  -----------------  -----------------
         C            0.680066520158     1.235968212970    -5.318120107941    12.000000000000
         C           -0.680504479842     1.237996212970    -5.317736107941    12.000000000000
         N           -1.085635479842     1.238994212970    -3.999412107941    14.003074004430
         C            0.000107520158     1.242270212970    -3.218011107941    12.000000000000
         C           -2.477365479842     1.288400212970    -3.531433107941    12.000000000000
         N            1.085221520158     1.238994212970    -3.999412107941    14.003074004430
         H            1.385145520158     1.228140212970    -6.135559107941     1.007825032230
         H           -1.385302479842     1.237806212970    -6.135405107941     1.007825032230
         H           -0.000009479842     1.244017212970    -2.136922107941     1.007825032230
         C            2.478116520158     1.222102212970    -3.534314107941    12.000000000000
         H            2.490591520158     1.249447212970    -2.444061107941     1.007825032230
         H            2.967027520158     0.308656212970    -3.881490107941     1.007825032230
         H            3.001427520158     2.097585212970    -3.925786107941     1.007825032230
         H           -2.857359479842     2.310471212970    -3.611392107941     1.007825032230
         H           -3.082679479842     0.618316212970    -4.144497107941     1.007825032230
         H           -2.518128479842     0.961416212970    -2.491485107941     1.007825032230
      Gh(C)           1.225311895423     0.526248873889     0.603946519343    12.000000000000
      Gh(C)           1.225323856051    -0.888828309601     0.591615709773    12.000000000000
      Gh(C)          -0.000006153932     1.233676499060     0.591082086252    12.000000000000
      Gh(C)           2.456448753949     1.237038472148     0.606833376743    12.000000000000
      Gh(C)           0.000010827279    -1.596265913665     0.601281643576    12.000000000000
      Gh(C)          -1.225300948908     0.526255958954     0.606198039665    12.000000000000
      Gh(C)           2.456437755320    -1.599612718911     0.589370552916    12.000000000000
      Gh(C)          -0.000001332978     2.655511616251     0.588678536118    12.000000000000
      Gh(C)           3.681826697470     0.528028540971     0.589719342714    12.000000000000
      Gh(C)           2.455120048865     2.652934246459     0.589616785753    12.000000000000
      Gh(C)           3.681821105219    -0.890623254459     0.605791826732    12.000000000000
      Gh(C)          -1.225313598688    -0.888816930574     0.592688471200    12.000000000000
      Gh(C)           1.226699581202     3.362180068964     0.605975858663    12.000000000000
      Gh(C)           0.000004784858    -3.018071554266     0.606129811198    12.000000000000
      Gh(C)          -2.456436032848     1.237027503255     0.606233435511    12.000000000000
      Gh(C)           2.455123417779    -3.015519443619     0.605639918364    12.000000000000
      Gh(C)          -1.226714364589     3.362179648720     0.606079191882    12.000000000000
      Gh(C)           4.914517295202     1.245883457459     0.596200025743    12.000000000000
      Gh(C)           3.693150191476     3.361505877515     0.596249825379    12.000000000000
      Gh(C)          -2.456437600068    -1.599602695869     0.589345514791    12.000000000000
      Gh(C)           1.226704841943    -3.724763656937     0.590005727913    12.000000000000
      Gh(C)          -2.455125398508     2.652927247604     0.589623162099    12.000000000000
      Gh(C)           4.914524380782    -1.608476324974     0.599172768478    12.000000000000
      Gh(C)           1.221424613699     4.788844650230     0.599311202737    12.000000000000
      Gh(C)           4.893008229321     2.643898584996     0.597416694102    12.000000000000
      Gh(C)          -1.226697008489    -3.724760412107     0.590272932323    12.000000000000
      Gh(C)          -3.681818976526     0.528035551702     0.589732023194    12.000000000000
      Gh(C)           3.693147101150    -3.724090756421     0.599290659039    12.000000000000
      Gh(C)          -1.221432251994     4.788838882833     0.599494698110    12.000000000000
      Gh(C)           6.134770972926     0.499258532075     0.596969800293    12.000000000000
      Gh(C)           3.656788880610     4.791663828537     0.597158463162    12.000000000000
      Gh(C)          -2.455126907733    -3.015504508091     0.605395560566    12.000000000000
      Gh(C)          -3.681819179061    -0.890615118499     0.605909448311    12.000000000000
      Gh(C)           4.893012617914    -3.006489520662     0.598027845997    12.000000000000
      Gh(C)          -0.000001073113     5.469157951002     0.598263389403    12.000000000000
      Gh(C)           6.134775112332    -0.861844269105     0.598235120809    12.000000000000
      Gh(C)           2.478131482856     5.472287336301     0.598447242812    12.000000000000
      Gh(C)           1.221422404738    -5.151416469963     0.596511705715    12.000000000000
      Gh(C)          -3.693162383965     3.361507539162     0.596415332839    12.000000000000
      Gh(C)          -1.221428520945    -5.151407718626     0.596398943882    12.000000000000
      Gh(C)          -4.914521807942     1.245886031965     0.596276970751    12.000000000000
      Gh(C)           3.656787019679    -5.154244641269     0.598608963696    12.000000000000
      Gh(C)          -2.478138530106     5.472285007498     0.598731767820    12.000000000000
      Gh(C)          -3.693141738564    -3.724079634009     0.599174532883    12.000000000000
      Gh(C)          -4.914512483053    -1.608470415058     0.599207465651    12.000000000000
      Gh(C)          -0.000006008926    -5.831727702044     0.597867885282    12.000000000000
      Gh(C)          -4.893020484101     2.643899183889     0.597406612242    12.000000000000
      Gh(C)           2.478125993298    -5.834862958919     0.597518362904    12.000000000000
      Gh(C)          -3.656798710258     4.791666767011     0.597335143536    12.000000000000
      Gh(C)          -4.892999478856    -3.006481182090     0.597873810300    12.000000000000
      Gh(C)          -2.478128498083    -5.834855585037     0.597243175256    12.000000000000
      Gh(C)          -6.134770503331     0.499259351226     0.596944248591    12.000000000000
      Gh(C)          -3.656788833189    -5.154233438001     0.598394675879    12.000000000000
      Gh(C)          -6.134765042913    -0.861843330512     0.598214645014    12.000000000000
      Gh(H)           5.835288495816     3.187986479924     0.601776019765     1.007825032230
      Gh(H)           7.073859172747     1.046927833869     0.597431443686     1.007825032230
      Gh(H)           4.600663264174     5.331091387423     0.597663663914     1.007825032230
      Gh(H)           5.835283387305    -3.550595471759     0.593573378683     1.007825032230
      Gh(H)          -0.000012151306     6.557241259106     0.593914144395     1.007825032230
      Gh(H)           7.073861171831    -1.409516357774     0.597726382714     1.007825032230
      Gh(H)           2.473313731799     6.559394876364     0.597980521881     1.007825032230
      Gh(H)           4.600668491381    -5.693665544206     0.598198966528     1.007825032230
      Gh(H)          -2.473318680537     6.559392304576     0.598281868506     1.007825032230
      Gh(H)          -0.000010268228    -6.919817591482     0.602397570267     1.007825032230
      Gh(H)          -5.835301914343     3.187981535266     0.601912041913     1.007825032230
      Gh(H)           2.473307923831    -6.921974789459     0.598088693329     1.007825032230
      Gh(H)          -4.600674841208     5.331088611573     0.597828992238     1.007825032230
      Gh(H)          -5.835279506835    -3.550578378810     0.593294072802     1.007825032230
      Gh(H)          -2.473300347440    -6.921968493170     0.597639376784     1.007825032230
      Gh(H)          -7.073857766768     1.046931057810     0.597347452205     1.007825032230
      Gh(H)          -4.600673786085    -5.693652084817     0.598026658505     1.007825032230
      Gh(H)          -7.073856934409    -1.409510047007     0.597631526248     1.007825032230

  Running in c1 symmetry.

  Rotational constants: A =      0.00173  B =      0.00173  C =      0.00108 [cm^-1]
  Rotational constants: A =     51.99665  B =     51.92429  C =     32.23770 [MHz]
  Nuclear repulsion =  306.774908447733083

  Charge       = 1
  Multiplicity = 1
  Electrons    = 52
  Nalpha       = 26
  Nbeta        = 26

  ==> Algorithm <==

  SCF Algorithm Type is DF.
  DIIS enabled.
  MOM disabled.
  Fractional occupation disabled.
  Guess Type is SAD.
  Energy threshold   = 1.00e-08
  Density threshold  = 1.00e-08
  Integral threshold = 1.00e-12

  ==> Primary Basis <==

  Basis Set: JUN-CC-PVDZ
    Blend: JUN-CC-PVDZ
    Number of shells: 569
    Number of basis functions: 1233
    Number of Cartesian functions: 1294
    Spherical Harmonics?: true
    Max angular momentum: 2

   => Loading Basis Set <=

    Name: (JUN-CC-PVDZ AUX)
    Role: JKFIT
    Keyword: DF_BASIS_SCF
    atoms 1-2, 4-5, 10, 17-70 entry C          line   146 file /opt/software/pc2/EB-SW/software/PSI4/1.9-foss-2022a/share/psi4/basis/jun-cc-pvdz-jkfit.gbs 
    atoms 3, 6                entry N          line   202 file /opt/software/pc2/EB-SW/software/PSI4/1.9-foss-2022a/share/psi4/basis/jun-cc-pvdz-jkfit.gbs 
    atoms 7-9, 11-16, 71-88   entry H          line    70 file /opt/software/pc2/EB-SW/software/PSI4/1.9-foss-2022a/share/psi4/basis/jun-cc-pvdz-jkfit.gbs 

  ==> Integral Setup <==

  ==> DiskDFJK: Density-Fitted J/K Matrices <==

    J tasked:                  Yes
    K tasked:                  Yes
    wK tasked:                  No
    OpenMP threads:             16
    Integrals threads:          16
    Memory [MiB]:            34332
    Algorithm:                Core
    Integral Cache:           LOAD
    Schwarz Cutoff:          1E-12
    Fitting Condition:       1E-10

   => Auxiliary Basis Set <=

  Basis Set: (JUN-CC-PVDZ AUX)
    Blend: JUN-CC-PVDZ-JKFIT
    Number of shells: 1890
    Number of basis functions: 5440
    Number of Cartesian functions: 6226
    Spherical Harmonics?: true
    Max angular momentum: 3

  Minimum eigenvalue in the overlap matrix is 7.5317631920E-10.
  Reciprocal condition number of the overlap matrix is 3.2132868985E-11.
    Using canonical orthogonalization.
  Overall, 14 of 1233 possible MOs eliminated.


  ==> Pre-Iterations <==

  SCF Guess: Superposition of Atomic Densities via on-the-fly atomic UHF (no occupation information).

   -------------------------
    Irrep   Nso     Nmo    
   -------------------------
     A       1233    1219 
   -------------------------
    Total    1233    1219
   -------------------------

  ==> Iterations <==

                           Total Energy        Delta E     RMS |[F,P]|

   @DF-RHF iter SAD:  -303.36535871002189   -3.03365e+02   0.00000e+00 
   @DF-RHF iter   1:  -303.17000051128525    1.95358e-01   3.44596e-04 ADIIS/DIIS
   @DF-RHF iter   2:  -303.28441340259377   -1.14413e-01   1.16015e-04 ADIIS/DIIS
   @DF-RHF iter   3:  -303.29590748543217   -1.14941e-02   4.54536e-05 DIIS
   @DF-RHF iter   4:  -303.29782496900123   -1.91748e-03   9.94693e-06 DIIS
   @DF-RHF iter   5:  -303.29793222502826   -1.07256e-04   2.43138e-06 DIIS
   @DF-RHF iter   6:  -303.29794165367531   -9.42865e-06   6.56500e-07 DIIS
   @DF-RHF iter   7:  -303.29794273951165   -1.08584e-06   3.34553e-07 DIIS
   @DF-RHF iter   8:  -303.29794299710522   -2.57594e-07   1.34633e-07 DIIS
   @DF-RHF iter   9:  -303.29794304656423   -4.94590e-08   3.36909e-08 DIIS
   @DF-RHF iter  10:  -303.29794304938787   -2.82364e-09   1.25152e-08 DIIS
   @DF-RHF iter  11:  -303.29794304962979   -2.41926e-10   2.89559e-09 DIIS
  Energy and wave function converged.


  ==> Post-Iterations <==

    Orbital Energies [Eh]
    ---------------------

    Doubly Occupied:                                                      

       1A    -15.834551     2A    -15.834028     3A    -11.529341  
       4A    -11.459714     5A    -11.458159     6A    -11.449602  
       7A    -11.449500     8A     -1.577906     9A     -1.433520  
      10A     -1.238378    11A     -1.189097    12A     -1.118697  
      13A     -1.022252    14A     -0.996700    15A     -0.916819  
      16A     -0.850304    17A     -0.816022    18A     -0.812925  
      19A     -0.789880    20A     -0.786068    21A     -0.781518  
      22A     -0.729557    23A     -0.725646    24A     -0.717019  
      25A     -0.596054    26A     -0.523642  

    Virtual:                                                              

      27A     -0.079169    28A     -0.073119    29A     -0.061952  
      30A     -0.053930    31A     -0.041809    32A     -0.039372  
      33A     -0.039251    34A     -0.037905    35A     -0.036520  
      36A     -0.027397    37A     -0.026820    38A     -0.019031  
      39A     -0.016980    40A     -0.014606    41A     -0.012584  
      42A     -0.011915    43A     -0.010571    44A     -0.009150  
      45A     -0.005226    46A      0.002019    47A      0.003706  
      48A      0.006357    49A      0.007792    50A      0.008905  
      51A      0.013358    52A      0.013743    53A      0.015598  
      54A      0.018012    55A      0.020989    56A      0.024226  
      57A      0.025071    58A      0.030809    59A      0.031260  
      60A      0.032544    61A      0.038766    62A      0.039502  
      63A      0.041803    64A      0.042216    65A      0.042624  
      66A      0.043753    67A      0.049608    68A      0.051765  
      69A      0.054145    70A      0.055083    71A      0.056923  
      72A      0.057185    73A      0.058699    74A      0.060973  
      75A      0.062029    76A      0.063353    77A      0.067738  
      78A      0.068421    79A      0.069026    80A      0.070974  
      81A      0.072230    82A      0.074162    83A      0.075539  
      84A      0.076940    85A      0.078850    86A      0.082110  
      87A      0.083116    88A      0.083384    89A      0.083953  
      90A      0.087809    91A      0.088627    92A      0.089756  
      93A      0.093174    94A      0.094373    95A      0.094489  
      96A      0.095012    97A      0.099292    98A      0.103395  
      99A      0.103951   100A      0.105227   101A      0.106887  
     102A      0.107285   103A      0.108431   104A      0.109809  
     105A      0.113154   106A      0.113743   107A      0.114409  
     108A      0.116172   109A      0.116934   110A      0.117347  
     111A      0.118433   112A      0.120452   113A      0.124627  
     114A      0.124685   115A      0.126122   116A      0.127244  
     117A      0.130273   118A      0.131744   119A      0.132444  
     120A      0.134818   121A      0.136862   122A      0.137557  
     123A      0.140321   124A      0.141409   125A      0.143623  
     126A      0.144275   127A      0.146457   128A      0.148869  
     129A      0.149915   130A      0.150126   131A      0.152341  
     132A      0.154666   133A      0.155475   134A      0.156595  
     135A      0.158881   136A      0.159050   137A      0.160453  
     138A      0.162189   139A      0.165336   140A      0.166093  
     141A      0.167937   142A      0.169011   143A      0.171406  
     144A      0.173185   145A      0.174844   146A      0.176486  
     147A      0.176703   148A      0.178558   149A      0.179425  
     150A      0.180672   151A      0.181400   152A      0.181769  
     153A      0.183689   154A      0.184217   155A      0.186511  
     156A      0.187752   157A      0.192894   158A      0.194187  
     159A      0.196283   160A      0.198332   161A      0.200389  
     162A      0.204887   163A      0.204941   164A      0.205501  
     165A      0.206867   166A      0.208175   167A      0.210894  
     168A      0.212710   169A      0.213667   170A      0.214696  
     171A      0.215707   172A      0.217752   173A      0.219416  
     174A      0.221360   175A      0.223624   176A      0.223940  
     177A      0.224188   178A      0.224641   179A      0.227017  
     180A      0.228466   181A      0.228579   182A      0.230354  
     183A      0.232996   184A      0.234806   185A      0.236053  
     186A      0.238620   187A      0.239195   188A      0.239748  
     189A      0.241697   190A      0.242592   191A      0.246370  
     192A      0.249566   193A      0.253908   194A      0.256326  
     195A      0.258573   196A      0.262244   197A      0.263970  
     198A      0.265314   199A      0.266319   200A      0.268895  
     201A      0.270819   202A      0.271660   203A      0.273755  
     204A      0.276643   205A      0.278195   206A      0.279049  
     207A      0.281389   208A      0.282271   209A      0.283545  
     210A      0.285419   211A      0.287408   212A      0.287930  
     213A      0.290048   214A      0.291442   215A      0.292682  
     216A      0.293855   217A      0.294325   218A      0.295455  
     219A      0.299213   220A      0.300830   221A      0.303335  
     222A      0.305694   223A      0.307776   224A      0.310818  
     225A      0.311913   226A      0.314578   227A      0.315492  
     228A      0.317073   229A      0.318065   230A      0.321607  
     231A      0.323905   232A      0.324931   233A      0.329081  
     234A      0.332902   235A      0.336175   236A      0.339555  
     237A      0.341096   238A      0.344939   239A      0.347055  
     240A      0.352544   241A      0.355237   242A      0.356143  
     243A      0.356659   244A      0.358607   245A      0.359010  
     246A      0.359836   247A      0.360495   248A      0.363444  
     249A      0.365089   250A      0.368201   251A      0.370652  
     252A      0.373468   253A      0.375281   254A      0.378185  
     255A      0.379941   256A      0.382812   257A      0.383300  
     258A      0.384212   259A      0.384788   260A      0.387752  
     261A      0.389293   262A      0.390677   263A      0.391438  
     264A      0.394662   265A      0.396714   266A      0.398059  
     267A      0.399182   268A      0.400228   269A      0.402297  
     270A      0.404099   271A      0.405159   272A      0.408215  
     273A      0.408641   274A      0.410492   275A      0.411947  
     276A      0.413857   277A      0.415263   278A      0.417967  
     279A      0.419947   280A      0.423450   281A      0.425038  
     282A      0.429185   283A      0.430505   284A      0.431257  
     285A      0.435025   286A      0.437041   287A      0.439605  
     288A      0.440494   289A      0.441144   290A      0.445375  
     291A      0.446885   292A      0.448645   293A      0.449370  
     294A      0.452617   295A      0.455649   296A      0.457472  
     297A      0.458736   298A      0.459867   299A      0.461435  
     300A      0.462440   301A      0.464154   302A      0.466602  
     303A      0.471076   304A      0.472457   305A      0.474266  
     306A      0.474993   307A      0.477479   308A      0.479305  
     309A      0.483951   310A      0.488274   311A      0.490983  
     312A      0.496018   313A      0.497305   314A      0.499643  
     315A      0.503112   316A      0.504235   317A      0.505558  
     318A      0.507789   319A      0.509717   320A      0.510684  
     321A      0.512388   322A      0.513829   323A      0.519479  
     324A      0.521344   325A      0.524012   326A      0.524566  
     327A      0.525757   328A      0.528607   329A      0.530210  
     330A      0.536086   331A      0.538071   332A      0.539548  
     333A      0.540391   334A      0.542726   335A      0.544979  
     336A      0.546887   337A      0.548224   338A      0.550366  
     339A      0.554703   340A      0.556117   341A      0.560536  
     342A      0.563149   343A      0.564008   344A      0.565944  
     345A      0.569303   346A      0.571417   347A      0.574275  
     348A      0.575256   349A      0.577272   350A      0.578297  
     351A      0.585352   352A      0.587571   353A      0.590295  
     354A      0.595070   355A      0.597639   356A      0.601833  
     357A      0.604000   358A      0.605077   359A      0.605480  
     360A      0.606379   361A      0.609998   362A      0.611416  
     363A      0.613573   364A      0.615354   365A      0.617255  
     366A      0.618200   367A      0.621410   368A      0.622513  
     369A      0.623995   370A      0.627727   371A      0.629080  
     372A      0.636034   373A      0.637911   374A      0.638684  
     375A      0.641480   376A      0.645562   377A      0.650213  
     378A      0.652880   379A      0.654458   380A      0.665578  
     381A      0.673982   382A      0.676672   383A      0.677753  
     384A      0.683269   385A      0.684263   386A      0.684949  
     387A      0.686346   388A      0.687184   389A      0.690803  
     390A      0.690919   391A      0.692225   392A      0.693712  
     393A      0.694257   394A      0.695071   395A      0.698235  
     396A      0.701015   397A      0.707663   398A      0.709588  
     399A      0.713114   400A      0.713746   401A      0.716396  
     402A      0.717850   403A      0.719549   404A      0.720069  
     405A      0.727115   406A      0.729118   407A      0.730821  
     408A      0.734262   409A      0.736570   410A      0.741365  
     411A      0.746592   412A      0.749142   413A      0.749328  
     414A      0.762832   415A      0.769205   416A      0.771191  
     417A      0.773354   418A      0.775391   419A      0.777634  
     420A      0.778477   421A      0.781598   422A      0.784443  
     423A      0.791001   424A      0.798075   425A      0.801460  
     426A      0.802373   427A      0.803520   428A      0.806775  
     429A      0.811543   430A      0.813427   431A      0.819139  
     432A      0.819932   433A      0.822834   434A      0.823592  
     435A      0.829820   436A      0.835101   437A      0.838117  
     438A      0.838901   439A      0.850375   440A      0.852545  
     441A      0.857031   442A      0.871475   443A      0.873025  
     444A      0.881772   445A      0.884154   446A      0.887156  
     447A      0.892837   448A      0.895751   449A      0.898767  
     450A      0.901318   451A      0.917191   452A      0.922906  
     453A      0.927000   454A      0.928497   455A      0.928946  
     456A      0.931771   457A      0.933221   458A      0.943453  
     459A      0.945088   460A      0.948816   461A      0.956107  
     462A      0.957976   463A      0.965000   464A      0.979352  
     465A      0.983183   466A      0.986876   467A      0.987402  
     468A      0.992288   469A      0.992380   470A      1.011980  
     471A      1.020313   472A      1.026055   473A      1.028612  
     474A      1.030001   475A      1.033962   476A      1.038717  
     477A      1.071200   478A      1.073763   479A      1.074535  
     480A      1.075218   481A      1.083438   482A      1.083656  
     483A      1.098038   484A      1.104692   485A      1.105877  
     486A      1.106875   487A      1.107676   488A      1.116688  
     489A      1.118792   490A      1.121900   491A      1.129370  
     492A      1.141019   493A      1.141475   494A      1.143038  
     495A      1.147463   496A      1.152191   497A      1.153855  
     498A      1.167731   499A      1.169390   500A      1.190344  
     501A      1.208854   502A      1.215380   503A      1.216394  
     504A      1.224959   505A      1.226349   506A      1.227523  
     507A      1.245926   508A      1.246513   509A      1.247726  
     510A      1.248624   511A      1.289511   512A      1.289811  
     513A      1.290702   514A      1.293572   515A      1.342759  
     516A      1.360425   517A      1.360515   518A      1.369949  
     519A      1.372294   520A      1.380420   521A      1.383320  
     522A      1.385149   523A      1.385961   524A      1.389177  
     525A      1.392317   526A      1.403118   527A      1.407734  
     528A      1.427447   529A      1.444834   530A      1.457113  
     531A      1.460120   532A      1.473734   533A      1.477631  
     534A      1.483065   535A      1.486718   536A      1.491853  
     537A      1.494177   538A      1.501654   539A      1.522061  
     540A      1.536930   541A      1.548085   542A      1.560979  
     543A      1.569116   544A      1.572994   545A      1.574568  
     546A      1.578119   547A      1.584675   548A      1.586763  
     549A      1.594405   550A      1.605278   551A      1.608323  
     552A      1.613700   553A      1.616388   554A      1.632769  
     555A      1.636415   556A      1.664257   557A      1.667018  
     558A      1.667977   559A      1.673894   560A      1.675425  
     561A      1.677561   562A      1.679764   563A      1.682229  
     564A      1.683131   565A      1.686744   566A      1.688008  
     567A      1.694444   568A      1.704892   569A      1.708470  
     570A      1.713761   571A      1.715274   572A      1.716554  
     573A      1.723270   574A      1.723601   575A      1.727489  
     576A      1.731077   577A      1.734385   578A      1.738337  
     579A      1.745506   580A      1.746283   581A      1.748161  
     582A      1.749301   583A      1.754371   584A      1.756771  
     585A      1.758580   586A      1.760458   587A      1.763623  
     588A      1.770123   589A      1.772138   590A      1.772672  
     591A      1.778412   592A      1.781735   593A      1.782289  
     594A      1.782762   595A      1.785651   596A      1.789294  
     597A      1.798486   598A      1.800177   599A      1.800789  
     600A      1.804213   601A      1.807334   602A      1.810087  
     603A      1.812192   604A      1.816693   605A      1.818596  
     606A      1.820279   607A      1.823789   608A      1.827160  
[...]
     811A      1.713960   812A      1.718655   813A      1.725886  
     814A      1.740561   815A      1.742259   816A      1.751842  
     817A      1.760750   818A      1.761105   819A      1.761863  
     820A      1.762458   821A      1.764410   822A      1.774521  
     823A      1.777832   824A      1.785493   825A      1.791648  
     826A      1.792570   827A      1.796591   828A      1.809498  
     829A      1.818048   830A      1.818287   831A      1.821421  
     832A      1.825065   833A      1.825463   834A      1.833309  
     835A      1.834120   836A      1.838286   837A      1.841092  
     838A      1.842889   839A      1.849380   840A      1.861183  
     841A      1.863517   842A      1.864160   843A      1.865251  
     844A      1.865540   845A      1.872856   846A      1.876430  
     847A      1.878649   848A      1.880881   849A      1.895889  
     850A      1.896049   851A      1.898872   852A      1.901134  
     853A      1.902770   854A      1.905357   855A      1.909234  
     856A      1.910385   857A      1.910640   858A      1.915667  
     859A      1.918356   860A      1.919281   861A      1.919973  
     862A      1.920969   863A      1.921839   864A      1.923162  
     865A      1.930037   866A      1.937806   867A      1.943024  
     868A      1.945132   869A      1.945921   870A      1.947534  
     871A      1.948971   872A      1.950467   873A      1.952874  
     874A      1.955368   875A      1.955512   876A      1.955894  
     877A      1.958394   878A      1.959199   879A      1.966508  
     880A      1.975088   881A      1.979061   882A      1.985162  
     883A      1.988842   884A      1.990617   885A      1.997760  
     886A      2.001957   887A      2.002205   888A      2.006382  
     889A      2.006574   890A      2.009548   891A      2.014034  
     892A      2.022333   893A      2.025092   894A      2.032340  
     895A      2.032627   896A      2.032811   897A      2.033208  
     898A      2.034652   899A      2.036819   900A      2.042787  
     901A      2.049450   902A      2.053528   903A      2.054178  
     904A      2.056238   905A      2.059677   906A      2.061470  
     907A      2.064011   908A      2.069521   909A      2.071448  
     910A      2.072179   911A      2.074797   912A      2.077675  
     913A      2.079070   914A      2.080386   915A      2.080862  
     916A      2.087742   917A      2.088588   918A      2.091704  
     919A      2.095347   920A      2.097106   921A      2.099366  
     922A      2.100190   923A      2.101093   924A      2.105581  
     925A      2.107787   926A      2.109362   927A      2.110087  
     928A      2.111474   929A      2.112175   930A      2.116145  
     931A      2.118151   932A      2.119532   933A      2.119707  
     934A      2.121283   935A      2.122257   936A      2.124764  
     937A      2.127841   938A      2.128310   939A      2.129589  
     940A      2.135624   941A      2.136406   942A      2.138565  
     943A      2.140963   944A      2.143565   945A      2.143849  
     946A      2.155031   947A      2.157459   948A      2.159477  
     949A      2.160804   950A      2.162588   951A      2.164907  
     952A      2.168118   953A      2.169918   954A      2.177868  
     955A      2.179847   956A      2.182233   957A      2.184788  
     958A      2.189109   959A      2.191838   960A      2.193170  
     961A      2.193504   962A      2.194695   963A      2.196960  
     964A      2.199962   965A      2.203955   966A      2.204603  
     967A      2.215936   968A      2.219607   969A      2.220250  
     970A      2.222119   971A      2.226717   972A      2.228044  
     973A      2.231657   974A      2.233977   975A      2.241441  
     976A      2.244775   977A      2.245590   978A      2.247278  
     979A      2.247443   980A      2.249545   981A      2.249706  
     982A      2.261984   983A      2.262230   984A      2.270416  
     985A      2.271440   986A      2.273002   987A      2.273715  
     988A      2.280590   989A      2.290776   990A      2.296015  
     991A      2.297283   992A      2.303208   993A      2.306881  
     994A      2.310099   995A      2.316481   996A      2.319534  
     997A      2.325503   998A      2.330003   999A      2.332067  
    1000A      2.333667  1001A      2.336594  1002A      2.338590  
    1003A      2.342415  1004A      2.353462  1005A      2.353904  
    1006A      2.356081  1007A      2.357797  1008A      2.363167  
    1009A      2.365579  1010A      2.373484  1011A      2.378489  
    1012A      2.379558  1013A      2.388847  1014A      2.396553  
    1015A      2.412666  1016A      2.416958  1017A      2.424422  
    1018A      2.424716  1019A      2.425073  1020A      2.436725  
    1021A      2.442622  1022A      2.444004  1023A      2.446498  
    1024A      2.454168  1025A      2.470546  1026A      2.476330  
    1027A      2.479133  1028A      2.488118  1029A      2.491023  
    1030A      2.496989  1031A      2.503164  1032A      2.512937  
    1033A      2.521147  1034A      2.524101  1035A      2.527625  
    1036A      2.532717  1037A      2.534988  1038A      2.542874  
    1039A      2.547548  1040A      2.551715  1041A      2.555368  
    1042A      2.555714  1043A      2.556314  1044A      2.559972  
    1045A      2.560369  1046A      2.560723  1047A      2.573452  
    1048A      2.573666  1049A      2.576412  1050A      2.579171  
    1051A      2.579513  1052A      2.585148  1053A      2.588912  
    1054A      2.589696  1055A      2.591926  1056A      2.593475  
    1057A      2.610044  1058A      2.622977  1059A      2.625626  
    1060A      2.626956  1061A      2.633401  1062A      2.635502  
    1063A      2.642123  1064A      2.644031  1065A      2.650189  
    1066A      2.651876  1067A      2.655553  1068A      2.657615  
    1069A      2.667371  1070A      2.684781  1071A      2.686629  
    1072A      2.688135  1073A      2.690294  1074A      2.691402  
    1075A      2.700233  1076A      2.702792  1077A      2.710458  
    1078A      2.712212  1079A      2.713754  1080A      2.714415  
    1081A      2.717460  1082A      2.719361  1083A      2.720500  
    1084A      2.725130  1085A      2.728930  1086A      2.747493  
    1087A      2.755862  1088A      2.758574  1089A      2.777264  
    1090A      2.778204  1091A      2.783233  1092A      2.790937  
    1093A      2.798321  1094A      2.798513  1095A      2.819994  
    1096A      2.829799  1097A      2.830785  1098A      2.854206  
    1099A      2.856288  1100A      2.856482  1101A      2.858704  
    1102A      2.860899  1103A      2.866353  1104A      2.870972  
    1105A      2.898321  1106A      2.911292  1107A      2.918870  
    1108A      2.920701  1109A      2.923062  1110A      2.926658  
    1111A      2.938028  1112A      2.939430  1113A      2.945545  
    1114A      2.951464  1115A      2.954391  1116A      2.956038  
    1117A      2.964808  1118A      2.976865  1119A      2.992064  
    1120A      3.012363  1121A      3.017198  1122A      3.024946  
    1123A      3.030991  1124A      3.033655  1125A      3.063340  
    1126A      3.064705  1127A      3.066978  1128A      3.071760  
    1129A      3.075442  1130A      3.083537  1131A      3.110700  
    1132A      3.114038  1133A      3.124164  1134A      3.133457  
    1135A      3.134130  1136A      3.135710  1137A      3.139103  
    1138A      3.147910  1139A      3.148392  1140A      3.150138  
    1141A      3.152422  1142A      3.154907  1143A      3.164149  
    1144A      3.165326  1145A      3.167490  1146A      3.171995  
    1147A      3.182189  1148A      3.192544  1149A      3.212174  
    1150A      3.222310  1151A      3.241216  1152A      3.277688  
    1153A      3.279533  1154A      3.280847  1155A      3.288767  
    1156A      3.292659  1157A      3.300431  1158A      3.340257  
    1159A      3.393006  1160A      3.421348  1161A      3.422928  
    1162A      3.448823  1163A      3.487418  1164A      3.489061  
    1165A      3.495780  1166A      3.543256  1167A      3.555810  
    1168A      3.586386  1169A      3.591833  1170A      3.602783  
    1171A      3.624258  1172A      3.630966  1173A      3.633383  
    1174A      3.655759  1175A      3.664987  1176A      3.677538  
    1177A      3.763411  1178A      3.772742  1179A      3.788535  
    1180A      3.791934  1181A      3.830197  1182A      3.871098  
    1183A      3.871947  1184A      3.876980  1185A      3.915100  
    1186A      3.915557  1187A      3.977761  1188A      4.000775  
    1189A      4.011749  1190A      4.061781  1191A      4.068229  
    1192A      4.126131  1193A      4.223407  1194A      4.246083  
    1195A      4.401277  1196A      4.412956  1197A      4.508493  
    1198A      4.780920  1199A      4.846645  1200A      4.850638  
    1201A      4.879550  1202A      4.962799  1203A      5.078940  
    1204A      5.081900  1205A      5.089642  1206A      5.129379  
    1207A      5.203988  1208A      5.411152  1209A      5.437794  
    1210A      5.756961  1211A      5.783431  1212A      6.077754  
    1213A     18.204224  1214A     18.478230  1215A     18.497984  
    1216A     18.582773  1217A     18.849669  1218A     25.353014  
    1219A     25.388496  

    Final Occupation by Irrep:
              A 
    DOCC [   171 ]
    NA   [   171 ]
    NB   [   171 ]

  @DF-RHF Final Energy: -2055.89448364762347

   => Energetics <=

    Nuclear Repulsion Energy =           6452.5568002797781446
    One-Electron Energy =              -15636.5048109107174241
    Two-Electron Energy =                7128.0535269833144412
    Total Energy =                      -2055.8944836476239288

Computation Completed


Properties will be evaluated at   0.000000,   0.000000,   0.000000 [a0]

Properties computed using the SCF density matrix


 Multipole Moments:

 ------------------------------------------------------------------------------------
     Multipole            Electronic (a.u.)      Nuclear  (a.u.)        Total (a.u.)
 ------------------------------------------------------------------------------------

 L = 1.  Multiply by 2.5417464519 to convert [e a0] to [Debye]
 Dipole X            :         -0.0001908           -0.0000085           -0.0001993
 Dipole Y            :        117.1717911         -117.1648546            0.0069365
 Dipole Z            :       -386.3501276          386.3542749            0.0041473
 Magnitude           :                                                    0.0080842

 ------------------------------------------------------------------------------------

*** tstop() called on n2cn0541 at Sat Feb 10 13:28:44 2024
Module time:
	user time   =    3530.17 seconds =      58.84 minutes
	system time =     144.61 seconds =       2.41 minutes
	total time  =        257 seconds =       4.28 minutes
Total time:
	user time   =   11456.58 seconds =     190.94 minutes
	system time =     399.84 seconds =       6.66 minutes
	total time  =        892 seconds =      14.87 minutes
  Constructing Basis Sets for SAPT...

   => Loading Basis Set <=

    Name: (JUN-CC-PVDZ AUX)
    Role: RIFIT
    Keyword: DF_BASIS_SAPT
    atoms 1-2, 4-5, 10, 17-70 entry C          line   100 file /opt/software/pc2/EB-SW/software/PSI4/1.9-foss-2022a/share/psi4/basis/jun-cc-pvdz-ri.gbs 
    atoms 3, 6                entry N          line   144 file /opt/software/pc2/EB-SW/software/PSI4/1.9-foss-2022a/share/psi4/basis/jun-cc-pvdz-ri.gbs 
    atoms 7-9, 11-16, 71-88   entry H          line    30 file /opt/software/pc2/EB-SW/software/PSI4/1.9-foss-2022a/share/psi4/basis/jun-cc-pvdz-ri.gbs 

   => Loading Basis Set <=

    Name: (JUN-CC-PVDZ AUX)
    Role: JKFIT
    Keyword: DF_BASIS_ELST
    atoms 1-2, 4-5, 10, 17-70 entry C          line   146 file /opt/software/pc2/EB-SW/software/PSI4/1.9-foss-2022a/share/psi4/basis/jun-cc-pvdz-jkfit.gbs 
    atoms 3, 6                entry N          line   202 file /opt/software/pc2/EB-SW/software/PSI4/1.9-foss-2022a/share/psi4/basis/jun-cc-pvdz-jkfit.gbs 
    atoms 7-9, 11-16, 71-88   entry H          line    70 file /opt/software/pc2/EB-SW/software/PSI4/1.9-foss-2022a/share/psi4/basis/jun-cc-pvdz-jkfit.gbs 


  //>>>>>>>>>>>>>>>>>>>>>>>>>>>>>>>>>>>//
  //               SSAPT0              //
  //<<<<<<<<<<<<<<<<<<<<<<<<<<<<<<<<<<<//


*** tstart() called on n2cn0541
*** at Sat Feb 10 13:28:45 2024

        SAPT0  
    Ed Hohenstein
     6 June 2009

      Orbital Information
  --------------------------
    NSO        =      1233
    NMO        =      1219
    NRI        =      4343
    NRI (Elst) =      5440
    NOCC A     =        26
    NOCC B     =       171
    FOCC A     =         7
    FOCC B     =        54
    NVIR A     =      1193
    NVIR B     =      1048

    Elst10,r            =    -0.013328586487 [Eh]
    Exch10              =     0.004513209546 [Eh]
    Exch10 (S^2)        =     0.004506581042 [Eh]

    Iter     Energy [mEh]          dE [mEh]         Residual      Time [s]
       1      -0.22828820       0.228288198       2.651753835            19
       2      -0.24548930       0.017201101       0.879432761            33
       3      -0.26095075       0.015461451       0.133783200            46
       4      -0.26072337      -0.000227383       0.062067795            58
       5      -0.26048624      -0.000237129       0.020550390            70
       6      -0.26054569       0.000059455       0.007717096            82
       7      -0.26056614       0.000020449       0.002432255            95
       8      -0.26056448      -0.000001662       0.000796006           107
       9      -0.26056195      -0.000002526       0.000256608           119
      10      -0.26056172      -0.000000236       0.000070175           131
      11      -0.26056193       0.000000216       0.000019013           143
      12      -0.26056195       0.000000016       0.000006184           155
      13      -0.26056194      -0.000000012       0.000001732           168
      14      -0.26056194      -0.000000002       0.000000565           180

    CHF Iterations converged


    Iter     Energy [mEh]          dE [mEh]         Residual      Time [s]
       1     -14.61732203      14.617322031      61.707130237            21
       2     -10.25183149      -4.365490543       8.601467219            37
       3     -10.34421311       0.092381626       3.417466890            52
       4     -10.64725768       0.303044565       0.801750841            67
       5     -10.66129111       0.014033431       0.283390546            82
       6     -10.65215518      -0.009135925       0.143737314            98
       7     -10.64993492      -0.002220263       0.063512407           113
       8     -10.65110054       0.001165621       0.036533653           129
       9     -10.65173582       0.000635275       0.017238632           149
      10     -10.65159041      -0.000145406       0.013968252           166
      11     -10.65138805      -0.000202358       0.007241366           181
      12     -10.65144635       0.000058297       0.003595330           195
      13     -10.65148190       0.000035550       0.001707947           209
      14     -10.65148251       0.000000615       0.000820208           223
      15     -10.65147204      -0.000010478       0.000439410           238
      16     -10.65147058      -0.000001460       0.000188839           252
      17     -10.65147322       0.000002641       0.000090767           266
      18     -10.65147364       0.000000418       0.000046649           281
      19     -10.65147315      -0.000000489       0.000023821           295
      20     -10.65147298      -0.000000170       0.000009088           309
      21     -10.65147306       0.000000086       0.000004933           324
      22     -10.65147311       0.000000046       0.000002398           338
      23     -10.65147309      -0.000000021       0.000001505           352
      24     -10.65147308      -0.000000011       0.000000690           367

    CHF Iterations converged

    Ind20,r (A<-B)      =    -0.000260561938 [Eh]
    Ind20,r (B<-A)      =    -0.010651473077 [Eh]
    Ind20,r             =    -0.010912035014 [Eh]
    Exch-Ind20,r (A<-B) =     0.000204923763 [Eh]
    Exch-Ind20,r (B<-A) =     0.000878164439 [Eh]
    Exch-Ind20,r        =     0.001083088202 [Eh]
    Disp20              =    -0.013423008837 [Eh]
    Disp20 (SS)         =    -0.006711504418 [Eh]
    Disp20 (OS)         =    -0.006711504418 [Eh]
    Exch-Disp20         =     0.000421376941 [Eh]
    Exch-Disp20 (SS)    =     0.000262662358 [Eh]
    Exch-Disp20 (OS)    =     0.000158714584 [Eh]

    SAPT Results 
  --------------------------------------------------------------------------------------------------------
    Electrostatics                -13.32858649 [mEh]      -8.36381429 [kcal/mol]     -34.99419900 [kJ/mol]
      Elst10,r                    -13.32858649 [mEh]      -8.36381429 [kcal/mol]     -34.99419900 [kJ/mol]

    Exchange                        4.51320955 [mEh]       2.83208175 [kcal/mol]      11.84943003 [kJ/mol]
      Exch10                        4.51320955 [mEh]       2.83208175 [kcal/mol]      11.84943003 [kJ/mol]
      Exch10(S^2)                   4.50658104 [mEh]       2.82792230 [kcal/mol]      11.83202689 [kJ/mol]

    Induction                     -11.25037891 [mEh]      -7.05971935 [kcal/mol]     -29.53786575 [kJ/mol]
      Ind20,r                     -10.91203501 [mEh]      -6.84740535 [kcal/mol]     -28.64954398 [kJ/mol]
      Exch-Ind20,r                  1.08308820 [mEh]       0.67964811 [kcal/mol]       2.84364768 [kJ/mol]
      delta HF,r (2)               -1.42143210 [mEh]      -0.89196211 [kcal/mol]      -3.73196946 [kJ/mol]

    Dispersion                    -13.00163190 [mEh]      -8.15864719 [kcal/mol]     -34.13577984 [kJ/mol]
      Disp20                      -13.42300884 [mEh]      -8.42306521 [kcal/mol]     -35.24210485 [kJ/mol]
      Exch-Disp20                   0.42137694 [mEh]       0.26441802 [kcal/mol]       1.10632501 [kJ/mol]
      Disp20 (SS)                  -6.71150442 [mEh]      -4.21153261 [kcal/mol]     -17.62105242 [kJ/mol]
      Disp20 (OS)                  -6.71150442 [mEh]      -4.21153261 [kcal/mol]     -17.62105242 [kJ/mol]
      Exch-Disp20 (SS)              0.26266236 [mEh]       0.16482312 [kcal/mol]       0.68961992 [kJ/mol]
      Exch-Disp20 (OS)              0.15871458 [mEh]       0.09959490 [kcal/mol]       0.41670508 [kJ/mol]

  Total HF                        -20.06575585 [mEh]     -12.59145189 [kcal/mol]     -52.68263472 [kJ/mol]
  Total SAPT0                     -33.06738774 [mEh]     -20.75009908 [kcal/mol]     -86.81841456 [kJ/mol]

  Special recipe for scaled SAPT0 (see Manual):
    Electrostatics sSAPT0         -13.32858649 [mEh]      -8.36381429 [kcal/mol]     -34.99419900 [kJ/mol]
    Exchange sSAPT0                 4.51320955 [mEh]       2.83208175 [kcal/mol]      11.84943003 [kJ/mol]
    Induction sSAPT0              -11.24559270 [mEh]      -7.05671595 [kcal/mol]     -29.52529955 [kJ/mol]
    Dispersion sSAPT0             -12.99976981 [mEh]      -8.15747871 [kcal/mol]     -34.13089094 [kJ/mol]
  Total sSAPT0                    -33.06073945 [mEh]     -20.74592721 [kcal/mol]     -86.80095946 [kJ/mol]
  --------------------------------------------------------------------------------------------------------

*** tstop() called on n2cn0541 at Sat Feb 10 13:58:49 2024
Module time:
	user time   =   12459.56 seconds =     207.66 minutes
	system time =     598.82 seconds =       9.98 minutes
	total time  =       1804 seconds =      30.07 minutes
Total time:
	user time   =   23917.02 seconds =     398.62 minutes
	system time =     998.67 seconds =      16.64 minutes
	total time  =       2697 seconds =      44.95 minutes

    Psi4 stopped on: Saturday, 10 February 2024 01:58PM
    Psi4 wall time for execution: 0:44:58.07

*** Psi4 exiting successfully. Buy a developer a beer!
