
    -----------------------------------------------------------------------
          Psi4: An Open-Source Ab Initio Electronic Structure Package
                               Psi4 1.9 release

                         Git: Rev {} zzzzzzz 


    D. G. A. Smith, L. A. Burns, A. C. Simmonett, R. M. Parrish,
    M. C. Schieber, R. Galvelis, P. Kraus, H. Kruse, R. Di Remigio,
    A. Alenaizan, A. M. James, S. Lehtola, J. P. Misiewicz, M. Scheurer,
    R. A. Shaw, J. B. Schriber, Y. Xie, Z. L. Glick, D. A. Sirianni,
    J. S. O'Brien, J. M. Waldrop, A. Kumar, E. G. Hohenstein,
    B. P. Pritchard, B. R. Brooks, H. F. Schaefer III, A. Yu. Sokolov,
    K. Patkowski, A. E. DePrince III, U. Bozkaya, R. A. King,
    F. A. Evangelista, J. M. Turney, T. D. Crawford, C. D. Sherrill,
    J. Chem. Phys. 152(18) 184108 (2020). https://doi.org/10.1063/5.0006002

                            Additional Code Authors
    E. T. Seidl, C. L. Janssen, E. F. Valeev, M. L. Leininger,
    J. F. Gonthier, R. M. Richard, H. R. McAlexander, M. Saitow, X. Wang,
    P. Verma, M. H. Lechner, A. Jiang, S. Behnle, A. G. Heide,
    M. F. Herbst, and D. L. Poole

             Previous Authors, Complete List of Code Contributors,
                       and Citations for Specific Modules
    https://github.com/psi4/psi4/blob/master/codemeta.json
    https://github.com/psi4/psi4/graphs/contributors
    http://psicode.org/psi4manual/master/introduction.html#citing-psifour

    -----------------------------------------------------------------------


    Psi4 started on: Wednesday, 07 February 2024 12:23AM

    Process ID: 3835543
    Host:       n2cn0481
    PSIDATADIR: /opt/software/pc2/EB-SW/software/PSI4/1.9-foss-2022a/share/psi4
    Memory:     500.0 MiB
    Threads:    16
    
  ==> Input File <==

--------------------------------------------------------------------------
memory 32 GB # how much memory is available ! Depends on the nodes/cores !

molecule dimer {
# monomer A
-1 1    # Charge and multiplicity
B -1.977592e-04  2.742729e-04 3.500034
F  1.123153e-16  1.430594e-17 4.912819
F  1.147860e+00  6.757812e-01 3.028893
F  1.191806e-02 -1.332011e+00 3.029095
F -1.159666e+00  6.560735e-01 3.029174
--
# monomer B
0 1     # Charge and multiplicity
C   1.22531237526482      0.70753866091955      0.00613762728373
C   1.22532433589282     -0.70753852257020     -0.00619318228664
C   -0.00000567409046      1.41496628609039     -0.00672680580738
C   2.45644923379077      1.41832825917820      0.00902448468363
C   0.00001130712078     -1.41497612663474      0.00347275151708
C   -1.22530046906674      0.70754574598412      0.00838914760619
C   2.45643823516184     -1.41832293188077     -0.00843833914343
C   -0.00000085313587      2.83680140328112     -0.00913035594137
C   3.68182717731192      0.70931832800114     -0.00808954934571
C   2.45512052870677      2.83422403348893     -0.00819210630633
C   3.68182158506039     -0.70933346742900      0.00798293467272
C   -1.22531311884624     -0.70752714354401     -0.00512042085974
C   1.22670006104402      3.54346985599427      0.00816696660346
C   0.00000526469929     -2.83678176723568      0.00832091913869
C   -2.45643555300670      1.41831729028492      0.00842454345199
C   2.45512389762097     -2.83422965658853      0.00783102630520
C   -1.22671388474763      3.54346943575023      0.00827029982280
C   4.91451777504333      1.42717324448953     -0.00160886631602
C   3.69315067131765      3.54279566454522     -0.00155906667985
C   -2.45643712022637     -1.41831290883911     -0.00846337726810
C   1.22670532178455     -3.54347386990643     -0.00780316414624
C   -2.45512491866593      2.83421703463423     -0.00818572995999
C   4.91452486062398     -1.42718653794377      0.00136387641845
C   1.22142509354026      4.97013443726031      0.00150231067809
C   4.89300870916237      2.82518837202648     -0.00039219795739
C   -1.22669652864725     -3.54347062507680     -0.00753595973677
C   -3.68181849668397      0.70932533873199     -0.00807686886569
C   3.69314758099218     -3.54280096939050      0.00148176697923
C   -1.22143177215231      4.97012866986289      0.00168580605083
C   6.13477145276790      0.68054831910577     -0.00083909176631
C   3.65678936045204      4.97295361556775     -0.00065042889723
C   -2.45512642789169     -2.83421472106065      0.00758666850712
C   -3.68181869921921     -0.70932533146830      0.00810055625144
C   4.89301309775526     -2.82519973363176      0.00021895393805
C   -0.00000059327114      5.65044773803267      0.00045449734393
C   6.13477559217374     -0.68055448207492      0.00042622874941
C   2.47813196269732      5.65357712333155      0.00063835075260
C   1.22142288457925     -4.97012668293268     -0.00129718634452
C   -3.69316190412301      3.54279732619245     -0.00139355922051
C   -1.22142804110313     -4.97011793159564     -0.00140994817719
C   -4.91452132810043      1.42717581899491     -0.00153192130862
C   3.65678749952045     -4.97295485423912      0.00080007163680
C   -2.47813805026426      5.65357479452875      0.00092287576113
C   -3.69314125872231     -3.54278984697859      0.00136564082345
C   -4.91451200321153     -1.42718062802730      0.00139857359209
C   -0.00000552908399     -5.65043791501335      0.00005899322272
C   -4.89302000425900      2.82518897091939     -0.00040227981744
C   2.47812647313991     -5.65357317188818     -0.00029052915548
C   -3.65679823041642      4.97295655404175     -0.00047374852278
C   -4.89299899901461     -2.82519139505969      0.00006491824035
C   -2.47812801824129     -5.65356579800621     -0.00056571680280
C   -6.13477002348955      0.68054913825639     -0.00086464346868
C   -3.65678835334731     -4.97294365097028      0.00058578382008
C   -6.13476456307132     -0.68055354348201      0.00040575295444
H   5.83528897565761      3.36927626695423      0.00396712770529
H   7.07385965258860      1.22821762089947     -0.00037744837300
H   4.60066374401555      5.51238117445323     -0.00014522814529
H   5.83528386714679     -3.36930568472863     -0.00423551337640
H   -0.00001167146422      6.73853104613662     -0.00389474766392
H   7.07386165167227     -1.22822657074368     -0.00008250934481
H   2.47331421164041      6.74068466339473      0.00017162982210
H   4.60066897122302     -5.51237575717576      0.00039007446835
H   -2.47331820069565      6.74068209160650      0.00047297644710
H   -0.00000978838621     -6.73852780445195      0.00458867820736
H   -5.83530143450167      3.36927132229595      0.00410314985360
H   2.47330840367253     -6.74068500242887      0.00027980126949
H   -4.60067436136587      5.51237839860371      0.00002010017831
H   -5.83527902699321     -3.36928859177951     -0.00451481925734
H   -2.47329986759855     -6.74067870613986     -0.00016951527498
H   -7.07385728692578      1.22822084484047     -0.00046143985387
H   -4.60067330624313     -5.51236229778631      0.00021776644566
H   -7.07385645456741     -1.22822025997701     -0.00017736581114

    units angstrom      # Angstroms are the default
    no_reorient         # Geometry fixed, default
    symmetry c1         # C1 symmetry, default
}

set {
    scf_type DF         # Density fitting, faster than exact integrals
    freeze_core True    # Freeze core electrons
    basis jun-cc-pVDZ   # Jun-cc-pVDZ basis set, recommended for sSAPT0 in https://doi.org/10.1063/1.4867135
}

energy('ssapt0')        # Compute sSAPT0 energy, includes also SAPT0
--------------------------------------------------------------------------

  Memory set to  29.802 GiB by Python driver.

Scratch directory: /tmp/
   => Loading Basis Set <=

    Name: JUN-CC-PVDZ
    Role: ORBITAL
    Keyword: BASIS
    atoms 1     entry B          line   130 file /opt/software/pc2/EB-SW/software/PSI4/1.9-foss-2022a/share/psi4/basis/jun-cc-pvdz.gbs 
    atoms 2-5   entry F          line   266 file /opt/software/pc2/EB-SW/software/PSI4/1.9-foss-2022a/share/psi4/basis/jun-cc-pvdz.gbs 
    atoms 6-59  entry C          line   164 file /opt/software/pc2/EB-SW/software/PSI4/1.9-foss-2022a/share/psi4/basis/jun-cc-pvdz.gbs 
    atoms 60-77 entry H          line    36 file /opt/software/pc2/EB-SW/software/PSI4/1.9-foss-2022a/share/psi4/basis/jun-cc-pvdz.gbs 

   => Loading Basis Set <=

    Name: JUN-CC-PVDZ
    Role: ORBITAL
    Keyword: BASIS
    atoms 1     entry B          line   130 file /opt/software/pc2/EB-SW/software/PSI4/1.9-foss-2022a/share/psi4/basis/jun-cc-pvdz.gbs 
    atoms 2-5   entry F          line   266 file /opt/software/pc2/EB-SW/software/PSI4/1.9-foss-2022a/share/psi4/basis/jun-cc-pvdz.gbs 
    atoms 6-59  entry C          line   164 file /opt/software/pc2/EB-SW/software/PSI4/1.9-foss-2022a/share/psi4/basis/jun-cc-pvdz.gbs 
    atoms 60-77 entry H          line    36 file /opt/software/pc2/EB-SW/software/PSI4/1.9-foss-2022a/share/psi4/basis/jun-cc-pvdz.gbs 


  //>>>>>>>>>>>>>>>>>>>>>>>>>>>>>>>>>>>//
  //              Dimer HF             //
  //<<<<<<<<<<<<<<<<<<<<<<<<<<<<<<<<<<<//

   => Libint2 <=

    Primary   basis highest AM E, G, H:  5, 4, 3
    Auxiliary basis highest AM E, G, H:  6, 5, 4
    Onebody   basis highest AM E, G, H:  6, 5, 4
    Solid Harmonics ordering:            gaussian

*** tstart() called on n2cn0481
*** at Wed Feb  7 00:23:48 2024

   => Loading Basis Set <=

    Name: JUN-CC-PVDZ
    Role: ORBITAL
    Keyword: BASIS
    atoms 1     entry B          line   130 file /opt/software/pc2/EB-SW/software/PSI4/1.9-foss-2022a/share/psi4/basis/jun-cc-pvdz.gbs 
    atoms 2-5   entry F          line   266 file /opt/software/pc2/EB-SW/software/PSI4/1.9-foss-2022a/share/psi4/basis/jun-cc-pvdz.gbs 
    atoms 6-59  entry C          line   164 file /opt/software/pc2/EB-SW/software/PSI4/1.9-foss-2022a/share/psi4/basis/jun-cc-pvdz.gbs 
    atoms 60-77 entry H          line    36 file /opt/software/pc2/EB-SW/software/PSI4/1.9-foss-2022a/share/psi4/basis/jun-cc-pvdz.gbs 


         ---------------------------------------------------------
                                   SCF
               by Justin Turney, Rob Parrish, Andy Simmonett
                          and Daniel G. A. Smith
                              RHF Reference
                       16 Threads,  30517 MiB Core
         ---------------------------------------------------------

  ==> Geometry <==

    Molecular point group: c1
    Full point group: C1

    Geometry (in Angstrom), charge = -1, multiplicity = 1:

       Center              X                  Y                   Z               Mass       
    ------------   -----------------  -----------------  -----------------  -----------------
         B           -0.000198161052     0.000273808717     3.095717373628    11.009305360000
         F           -0.000000401852    -0.000000464183     4.508502373628    18.998403162730
         F            1.147859598148     0.675780735817     2.624576373628    18.998403162730
         F            0.011917658148    -1.332011464183     2.624778373628    18.998403162730
         F           -1.159666401852     0.656073035817     2.624857373628    18.998403162730
         C            1.225311973413     0.707538196736    -0.398178999088    12.000000000000
         C            1.225323934041    -0.707538986754    -0.410509808658    12.000000000000
         C           -0.000006075942     1.414965821907    -0.411043432179    12.000000000000
         C            2.456448831939     1.418327794995    -0.395292141688    12.000000000000
         C            0.000010905269    -1.414976590818    -0.400843874855    12.000000000000
         C           -1.225300870919     0.707545281801    -0.395927478766    12.000000000000
         C            2.456437833310    -1.418323396064    -0.412754965515    12.000000000000
         C           -0.000001254988     2.836800939098    -0.413446982313    12.000000000000
         C            3.681826775460     0.709317863818    -0.412406175718    12.000000000000
         C            2.455120126855     2.834223569306    -0.412508732678    12.000000000000
         C            3.681821183209    -0.709333931612    -0.396333691699    12.000000000000
         C           -1.225313520698    -0.707527607727    -0.409437047232    12.000000000000
         C            1.226699659192     3.543469391811    -0.396149659768    12.000000000000
         C            0.000004862847    -2.836782231419    -0.395995707233    12.000000000000
         C           -2.456435954859     1.418316826102    -0.395892082920    12.000000000000
         C            2.455123495769    -2.834230120772    -0.396485600067    12.000000000000
         C           -1.226714286599     3.543468971567    -0.396046326549    12.000000000000
         C            4.914517373191     1.427172780306    -0.405925492688    12.000000000000
         C            3.693150269466     3.542795200362    -0.405875693052    12.000000000000
         C           -2.456437522078    -1.418313373022    -0.412780003640    12.000000000000
         C            1.226704919933    -3.543474334090    -0.412119790518    12.000000000000
         C           -2.455125320518     2.834216570451    -0.412502356332    12.000000000000
         C            4.914524458772    -1.427187002127    -0.402952749953    12.000000000000
         C            1.221424691688     4.970133973077    -0.402814315694    12.000000000000
         C            4.893008307311     2.825187907843    -0.404708824329    12.000000000000
         C           -1.226696930499    -3.543471089260    -0.411852586109    12.000000000000
         C           -3.681818898536     0.709324874549    -0.412393495238    12.000000000000
         C            3.693147179140    -3.542801433574    -0.402834859393    12.000000000000
         C           -1.221432174004     4.970128205680    -0.402630820321    12.000000000000
         C            6.134771050916     0.680547854922    -0.405155718138    12.000000000000
         C            3.656788958600     4.972953151384    -0.404967055269    12.000000000000
         C           -2.455126829744    -2.834215185244    -0.396729957865    12.000000000000
         C           -3.681819101071    -0.709325795652    -0.396216070120    12.000000000000
         C            4.893012695903    -2.825200197815    -0.404097672434    12.000000000000
         C           -0.000000995123     5.650447273849    -0.403862129028    12.000000000000
         C            6.134775190322    -0.680554946258    -0.403890397622    12.000000000000
         C            2.478131560845     5.653576659148    -0.403678275619    12.000000000000
         C            1.221422482727    -4.970127147116    -0.405613812716    12.000000000000
         C           -3.693162305975     3.542796862009    -0.405710185592    12.000000000000
         C           -1.221428442955    -4.970118395779    -0.405726574549    12.000000000000
         C           -4.914521729952     1.427175354812    -0.405848547680    12.000000000000
         C            3.656787097669    -4.972955318422    -0.403516554735    12.000000000000
         C           -2.478138452116     5.653574330345    -0.403393750611    12.000000000000
         C           -3.693141660574    -3.542790311162    -0.402950985548    12.000000000000
         C           -4.914512405063    -1.427181092211    -0.402918052780    12.000000000000
         C           -0.000005930936    -5.650438379197    -0.404257633149    12.000000000000
         C           -4.893020406111     2.825188506736    -0.404718906189    12.000000000000
         C            2.478126071288    -5.653573636072    -0.404607155527    12.000000000000
         C           -3.656798632268     4.972956089858    -0.404790374895    12.000000000000
         C           -4.892999400866    -2.825191859243    -0.404251708131    12.000000000000
         C           -2.478128420093    -5.653566262190    -0.404882343175    12.000000000000
         C           -6.134770425341     0.680548674073    -0.405181269841    12.000000000000
         C           -3.656788755199    -4.972944115154    -0.403730842552    12.000000000000
         C           -6.134764964923    -0.680554007665    -0.403910873417    12.000000000000
         H            5.835288573806     3.369275802771    -0.400349498667     1.007825032230
         H            7.073859250737     1.228217156716    -0.404694074745     1.007825032230
         H            4.600663342164     5.512380710270    -0.404461854517     1.007825032230
         H            5.835283465295    -3.369306148912    -0.408552139748     1.007825032230
         H           -0.000012073316     6.738530581953    -0.408211374036     1.007825032230
         H            7.073861249820    -1.228227034927    -0.404399135717     1.007825032230
         H            2.473313809789     6.740684199211    -0.404144996550     1.007825032230
         H            4.600668569371    -5.512376221359    -0.403926551903     1.007825032230
         H           -2.473318602548     6.740681627423    -0.403843649925     1.007825032230
         H           -0.000010190238    -6.738528268635    -0.399727948164     1.007825032230
         H           -5.835301836354     3.369270858113    -0.400213476518     1.007825032230
         H            2.473308001821    -6.740685466612    -0.404036825102     1.007825032230
         H           -4.600674763218     5.512377934420    -0.404296526194     1.007825032230
         H           -5.835279428845    -3.369289055963    -0.408831445629     1.007825032230
         H           -2.473300269450    -6.740679170323    -0.404486141647     1.007825032230
         H           -7.073857688778     1.228220380657    -0.404778066226     1.007825032230
         H           -4.600673708095    -5.512362761970    -0.404098859926     1.007825032230
         H           -7.073856856419    -1.228220724160    -0.404493992183     1.007825032230

  Running in c1 symmetry.

  Rotational constants: A =      0.00195  B =      0.00195  C =      0.00110 [cm^-1]
  Rotational constants: A =     58.46113  B =     58.45323  C =     33.02251 [MHz]
  Nuclear repulsion = 7954.330169138274869

  Charge       = -1
  Multiplicity = 1
  Electrons    = 384
  Nalpha       = 192
  Nbeta        = 192

  ==> Algorithm <==

  SCF Algorithm Type is DF.
  DIIS enabled.
  MOM disabled.
  Fractional occupation disabled.
  Guess Type is SAD.
  Energy threshold   = 1.00e-08
  Density threshold  = 1.00e-08
  Integral threshold = 1.00e-12

  ==> Primary Basis <==

  Basis Set: JUN-CC-PVDZ
    Blend: JUN-CC-PVDZ
    Number of shells: 526
    Number of basis functions: 1152
    Number of Cartesian functions: 1211
    Spherical Harmonics?: true
    Max angular momentum: 2

   => Loading Basis Set <=

    Name: (JUN-CC-PVDZ AUX)
    Role: JKFIT
    Keyword: DF_BASIS_SCF
    atoms 1     entry B          line    90 file /opt/software/pc2/EB-SW/software/PSI4/1.9-foss-2022a/share/psi4/basis/jun-cc-pvdz-jkfit.gbs 
    atoms 2-5   entry F          line   314 file /opt/software/pc2/EB-SW/software/PSI4/1.9-foss-2022a/share/psi4/basis/jun-cc-pvdz-jkfit.gbs 
    atoms 6-59  entry C          line   146 file /opt/software/pc2/EB-SW/software/PSI4/1.9-foss-2022a/share/psi4/basis/jun-cc-pvdz-jkfit.gbs 
    atoms 60-77 entry H          line    70 file /opt/software/pc2/EB-SW/software/PSI4/1.9-foss-2022a/share/psi4/basis/jun-cc-pvdz-jkfit.gbs 

  ==> Integral Setup <==

  ==> DiskDFJK: Density-Fitted J/K Matrices <==

    J tasked:                  Yes
    K tasked:                  Yes
    wK tasked:                  No
    OpenMP threads:             16
    Integrals threads:          16
    Memory [MiB]:            22888
    Algorithm:                Core
    Integral Cache:           SAVE
    Schwarz Cutoff:          1E-12
    Fitting Condition:       1E-10

   => Auxiliary Basis Set <=

  Basis Set: (JUN-CC-PVDZ AUX)
    Blend: JUN-CC-PVDZ-JKFIT
    Number of shells: 1755
    Number of basis functions: 5075
    Number of Cartesian functions: 5819
    Spherical Harmonics?: true
    Max angular momentum: 3

  Minimum eigenvalue in the overlap matrix is 6.5620729312E-10.
  Reciprocal condition number of the overlap matrix is 2.7738543004E-11.
    Using canonical orthogonalization.
  Overall, 14 of 1152 possible MOs eliminated.


  ==> Pre-Iterations <==

  SCF Guess: Superposition of Atomic Densities via on-the-fly atomic UHF (no occupation information).

   -------------------------
    Irrep   Nso     Nmo    
   -------------------------
     A       1152    1138 
   -------------------------
    Total    1152    1138
   -------------------------

  ==> Iterations <==

                           Total Energy        Delta E     RMS |[F,P]|

   @DF-RHF iter SAD: -2483.43518532826783   -2.48344e+03   0.00000e+00 
   @DF-RHF iter   1: -2477.59378031938832    5.84141e+00   1.10957e-03 DIIS/ADIIS
   @DF-RHF iter   2: -2478.49427404184325   -9.00494e-01   4.97144e-04 DIIS/ADIIS
   @DF-RHF iter   3: -2478.64212878411354   -1.47855e-01   1.49371e-04 DIIS/ADIIS
   @DF-RHF iter   4: -2478.65791276460413   -1.57840e-02   7.10036e-05 DIIS
   @DF-RHF iter   5: -2478.66205952675045   -4.14676e-03   1.79037e-05 DIIS
   @DF-RHF iter   6: -2478.66239532565623   -3.35799e-04   5.48403e-06 DIIS
   @DF-RHF iter   7: -2478.66248045049633   -8.51248e-05   2.72665e-06 DIIS
   @DF-RHF iter   8: -2478.66250463725828   -2.41868e-05   1.22758e-06 DIIS
   @DF-RHF iter   9: -2478.66251171280373   -7.07555e-06   2.84307e-07 DIIS
   @DF-RHF iter  10: -2478.66251198887085   -2.76067e-07   1.05935e-07 DIIS
   @DF-RHF iter  11: -2478.66251201440309   -2.55322e-08   4.92503e-08 DIIS
   @DF-RHF iter  12: -2478.66251202357762   -9.17453e-09   2.62248e-08 DIIS
   @DF-RHF iter  13: -2478.66251202693502   -3.35740e-09   1.79377e-08 DIIS
   @DF-RHF iter  14: -2478.66251202886360   -1.92858e-09   1.11337e-08 DIIS
   @DF-RHF iter  15: -2478.66251202991543   -1.05183e-09   6.63111e-09 DIIS
  Energy and wave function converged.


  ==> Post-Iterations <==

    Orbital Energies [Eh]
    ---------------------

    Doubly Occupied:                                                      

       1A    -26.086149     2A    -26.086054     3A    -26.085960  
       4A    -26.079133     5A    -11.177905     6A    -11.177891  
       7A    -11.177888     8A    -11.177824     9A    -11.177810  
      10A    -11.177806    11A    -11.177714    12A    -11.177711  
      13A    -11.177709    14A    -11.177630    15A    -11.177627  
      16A    -11.177625    17A    -11.175990    18A    -11.175984  
      19A    -11.175984    20A    -11.175979    21A    -11.175978  
      22A    -11.175973    23A    -11.174604    24A    -11.174600  
      25A    -11.174598    26A    -11.174596    27A    -11.174595  
      28A    -11.174591    29A    -11.173264    30A    -11.173216  
      31A    -11.173210    32A    -11.173040    33A    -11.173037  
      34A    -11.172906    35A    -11.172548    36A    -11.172355  
      37A    -11.172352    38A    -11.172046    39A    -11.172045  
      40A    -11.171877    41A    -11.171383    42A    -11.171302  
      43A    -11.171295    44A    -11.171184    45A    -11.171179  
      46A    -11.171178    47A    -11.171077    48A    -11.171071  
      49A    -11.171067    50A    -11.170973    51A    -11.170972  
      52A    -11.170944    53A    -11.167587    54A    -11.167203  
      55A    -11.167183    56A    -11.165590    57A    -11.165583  
      58A    -11.165160    59A     -7.556253    60A     -1.429032  
      61A     -1.371137    62A     -1.370964    63A     -1.365069  
      64A     -1.155905    65A     -1.135257    66A     -1.135256  
      67A     -1.106990    68A     -1.106982    69A     -1.094406  
      70A     -1.076947    71A     -1.066893    72A     -1.050317  
      73A     -1.050310    74A     -1.032751    75A     -1.032747  
      76A     -0.998657    77A     -0.998648    78A     -0.994295  
      79A     -0.985993    80A     -0.985988    81A     -0.957799  
      82A     -0.939039    83A     -0.937616    84A     -0.935935  
      85A     -0.935895    86A     -0.933103    87A     -0.903805  
      88A     -0.903762    89A     -0.880880    90A     -0.880832  
      91A     -0.813946    92A     -0.813915    93A     -0.802747  
      94A     -0.800328    95A     -0.800272    96A     -0.798215  
      97A     -0.798166    98A     -0.781215    99A     -0.759394  
     100A     -0.737173   101A     -0.732462   102A     -0.729175  
     103A     -0.729166   104A     -0.714927   105A     -0.714916  
     106A     -0.662924   107A     -0.661844   108A     -0.652189  
     109A     -0.652165   110A     -0.649874   111A     -0.649866  
     112A     -0.634187   113A     -0.620273   114A     -0.618339  
     115A     -0.618327   116A     -0.612022   117A     -0.612006  
     118A     -0.581559   119A     -0.571086   120A     -0.571082  
     121A     -0.570396   122A     -0.567300   123A     -0.559215  
     124A     -0.559212   125A     -0.547407   126A     -0.547219  
     127A     -0.547128   128A     -0.546519   129A     -0.545328  
     130A     -0.545315   131A     -0.529911   132A     -0.519358  
     133A     -0.519326   134A     -0.518718   135A     -0.516291  
     136A     -0.511592   137A     -0.507644   138A     -0.506730  
     139A     -0.506718   140A     -0.491894   141A     -0.491890  
     142A     -0.488171   143A     -0.488156   144A     -0.483675  
     145A     -0.483667   146A     -0.475526   147A     -0.474872  
     148A     -0.474859   149A     -0.465805   150A     -0.465757  
     151A     -0.459013   152A     -0.459009   153A     -0.455758  
     154A     -0.455753   155A     -0.448608   156A     -0.445761  
     157A     -0.441687   158A     -0.441678   159A     -0.426321  
     160A     -0.426231   161A     -0.421264   162A     -0.419089  
     163A     -0.415697   164A     -0.413148   165A     -0.406219  
     166A     -0.404376   167A     -0.403383   168A     -0.403322  
     169A     -0.402551   170A     -0.400118   171A     -0.400111  
     172A     -0.381730   173A     -0.381699   174A     -0.366261  
     175A     -0.366180   176A     -0.359466   177A     -0.359457  
     178A     -0.320206   179A     -0.320182   180A     -0.317214  
     181A     -0.296527   182A     -0.296525   183A     -0.267366  
     184A     -0.249357   185A     -0.246761   186A     -0.246679  
     187A     -0.231102   188A     -0.220195   189A     -0.199113  
     190A     -0.199065   191A     -0.142790   192A     -0.142716  

    Virtual:                                                              

     193A      0.095245   194A      0.095302   195A      0.108161  
     196A      0.108172   197A      0.109647   198A      0.110579  
     199A      0.110580   200A      0.117283   201A      0.121495  
     202A      0.132496   203A      0.132499   204A      0.147102  
     205A      0.147111   206A      0.148040   207A      0.148079  
     208A      0.150576   209A      0.156147   210A      0.156473  
     211A      0.156482   212A      0.157090   213A      0.157097  
     214A      0.161797   215A      0.161806   216A      0.164646  
     217A      0.167006   218A      0.167094   219A      0.167436  
     220A      0.170337   221A      0.178010   222A      0.178015  
     223A      0.179252   224A      0.181862   225A      0.190832  
     226A      0.190840   227A      0.191140   228A      0.191149  
     229A      0.191864   230A      0.191876   231A      0.196896  
     232A      0.198633   233A      0.199116   234A      0.199676  
     235A      0.203040   236A      0.203048   237A      0.207218  
     238A      0.214311   239A      0.214317   240A      0.216829  
     241A      0.216857   242A      0.220393   243A      0.220399  
     244A      0.224015   245A      0.224023   246A      0.228510  
     247A      0.235858   248A      0.238719   249A      0.238781  
     250A      0.244697   251A      0.251576   252A      0.252385  
     253A      0.252395   254A      0.254914   255A      0.254931  
     256A      0.257515   257A      0.263903   258A      0.263966  
     259A      0.265054   260A      0.265086   261A      0.265937  
     262A      0.268491   263A      0.268493   264A      0.272432  
     265A      0.272821   266A      0.272828   267A      0.275455  
     268A      0.275492   269A      0.276601   270A      0.277173  
     271A      0.278400   272A      0.278420   273A      0.278849  
     274A      0.281338   275A      0.281840   276A      0.290785  
     277A      0.292378   278A      0.292390   279A      0.294466  
     280A      0.294481   281A      0.295617   282A      0.297746  
     283A      0.297749   284A      0.304233   285A      0.305620  
     286A      0.306354   287A      0.306391   288A      0.309897  
     289A      0.309907   290A      0.312903   291A      0.313349  
     292A      0.320713   293A      0.320764   294A      0.324250  
     295A      0.324259   296A      0.328221   297A      0.328235  
     298A      0.332601   299A      0.332616   300A      0.334401  
     301A      0.341951   302A      0.341965   303A      0.343798  
     304A      0.343804   305A      0.345494   306A      0.345521  
     307A      0.351430   308A      0.358236   309A      0.358262  
     310A      0.361525   311A      0.361553   312A      0.365162  
     313A      0.365807   314A      0.365809   315A      0.366377  
     316A      0.366777   317A      0.367472   318A      0.367496  
     319A      0.372600   320A      0.372635   321A      0.374650  
     322A      0.379733   323A      0.379854   324A      0.379871  
     325A      0.380736   326A      0.382535   327A      0.382563  
     328A      0.385638   329A      0.386747   330A      0.386754  
     331A      0.389270   332A      0.391317   333A      0.393562  
     334A      0.394208   335A      0.394227   336A      0.397859  
     337A      0.400261   338A      0.404243   339A      0.404365  
     340A      0.407999   341A      0.408870   342A      0.411125  
     343A      0.411148   344A      0.413085   345A      0.414920  
     346A      0.414936   347A      0.421633   348A      0.421815  
     349A      0.424250   350A      0.424255   351A      0.425636  
     352A      0.427050   353A      0.427098   354A      0.438740  
     355A      0.438795   356A      0.443291   357A      0.445810  
     358A      0.445859   359A      0.449949   360A      0.455384  
     361A      0.456261   362A      0.456317   363A      0.459962  
     364A      0.459969   365A      0.463607   366A      0.463705  
     367A      0.464336   368A      0.464408   369A      0.464480  
     370A      0.467152   371A      0.468505   372A      0.472201  
     373A      0.472209   374A      0.473426   375A      0.475229  
     376A      0.475302   377A      0.478063   378A      0.478119  
     379A      0.481542   380A      0.481643   381A      0.481695  
     382A      0.483082   383A      0.488282   384A      0.488316  
     385A      0.493333   386A      0.494064   387A      0.497505  
     388A      0.497528   389A      0.499146   390A      0.499159  
     391A      0.499193   392A      0.503706   393A      0.503712  
     394A      0.505256   395A      0.505629   396A      0.505707  
     397A      0.511949   398A      0.512858   399A      0.515196  
     400A      0.517863   401A      0.517984   402A      0.519602  
     403A      0.519623   404A      0.522249   405A      0.523731  
     406A      0.523743   407A      0.527572   408A      0.527836  
     409A      0.527897   410A      0.531348   411A      0.531548  
     412A      0.534837   413A      0.534999   414A      0.540857  
     415A      0.540958   416A      0.542315   417A      0.546785  
     418A      0.547714   419A      0.547810   420A      0.548916  
     421A      0.551495   422A      0.551544   423A      0.553982  
     424A      0.554102   425A      0.554497   426A      0.556731  
     427A      0.568034   428A      0.568140   429A      0.569330  
     430A      0.569368   431A      0.569380   432A      0.573705  
     433A      0.573759   434A      0.575956   435A      0.577105  
     436A      0.577263   437A      0.579921   438A      0.583508  
     439A      0.583554   440A      0.584452   441A      0.588435  
     442A      0.588561   443A      0.592887   444A      0.592944  
     445A      0.600549   446A      0.602693   447A      0.602861  
     448A      0.607178   449A      0.610173   450A      0.610191  
     451A      0.616616   452A      0.622839   453A      0.622983  
     454A      0.623042   455A      0.625181   456A      0.625303  
     457A      0.625484   458A      0.628469   459A      0.628476  
     460A      0.629056   461A      0.635980   462A      0.636780  
     463A      0.639194   464A      0.639979   465A      0.640128  
     466A      0.642662   467A      0.647121   468A      0.647142  
     469A      0.651176   470A      0.661985   471A      0.662714  
     472A      0.663414   473A      0.669018   474A      0.669226  
     475A      0.669692   476A      0.676828   477A      0.681638  
     478A      0.681664   479A      0.687421   480A      0.700719  
     481A      0.700818   482A      0.708178   483A      0.708210  
     484A      0.713010   485A      0.713099   486A      0.730645  
     487A      0.734332   488A      0.734406   489A      0.734936  
     490A      0.739447   491A      0.739552   492A      0.745656  
     493A      0.750375   494A      0.751311   495A      0.751429  
     496A      0.753263   497A      0.754482   498A      0.754611  
     499A      0.758694   500A      0.758729   501A      0.766559  
     502A      0.798279   503A      0.798311   504A      0.817902  
     505A      0.821603   506A      0.822084   507A      0.825819  
     508A      0.825905   509A      0.828294   510A      0.828327  
     511A      0.836834   512A      0.836845   513A      0.844489  
     514A      0.854194   515A      0.868579   516A      0.872102  
     517A      0.876071   518A      0.876177   519A      0.887326  
     520A      0.893369   521A      0.893609   522A      0.893648  
     523A      0.897199   524A      0.899471   525A      0.899557  
     526A      0.905756   527A      0.907018   528A      0.907234  
     529A      0.907308   530A      0.914310   531A      0.914333  
     532A      0.922620   533A      0.923351   534A      0.934347  
     535A      0.934381   536A      0.944678   537A      0.944708  
     538A      0.945650   539A      0.954060   540A      0.954127  
     541A      0.961744   542A      0.961811   543A      0.966705  
     544A      0.966737   545A      0.975119   546A      0.975180  
     547A      0.979436   548A      0.981187   549A      0.981230  
     550A      0.984601   551A      0.988921   552A      0.989894  
     553A      0.992315   554A      0.992488   555A      0.998419  
     556A      0.998514   557A      1.000783   558A      1.002091  
     559A      1.002209   560A      1.002614   561A      1.005164  
     562A      1.007069   563A      1.016171   564A      1.016242  
     565A      1.022765   566A      1.022963   567A      1.023394  
     568A      1.023524   569A      1.026379   570A      1.031336  
     571A      1.032541   572A      1.032587   573A      1.037980  
     574A      1.038012   575A      1.045526   576A      1.046382  
     577A      1.048826   578A      1.049003   579A      1.055082  
     580A      1.055271   581A      1.060158   582A      1.060346  
     583A      1.069251   584A      1.070744   585A      1.070794  
     586A      1.075895   587A      1.078414   588A      1.078436  
     589A      1.090248   590A      1.093568   591A      1.093613  
     592A      1.094776   593A      1.095894   594A      1.095933  
     595A      1.109041   596A      1.110960   597A      1.110997  
     598A      1.116240   599A      1.120155   600A      1.120195  
     601A      1.121399   602A      1.121447   603A      1.125013  
     604A      1.125303   605A      1.125326   606A      1.132138  
     607A      1.132251   608A      1.132363   609A      1.134665  
     610A      1.134973   611A      1.135052   612A      1.136574  
     613A      1.146210   614A      1.146533   615A      1.151622  
     616A      1.153973   617A      1.154025   618A      1.163439  
     619A      1.164039   620A      1.166528   621A      1.166614  
     622A      1.168246   623A      1.168370   624A      1.174530  
     625A      1.177132   626A      1.177226   627A      1.180285  
     628A      1.180343   629A      1.186307   630A      1.186356  
     631A      1.190396   632A      1.192028   633A      1.192122  
     634A      1.196978   635A      1.197044   636A      1.205066  
     637A      1.208939   638A      1.210124   639A      1.210266  
     640A      1.214501   641A      1.217467   642A      1.221231  
     643A      1.221266   644A      1.225820   645A      1.226186  
     646A      1.226321   647A      1.231613   648A      1.235613  
     649A      1.235971   650A      1.236386   651A      1.243507  
     652A      1.250282   653A      1.250310   654A      1.257348  
     655A      1.258522   656A      1.261699   657A      1.262088  
     658A      1.271072   659A      1.273892   660A      1.273901  
     661A      1.283125   662A      1.283238   663A      1.287515  
     664A      1.287582   665A      1.289575   666A      1.289741  
     667A      1.291736   668A      1.301048   669A      1.303142  
     670A      1.304482   671A      1.304515   672A      1.312006  
     673A      1.312138   674A      1.316655   675A      1.317553  
     676A      1.317589   677A      1.317863   678A      1.339492  
     679A      1.339620   680A      1.342901   681A      1.342959  
     682A      1.345025   683A      1.345068   684A      1.347374  
     685A      1.347534   686A      1.354317   687A      1.354504  
     688A      1.356090   689A      1.359974   690A      1.376063  
     691A      1.377843   692A      1.379088   693A      1.382340  
     694A      1.387437   695A      1.388910   696A      1.396013  
     697A      1.396035   698A      1.401938   699A      1.402051  
     700A      1.404291   701A      1.404323   702A      1.411412  
     703A      1.411461   704A      1.412643   705A      1.412730  
     706A      1.418430   707A      1.420409   708A      1.433978  
     709A      1.435852   710A      1.435928   711A      1.439839  
     712A      1.439874   713A      1.441004   714A      1.441030  
     715A      1.444672   716A      1.457273   717A      1.457973  
     718A      1.458148   719A      1.464911   720A      1.465950  
     721A      1.466033   722A      1.475230   723A      1.484446  
     724A      1.484485   725A      1.493398   726A      1.493451  
     727A      1.495673   728A      1.495715   729A      1.499602  
     730A      1.504571   731A      1.505331   732A      1.513606  
     733A      1.515483   734A      1.515550   735A      1.517474  
     736A      1.519984   737A      1.520046   738A      1.522605  
     739A      1.531130   740A      1.531143   741A      1.531813  
     742A      1.533179   743A      1.533356   744A      1.536669  
     745A      1.558360   746A      1.558443   747A      1.569333  
     748A      1.569492   749A      1.598327   750A      1.598386  
     751A      1.605464   752A      1.605496   753A      1.612232  
     754A      1.635878   755A      1.655058   756A      1.661698  
     757A      1.661748   758A      1.676667   759A      1.685266  
     760A      1.686296   761A      1.686789   762A      1.697225  
     763A      1.697295   764A      1.698417   765A      1.710245  
     766A      1.710337   767A      1.712739   768A      1.712924  
     769A      1.718532   770A      1.720531   771A      1.720661  
     772A      1.726271   773A      1.726452   774A      1.726591  
     775A      1.727792   776A      1.734503   777A      1.734657  
     778A      1.743204   779A      1.743242   780A      1.747124  
     781A      1.748648   782A      1.756227   783A      1.756256  
     784A      1.757486   785A      1.760940   786A      1.765793  
     787A      1.765862   788A      1.768912   789A      1.772105  
     790A      1.772139   791A      1.777446   792A      1.779425  
     793A      1.779472   794A      1.784190   795A      1.791651  
     796A      1.791756   797A      1.797652   798A      1.797659  
     799A      1.805299   800A      1.824158   801A      1.835378  
     802A      1.837841   803A      1.839075   804A      1.839088  
     805A      1.843825   806A      1.858039   807A      1.858051  
     808A      1.873459   809A      1.873468   810A      1.895992  
     811A      1.896019   812A      1.896498   813A      1.909587  
     814A      1.909670   815A      1.913767   816A      1.913853  
     817A      1.921326   818A      1.926160   819A      1.928864  
     820A      1.932331   821A      1.939699   822A      1.939747  
     823A      1.946685   824A      1.947525   825A      1.947646  
     826A      1.952809   827A      1.960004   828A      1.963371  
     829A      1.963408   830A      1.979837   831A      1.979990  
     832A      1.980294   833A      1.981828   834A      1.981931  
     835A      1.992927   836A      1.993045   837A      1.998558  
     838A      1.998697   839A      2.000104   840A      2.000243  
     841A      2.002352   842A      2.003704   843A      2.003749  
     844A      2.016398   845A      2.016497   846A      2.017698  
     847A      2.024309   848A      2.024348   849A      2.026203  
     850A      2.029498   851A      2.029657   852A      2.036838  
     853A      2.036853   854A      2.040026   855A      2.045966  
     856A      2.046070   857A      2.049609   858A      2.076480  
     859A      2.077389   860A      2.077470   861A      2.079116  
     862A      2.079256   863A      2.086997   864A      2.088237  
     865A      2.088398   866A      2.098279   867A      2.098616  
     868A      2.106437   869A      2.106482   870A      2.106743  
     871A      2.109612   872A      2.110253   873A      2.110361  
     874A      2.113246   875A      2.122644   876A      2.122807  
     877A      2.122942   878A      2.130706   879A      2.135708  
     880A      2.135884   881A      2.141662   882A      2.142284  
     883A      2.148775   884A      2.149008   885A      2.155503  
     886A      2.155573   887A      2.157630   888A      2.157673  
     889A      2.162769   890A      2.163141   891A      2.163620  
     892A      2.170598   893A      2.171597   894A      2.171678  
     895A      2.173482   896A      2.178151   897A      2.184960  
     898A      2.185006   899A      2.185753   900A      2.186501  
     901A      2.189881   902A      2.189916   903A      2.193511  
     904A      2.198433   905A      2.198495   906A      2.198656  
     907A      2.202700   908A      2.203031   909A      2.205471  
     910A      2.207213   911A      2.207375   912A      2.210258  
     913A      2.210315   914A      2.215790   915A      2.216487  
     916A      2.216550   917A      2.222310   918A      2.223744  
     919A      2.223814   920A      2.231985   921A      2.232075  
     922A      2.235904   923A      2.246462   924A      2.246569  
     925A      2.256409   926A      2.264398   927A      2.264490  
     928A      2.266820   929A      2.266982   930A      2.272114  
     931A      2.274706   932A      2.274732   933A      2.276886  
     934A      2.283568   935A      2.296184   936A      2.296290  
     937A      2.301968   938A      2.304438   939A      2.304631  
     940A      2.311957   941A      2.312441   942A      2.321063  
     943A      2.321250   944A      2.322779   945A      2.322881  
     946A      2.326439   947A      2.330415   948A      2.330627  
     949A      2.332861   950A      2.335343   951A      2.335501  
     952A      2.351273   953A      2.351291   954A      2.352521  
     955A      2.352611   956A      2.357760   957A      2.358152  
     958A      2.358605   959A      2.381528   960A      2.387068  
     961A      2.394987   962A      2.399258   963A      2.399825  
     964A      2.420383   965A      2.420462   966A      2.423750  
     967A      2.428480   968A      2.431684   969A      2.437388  
     970A      2.437495   971A      2.437644   972A      2.438036  
     973A      2.453600   974A      2.454265   975A      2.454433  
     976A      2.465563   977A      2.487744   978A      2.496048  
     979A      2.506148   980A      2.506775   981A      2.506803  
     982A      2.516115   983A      2.526339   984A      2.526388  
     985A      2.553448   986A      2.559515   987A      2.559644  
     988A      2.572039   989A      2.572087   990A      2.587253  
     991A      2.604342   992A      2.613939   993A      2.618263  
     994A      2.627344   995A      2.627383   996A      2.628258  
     997A      2.632198   998A      2.632276   999A      2.641342  
    1000A      2.641487  1001A      2.641497  1002A      2.654402  
    1003A      2.654881  1004A      2.655309  1005A      2.655347  
    1006A      2.667902  1007A      2.668058  1008A      2.670328  
    1009A      2.673289  1010A      2.677855  1011A      2.689632  
    1012A      2.705353  1013A      2.705440  1014A      2.715154  
    1015A      2.715599  1016A      2.716114  1017A      2.721966  
    1018A      2.722079  1019A      2.732272  1020A      2.732561  
    1021A      2.738128  1022A      2.764721  1023A      2.770733  
    1024A      2.771542  1025A      2.772932  1026A      2.791057  
    1027A      2.791494  1028A      2.797083  1029A      2.797094  
    1030A      2.801868  1031A      2.801886  1032A      2.807799  
    1033A      2.808000  1034A      2.832218  1035A      2.838397  
    1036A      2.838728  1037A      2.861756  1038A      2.881497  
    1039A      2.881567  1040A      2.905593  1041A      2.912013  
    1042A      2.913324  1043A      2.939399  1044A      2.939511  
    1045A      2.943624  1046A      2.945816  1047A      2.948317  
    1048A      2.948532  1049A      2.955733  1050A      2.998887  
    1051A      2.998922  1052A      3.007254  1053A      3.015690  
    1054A      3.015766  1055A      3.034032  1056A      3.034159  
    1057A      3.043516  1058A      3.090845  1059A      3.094430  
    1060A      3.094632  1061A      3.115230  1062A      3.149532  
    1063A      3.149593  1064A      3.151094  1065A      3.151174  
    1066A      3.168061  1067A      3.188660  1068A      3.189155  
    1069A      3.212362  1070A      3.212636  1071A      3.218890  
    1072A      3.227334  1073A      3.227383  1074A      3.228040  
    1075A      3.229450  1076A      3.230137  1077A      3.230181  
    1078A      3.240646  1079A      3.241145  1080A      3.247193  
    1081A      3.247856  1082A      3.254400  1083A      3.254408  
    1084A      3.270019  1085A      3.289075  1086A      3.304148  
    1087A      3.327168  1088A      3.359888  1089A      3.360120  
    1090A      3.363648  1091A      3.373398  1092A      3.385818  
    1093A      3.386025  1094A      3.505863  1095A      3.506168  
    1096A      3.577007  1097A      3.578744  1098A      3.605521  
    1099A      3.642802  1100A      3.679858  1101A      3.681399  
    1102A      3.692361  1103A      3.712981  1104A      3.714509  
    1105A      3.747063  1106A      3.759371  1107A      3.858135  
    1108A      3.881577  1109A      3.882622  1110A      3.951503  
    1111A      3.951521  1112A      3.996052  1113A      3.996113  
    1114A      4.063175  1115A      4.096683  1116A      4.130038  
    1117A      4.136035  1118A      4.159246  1119A      4.173613  
    1120A      4.174722  1121A      4.190524  1122A      4.197264  
    1123A      4.197409  1124A      4.209524  1125A      4.210610  
    1126A      4.216919  1127A      4.261965  1128A      4.262270  
    1129A      4.263682  1130A      4.436602  1131A      4.436965  
    1132A      4.441894  1133A      4.648549  1134A      4.648605  
    1135A      4.666868  1136A      4.740823  1137A      4.777851  
    1138A      4.778136  

    Final Occupation by Irrep:
              A 
    DOCC [   192 ]
    NA   [   192 ]
    NB   [   192 ]

  @DF-RHF Final Energy: -2478.66251202991543

   => Energetics <=

    Nuclear Repulsion Energy =           7954.3301691382748686
    One-Electron Energy =              -19267.5528448969271267
    Two-Electron Energy =                8834.5601637287363701
    Total Energy =                      -2478.6625120299158880

Computation Completed


Properties will be evaluated at   0.000000,   0.000000,   0.000000 [a0]

Properties computed using the SCF density matrix


 Multipole Moments:

 ------------------------------------------------------------------------------------
     Multipole            Electronic (a.u.)      Nuclear  (a.u.)        Total (a.u.)
 ------------------------------------------------------------------------------------

 L = 1.  Multiply by 2.5417464519 to convert [e a0] to [Debye]
 Dipole X            :         -0.0005810            0.0000481           -0.0005329
 Dipole Y            :          0.0010545           -0.0001453            0.0009092
 Dipole Z            :         17.0573601          -21.4560118           -4.3986517
 Magnitude           :                                                    4.3986518

 ------------------------------------------------------------------------------------

*** tstop() called on n2cn0481 at Wed Feb  7 00:30:38 2024
Module time:
	user time   =    5228.11 seconds =      87.14 minutes
	system time =     165.96 seconds =       2.77 minutes
	total time  =        410 seconds =       6.83 minutes
Total time:
	user time   =    5228.11 seconds =      87.14 minutes
	system time =     165.96 seconds =       2.77 minutes
	total time  =        410 seconds =       6.83 minutes

  //>>>>>>>>>>>>>>>>>>>>>>>>>>>>>>>>>>>//
  //            Monomer A HF           //
  //<<<<<<<<<<<<<<<<<<<<<<<<<<<<<<<<<<<//

   => Libint2 <=

    Primary   basis highest AM E, G, H:  5, 4, 3
    Auxiliary basis highest AM E, G, H:  6, 5, 4
    Onebody   basis highest AM E, G, H:  6, 5, 4
    Solid Harmonics ordering:            gaussian

*** tstart() called on n2cn0481
*** at Wed Feb  7 00:30:38 2024

   => Loading Basis Set <=

    Name: JUN-CC-PVDZ
    Role: ORBITAL
    Keyword: BASIS
    atoms 1     entry B          line   130 file /opt/software/pc2/EB-SW/software/PSI4/1.9-foss-2022a/share/psi4/basis/jun-cc-pvdz.gbs 
    atoms 2-5   entry F          line   266 file /opt/software/pc2/EB-SW/software/PSI4/1.9-foss-2022a/share/psi4/basis/jun-cc-pvdz.gbs 
    atoms 6-59  entry C          line   164 file /opt/software/pc2/EB-SW/software/PSI4/1.9-foss-2022a/share/psi4/basis/jun-cc-pvdz.gbs 
    atoms 60-77 entry H          line    36 file /opt/software/pc2/EB-SW/software/PSI4/1.9-foss-2022a/share/psi4/basis/jun-cc-pvdz.gbs 


         ---------------------------------------------------------
                                   SCF
               by Justin Turney, Rob Parrish, Andy Simmonett
                          and Daniel G. A. Smith
                              RHF Reference
                       16 Threads,  30517 MiB Core
         ---------------------------------------------------------

  ==> Geometry <==

    Molecular point group: c1
    Full point group: C1

    Geometry (in Angstrom), charge = -1, multiplicity = 1:

       Center              X                  Y                   Z               Mass       
    ------------   -----------------  -----------------  -----------------  -----------------
         B           -0.000198161052     0.000273808717     3.095717373628    11.009305360000
         F           -0.000000401852    -0.000000464183     4.508502373628    18.998403162730
         F            1.147859598148     0.675780735817     2.624576373628    18.998403162730
         F            0.011917658148    -1.332011464183     2.624778373628    18.998403162730
         F           -1.159666401852     0.656073035817     2.624857373628    18.998403162730
      Gh(C)           1.225311973413     0.707538196736    -0.398178999088    12.000000000000
      Gh(C)           1.225323934041    -0.707538986754    -0.410509808658    12.000000000000
      Gh(C)          -0.000006075942     1.414965821907    -0.411043432179    12.000000000000
      Gh(C)           2.456448831939     1.418327794995    -0.395292141688    12.000000000000
      Gh(C)           0.000010905269    -1.414976590818    -0.400843874855    12.000000000000
      Gh(C)          -1.225300870919     0.707545281801    -0.395927478766    12.000000000000
      Gh(C)           2.456437833310    -1.418323396064    -0.412754965515    12.000000000000
      Gh(C)          -0.000001254988     2.836800939098    -0.413446982313    12.000000000000
      Gh(C)           3.681826775460     0.709317863818    -0.412406175718    12.000000000000
      Gh(C)           2.455120126855     2.834223569306    -0.412508732678    12.000000000000
      Gh(C)           3.681821183209    -0.709333931612    -0.396333691699    12.000000000000
      Gh(C)          -1.225313520698    -0.707527607727    -0.409437047232    12.000000000000
      Gh(C)           1.226699659192     3.543469391811    -0.396149659768    12.000000000000
      Gh(C)           0.000004862847    -2.836782231419    -0.395995707233    12.000000000000
      Gh(C)          -2.456435954859     1.418316826102    -0.395892082920    12.000000000000
      Gh(C)           2.455123495769    -2.834230120772    -0.396485600067    12.000000000000
      Gh(C)          -1.226714286599     3.543468971567    -0.396046326549    12.000000000000
      Gh(C)           4.914517373191     1.427172780306    -0.405925492688    12.000000000000
      Gh(C)           3.693150269466     3.542795200362    -0.405875693052    12.000000000000
      Gh(C)          -2.456437522078    -1.418313373022    -0.412780003640    12.000000000000
      Gh(C)           1.226704919933    -3.543474334090    -0.412119790518    12.000000000000
      Gh(C)          -2.455125320518     2.834216570451    -0.412502356332    12.000000000000
      Gh(C)           4.914524458772    -1.427187002127    -0.402952749953    12.000000000000
      Gh(C)           1.221424691688     4.970133973077    -0.402814315694    12.000000000000
      Gh(C)           4.893008307311     2.825187907843    -0.404708824329    12.000000000000
      Gh(C)          -1.226696930499    -3.543471089260    -0.411852586109    12.000000000000
      Gh(C)          -3.681818898536     0.709324874549    -0.412393495238    12.000000000000
      Gh(C)           3.693147179140    -3.542801433574    -0.402834859393    12.000000000000
      Gh(C)          -1.221432174004     4.970128205680    -0.402630820321    12.000000000000
      Gh(C)           6.134771050916     0.680547854922    -0.405155718138    12.000000000000
      Gh(C)           3.656788958600     4.972953151384    -0.404967055269    12.000000000000
      Gh(C)          -2.455126829744    -2.834215185244    -0.396729957865    12.000000000000
      Gh(C)          -3.681819101071    -0.709325795652    -0.396216070120    12.000000000000
      Gh(C)           4.893012695903    -2.825200197815    -0.404097672434    12.000000000000
      Gh(C)          -0.000000995123     5.650447273849    -0.403862129028    12.000000000000
      Gh(C)           6.134775190322    -0.680554946258    -0.403890397622    12.000000000000
      Gh(C)           2.478131560845     5.653576659148    -0.403678275619    12.000000000000
      Gh(C)           1.221422482727    -4.970127147116    -0.405613812716    12.000000000000
      Gh(C)          -3.693162305975     3.542796862009    -0.405710185592    12.000000000000
      Gh(C)          -1.221428442955    -4.970118395779    -0.405726574549    12.000000000000
      Gh(C)          -4.914521729952     1.427175354812    -0.405848547680    12.000000000000
      Gh(C)           3.656787097669    -4.972955318422    -0.403516554735    12.000000000000
      Gh(C)          -2.478138452116     5.653574330345    -0.403393750611    12.000000000000
      Gh(C)          -3.693141660574    -3.542790311162    -0.402950985548    12.000000000000
      Gh(C)          -4.914512405063    -1.427181092211    -0.402918052780    12.000000000000
      Gh(C)          -0.000005930936    -5.650438379197    -0.404257633149    12.000000000000
      Gh(C)          -4.893020406111     2.825188506736    -0.404718906189    12.000000000000
      Gh(C)           2.478126071288    -5.653573636072    -0.404607155527    12.000000000000
      Gh(C)          -3.656798632268     4.972956089858    -0.404790374895    12.000000000000
      Gh(C)          -4.892999400866    -2.825191859243    -0.404251708131    12.000000000000
      Gh(C)          -2.478128420093    -5.653566262190    -0.404882343175    12.000000000000
      Gh(C)          -6.134770425341     0.680548674073    -0.405181269841    12.000000000000
      Gh(C)          -3.656788755199    -4.972944115154    -0.403730842552    12.000000000000
      Gh(C)          -6.134764964923    -0.680554007665    -0.403910873417    12.000000000000
      Gh(H)           5.835288573806     3.369275802771    -0.400349498667     1.007825032230
      Gh(H)           7.073859250737     1.228217156716    -0.404694074745     1.007825032230
      Gh(H)           4.600663342164     5.512380710270    -0.404461854517     1.007825032230
      Gh(H)           5.835283465295    -3.369306148912    -0.408552139748     1.007825032230
      Gh(H)          -0.000012073316     6.738530581953    -0.408211374036     1.007825032230
      Gh(H)           7.073861249820    -1.228227034927    -0.404399135717     1.007825032230
      Gh(H)           2.473313809789     6.740684199211    -0.404144996550     1.007825032230
      Gh(H)           4.600668569371    -5.512376221359    -0.403926551903     1.007825032230
      Gh(H)          -2.473318602548     6.740681627423    -0.403843649925     1.007825032230
      Gh(H)          -0.000010190238    -6.738528268635    -0.399727948164     1.007825032230
      Gh(H)          -5.835301836354     3.369270858113    -0.400213476518     1.007825032230
      Gh(H)           2.473308001821    -6.740685466612    -0.404036825102     1.007825032230
      Gh(H)          -4.600674763218     5.512377934420    -0.404296526194     1.007825032230
      Gh(H)          -5.835279428845    -3.369289055963    -0.408831445629     1.007825032230
      Gh(H)          -2.473300269450    -6.740679170323    -0.404486141647     1.007825032230
      Gh(H)          -7.073857688778     1.228220380657    -0.404778066226     1.007825032230
      Gh(H)          -4.600673708095    -5.512362761970    -0.404098859926     1.007825032230
      Gh(H)          -7.073856856419    -1.228220724160    -0.404493992183     1.007825032230

  Running in c1 symmetry.

  Rotational constants: A =      0.00195  B =      0.00195  C =      0.00110 [cm^-1]
  Rotational constants: A =     58.46113  B =     58.45323  C =     33.02251 [MHz]
  Nuclear repulsion =  178.879455044809134

  Charge       = -1
  Multiplicity = 1
  Electrons    = 42
  Nalpha       = 21
  Nbeta        = 21

  ==> Algorithm <==

  SCF Algorithm Type is DF.
  DIIS enabled.
  MOM disabled.
  Fractional occupation disabled.
  Guess Type is SAD.
  Energy threshold   = 1.00e-08
  Density threshold  = 1.00e-08
  Integral threshold = 1.00e-12

  ==> Primary Basis <==

  Basis Set: JUN-CC-PVDZ
    Blend: JUN-CC-PVDZ
    Number of shells: 526
    Number of basis functions: 1152
    Number of Cartesian functions: 1211
    Spherical Harmonics?: true
    Max angular momentum: 2

   => Loading Basis Set <=

    Name: (JUN-CC-PVDZ AUX)
    Role: JKFIT
    Keyword: DF_BASIS_SCF
    atoms 1     entry B          line    90 file /opt/software/pc2/EB-SW/software/PSI4/1.9-foss-2022a/share/psi4/basis/jun-cc-pvdz-jkfit.gbs 
    atoms 2-5   entry F          line   314 file /opt/software/pc2/EB-SW/software/PSI4/1.9-foss-2022a/share/psi4/basis/jun-cc-pvdz-jkfit.gbs 
    atoms 6-59  entry C          line   146 file /opt/software/pc2/EB-SW/software/PSI4/1.9-foss-2022a/share/psi4/basis/jun-cc-pvdz-jkfit.gbs 
    atoms 60-77 entry H          line    70 file /opt/software/pc2/EB-SW/software/PSI4/1.9-foss-2022a/share/psi4/basis/jun-cc-pvdz-jkfit.gbs 

  ==> Integral Setup <==

  ==> DiskDFJK: Density-Fitted J/K Matrices <==

    J tasked:                  Yes
    K tasked:                  Yes
    wK tasked:                  No
    OpenMP threads:             16
    Integrals threads:          16
    Memory [MiB]:            22888
    Algorithm:                Core
    Integral Cache:           LOAD
    Schwarz Cutoff:          1E-12
    Fitting Condition:       1E-10

   => Auxiliary Basis Set <=

  Basis Set: (JUN-CC-PVDZ AUX)
    Blend: JUN-CC-PVDZ-JKFIT
    Number of shells: 1755
    Number of basis functions: 5075
    Number of Cartesian functions: 5819
    Spherical Harmonics?: true
    Max angular momentum: 3

  Minimum eigenvalue in the overlap matrix is 6.5620729312E-10.
  Reciprocal condition number of the overlap matrix is 2.7738543004E-11.
    Using canonical orthogonalization.
  Overall, 14 of 1152 possible MOs eliminated.


  ==> Pre-Iterations <==

  SCF Guess: Superposition of Atomic Densities via on-the-fly atomic UHF (no occupation information).

   -------------------------
    Irrep   Nso     Nmo    
   -------------------------
     A       1152    1138 
   -------------------------
    Total    1152    1138
   -------------------------

  ==> Iterations <==

                           Total Energy        Delta E     RMS |[F,P]|

   @DF-RHF iter SAD:  -421.23045231808237   -4.21230e+02   0.00000e+00 
   @DF-RHF iter   1:  -422.65158076142956   -1.42113e+00   5.30684e-04 DIIS/ADIIS
   @DF-RHF iter   2:  -422.73456167189482   -8.29809e-02   3.23965e-04 DIIS/ADIIS
   @DF-RHF iter   3:  -422.77307060509798   -3.85089e-02   1.75088e-05 DIIS
   @DF-RHF iter   4:  -422.77343320578188   -3.62601e-04   2.78292e-06 DIIS
   @DF-RHF iter   5:  -422.77344194458345   -8.73880e-06   7.21463e-07 DIIS
   @DF-RHF iter   6:  -422.77344253527986   -5.90696e-07   1.47933e-07 DIIS
   @DF-RHF iter   7:  -422.77344255765269   -2.23728e-08   1.52844e-08 DIIS
   @DF-RHF iter   8:  -422.77344255789706   -2.44370e-10   4.86158e-09 DIIS
  Energy and wave function converged.


  ==> Post-Iterations <==

    Orbital Energies [Eh]
    ---------------------

    Doubly Occupied:                                                      

       1A    -26.067085     2A    -26.066998     3A    -26.066985  
       4A    -26.066905     5A     -7.538444     6A     -1.410590  
       7A     -1.351030     8A     -1.350950     9A     -1.350788  
      10A     -0.601848    11A     -0.528079    12A     -0.528061  
      13A     -0.527975    14A     -0.446940    15A     -0.446898  
      16A     -0.408240    17A     -0.408195    18A     -0.408112  
      19A     -0.384704    20A     -0.384642    21A     -0.384511  

    Virtual:                                                              

      22A      0.092164    23A      0.092722    24A      0.092727  
      25A      0.099146    26A      0.099149    27A      0.110332  
      28A      0.111023    29A      0.124332    30A      0.126454  
      31A      0.126455    32A      0.135421    33A      0.135423  
      34A      0.144371    35A      0.144378    36A      0.147358  
      37A      0.149924    38A      0.149927    39A      0.150617  
      40A      0.150633    41A      0.161908    42A      0.161922  
      43A      0.161930    44A      0.165529    45A      0.165630  
      46A      0.170460    47A      0.172010    48A      0.178308  
      49A      0.178783    50A      0.181913    51A      0.183200  
      52A      0.183206    53A      0.189546    54A      0.189554  
      55A      0.189838    56A      0.189848    57A      0.195591  
      58A      0.195619    59A      0.201507    60A      0.202842  
      61A      0.202847    62A      0.205092    63A      0.205104  
      64A      0.206637    65A      0.206643    66A      0.208183  
      67A      0.214569    68A      0.214570    69A      0.214956  
      70A      0.214965    71A      0.220745    72A      0.224095  
      73A      0.224097    74A      0.224970    75A      0.225630  
      76A      0.234185    77A      0.234206    78A      0.235164  
      79A      0.237598    80A      0.237619    81A      0.238419  
      82A      0.238429    83A      0.242461    84A      0.245237  
      85A      0.246231    86A      0.246234    87A      0.247425  
      88A      0.249849    89A      0.256952    90A      0.256985  
      91A      0.259622    92A      0.260881    93A      0.265200  
      94A      0.269213    95A      0.270332    96A      0.270336  
      97A      0.274747    98A      0.276715    99A      0.276743  
     100A      0.279053   101A      0.279057   102A      0.283070  
     103A      0.283083   104A      0.283428   105A      0.285065  
     106A      0.285072   107A      0.289179   108A      0.289183  
     109A      0.295105   110A      0.295207   111A      0.301652  
     112A      0.301678   113A      0.304981   114A      0.304988  
     115A      0.310250   116A      0.311129   117A      0.311144  
     118A      0.311914   119A      0.312583   120A      0.312610  
     121A      0.317191   122A      0.321669   123A      0.325573  
     124A      0.326800   125A      0.326834   126A      0.328602  
     127A      0.328615   128A      0.330550   129A      0.330556  
     130A      0.337983   131A      0.338010   132A      0.338432  
     133A      0.344323   134A      0.344341   135A      0.349372  
     136A      0.349413   137A      0.349716   138A      0.353928  
     139A      0.354119   140A      0.354275   141A      0.354308  
     142A      0.357704   143A      0.357711   144A      0.361289  
     145A      0.361290   146A      0.363187   147A      0.367762  
     148A      0.371248   149A      0.383273   150A      0.386728  
     151A      0.386737   152A      0.389178   153A      0.389232  
     154A      0.390072   155A      0.393069   156A      0.393086  
     157A      0.393517   158A      0.403097   159A      0.403099  
     160A      0.403600   161A      0.408407   162A      0.410272  
     163A      0.410295   164A      0.411540   165A      0.411591  
     166A      0.413136   167A      0.413985   168A      0.419922  
     169A      0.426490   170A      0.427009   171A      0.427065  
     172A      0.435671   173A      0.435701   174A      0.436419  
     175A      0.436458   176A      0.442478   177A      0.442635  
     178A      0.443005   179A      0.443360   180A      0.444571  
     181A      0.446792   182A      0.446819   183A      0.452034  
     184A      0.452372   185A      0.452754   186A      0.453877  
     187A      0.456914   188A      0.460358   189A      0.460591  
     190A      0.463571   191A      0.463632   192A      0.466716  
     193A      0.466804   194A      0.468790   195A      0.468818  
     196A      0.479031   197A      0.479043   198A      0.484258  
     199A      0.484267   200A      0.484837   201A      0.491845  
     202A      0.492668   203A      0.492711   204A      0.500107  
     205A      0.502927   206A      0.506230   207A      0.506265  
     208A      0.506466   209A      0.508519   210A      0.513892  
     211A      0.513925   212A      0.514926   213A      0.515082  
     214A      0.515215   215A      0.519223   216A      0.519270  
     217A      0.519973   218A      0.521766   219A      0.521790  
     220A      0.521869   221A      0.525723   222A      0.525775  
     223A      0.530168   224A      0.530202   225A      0.531529  
     226A      0.535937   227A      0.541227   228A      0.541252  
     229A      0.542622   230A      0.554417   231A      0.554493  
     232A      0.555289   233A      0.555434   234A      0.560701  
     235A      0.560792   236A      0.561939   237A      0.563806  
     238A      0.564160   239A      0.564184   240A      0.566454  
     241A      0.569645   242A      0.569672   243A      0.570223  
     244A      0.570330   245A      0.576135   246A      0.579629  
     247A      0.580346   248A      0.580476   249A      0.588772  
     250A      0.588819   251A      0.590992   252A      0.599330  
     253A      0.603438   254A      0.603555   255A      0.604617  
     256A      0.606183   257A      0.606217   258A      0.607520  
     259A      0.607539   260A      0.608108   261A      0.609209  
     262A      0.609853   263A      0.614159   264A      0.614235  
     265A      0.626506   266A      0.629632   267A      0.632558  
     268A      0.633771   269A      0.633842   270A      0.636330  
     271A      0.636360   272A      0.640855   273A      0.645744  
     274A      0.646626   275A      0.646761   276A      0.648054  
     277A      0.648118   278A      0.655408   279A      0.658336  
     280A      0.658820   281A      0.661096   282A      0.661114  
     283A      0.666973   284A      0.667045   285A      0.676893  
     286A      0.677431   287A      0.677474   288A      0.678653  
     289A      0.678763   290A      0.686813   291A      0.687518  
     292A      0.687608   293A      0.694179   294A      0.694188  
     295A      0.696014   296A      0.696051   297A      0.702934  
     298A      0.703010   299A      0.711207   300A      0.714483  
     301A      0.714515   302A      0.721028   303A      0.724893  
     304A      0.726765   305A      0.726775   306A      0.726960  
     307A      0.728948   308A      0.729056   309A      0.737174  
     310A      0.739871   311A      0.739912   312A      0.743230  
     313A      0.743292   314A      0.743677   315A      0.751740  
     316A      0.758837   317A      0.760154   318A      0.760370  
     319A      0.767971   320A      0.768005   321A      0.768652  
     322A      0.773333   323A      0.773580   324A      0.773629  
     325A      0.776420   326A      0.776502   327A      0.780975  
     328A      0.787307   329A      0.790372   330A      0.790402  
     331A      0.793358   332A      0.798653   333A      0.798706  
     334A      0.803835   335A      0.808293   336A      0.808408  
     337A      0.811836   338A      0.811974   339A      0.821662  
     340A      0.821715   341A      0.823009   342A      0.825306  
     343A      0.825600   344A      0.825953   345A      0.837616  
     346A      0.837656   347A      0.839233   348A      0.840856  
     349A      0.841807   350A      0.841850   351A      0.854799  
     352A      0.857422   353A      0.857469   354A      0.859265  
     355A      0.859309   356A      0.861727   357A      0.861908  
     358A      0.875060   359A      0.877796   360A      0.878355  
     361A      0.878643   362A      0.878880   363A      0.880018  
     364A      0.880031   365A      0.883086   366A      0.885519  
     367A      0.885589   368A      0.885870   369A      0.888532  
     370A      0.888642   371A      0.891166   372A      0.891974  
     373A      0.906933   374A      0.906994   375A      0.909246  
     376A      0.911926   377A      0.911935   378A      0.926360  
     379A      0.926615   380A      0.927322   381A      0.933001  
     382A      0.933018   383A      0.958733   384A      0.967626  
     385A      0.968910   386A      0.968933   387A      0.981711  
     388A      0.982615   389A      0.982638   390A      0.984175  
     391A      0.984229   392A      0.986541   393A      0.986652  
     394A      0.987365   395A      0.999377   396A      1.022295  
     397A      1.022446   398A      1.032633   399A      1.032660  
     400A      1.037154   401A      1.043917   402A      1.043953  
     403A      1.056251   404A      1.056283   405A      1.063451  
     406A      1.064135   407A      1.069338   408A      1.071404  
     409A      1.071455   410A      1.072355   411A      1.072459  
     412A      1.103148   413A      1.103267   414A      1.109096  
     415A      1.132055   416A      1.132121   417A      1.145653  
     418A      1.145668   419A      1.148885   420A      1.156748  
     421A      1.156791   422A      1.164825   423A      1.164866  
     424A      1.183618   425A      1.183645   426A      1.184496  
     427A      1.195645   428A      1.248217   429A      1.254256  
     430A      1.254282   431A      1.254742   432A      1.254787  
     433A      1.264494   434A      1.264505   435A      1.270829  
     436A      1.289202   437A      1.289249   438A      1.311364  
     439A      1.311374   440A      1.316999   441A      1.328102  
     442A      1.329114   443A      1.366700   444A      1.366842  
     445A      1.389414   446A      1.395181   447A      1.395260  
     448A      1.398737   449A      1.398798   450A      1.403760  
     451A      1.411287   452A      1.411352   453A      1.424025  
     454A      1.428930   455A      1.449487   456A      1.466073  
     457A      1.466131   458A      1.520828   459A      1.550045  
     460A      1.550319   461A      1.562667   462A      1.562702  
     463A      1.570347   464A      1.570435   465A      1.577830  
     466A      1.585642   467A      1.586191   468A      1.591896  
     469A      1.648786   470A      1.656484   471A      1.656693  
     472A      1.670093   473A      1.670780   474A      1.673012  
     475A      1.681182   476A      1.681210   477A      1.687133  
     478A      1.697565   479A      1.730094   480A      1.740936  
     481A      1.741481   482A      1.757425   483A      1.763243  
     484A      1.764091   485A      1.778392   486A      1.782144  
     487A      1.783193   488A      1.791234   489A      1.792190  
     490A      1.801882   491A      1.817771   492A      1.834849  
     493A      1.835691   494A      1.837148   495A      1.837805  
     496A      1.839300   497A      1.844089   498A      1.844335  
     499A      1.845715   500A      1.863037   501A      1.871017  
     502A      1.873683   503A      1.873910   504A      1.881426  
     505A      1.882135   506A      1.885377   507A      1.886541  
     508A      1.909019   509A      1.911366   510A      1.914814  
     511A      1.915369   512A      1.915631   513A      1.918923  
     514A      1.919734   515A      1.920190   516A      1.924845  
     517A      1.927649   518A      1.927821   519A      1.928624  
     520A      1.936875   521A      1.937633   522A      1.937830  
     523A      1.948365   524A      1.949350   525A      1.965975  
     526A      1.967736   527A      1.968691   528A      1.968943  
     529A      1.973837   530A      1.978739   531A      1.978945  
     532A      1.985189   533A      1.990353   534A      1.990548  
     535A      2.001695   536A      2.001725   537A      2.005777  
     538A      2.007256   539A      2.007340   540A      2.009700  
     541A      2.011986   542A      2.012435   543A      2.017972  
     544A      2.018605   545A      2.024170   546A      2.024489  
     547A      2.030170   548A      2.038343   549A      2.043020  
     550A      2.043093   551A      2.043198   552A      2.053020  
     553A      2.053107   554A      2.058197   555A      2.058269  
     556A      2.062827   557A      2.067897   558A      2.068335  
     559A      2.077928   560A      2.078160   561A      2.082903  
     562A      2.083114   563A      2.083402   564A      2.088931  
     565A      2.089814   566A      2.089825   567A      2.090556  
     568A      2.094768   569A      2.097070   570A      2.097184  
     571A      2.119084   572A      2.119474   573A      2.126581  
     574A      2.131374   575A      2.131586   576A      2.149514  
     577A      2.149599   578A      2.159087   579A      2.167355  
     580A      2.167506   581A      2.168019   582A      2.168276  
     583A      2.177572   584A      2.183934   585A      2.184941  
     586A      2.185200   587A      2.185332   588A      2.185511  
     589A      2.190101   590A      2.205243   591A      2.215202  
     592A      2.215368   593A      2.216280   594A      2.222369  
     595A      2.222434   596A      2.225361   597A      2.225593  
     598A      2.225661   599A      2.228820   600A      2.232197  
     601A      2.233868   602A      2.233933   603A      2.237671  
     604A      2.237704   605A      2.238058   606A      2.242097  
     607A      2.245223   608A      2.245239   609A      2.246187  
     610A      2.246282   611A      2.250721   612A      2.250895  
     613A      2.252535   614A      2.252575   615A      2.253209  
     616A      2.255451   617A      2.255482   618A      2.262658  
     619A      2.263024   620A      2.263230   621A      2.265272  
     622A      2.265318   623A      2.272867   624A      2.276978  
     625A      2.280048   626A      2.280105   627A      2.280751  
     628A      2.280930   629A      2.284200   630A      2.284260  
     631A      2.287511   632A      2.287665   633A      2.289825  
     634A      2.291046   635A      2.311783   636A      2.311824  
     637A      2.323823   638A      2.327764   639A      2.334121  
     640A      2.336971   641A      2.338476   642A      2.338519  
     643A      2.339461   644A      2.339778   645A      2.342576  
     646A      2.342608   647A      2.354210   648A      2.354260  
     649A      2.365036   650A      2.365749   651A      2.366306  
     652A      2.366500   653A      2.367630   654A      2.369693  
     655A      2.370096   656A      2.372915   657A      2.373073  
     658A      2.378590   659A      2.378637   660A      2.384777  
     661A      2.397538   662A      2.397651   663A      2.402002  
     664A      2.402490   665A      2.402529   666A      2.406714  
     667A      2.423371   668A      2.423404   669A      2.426550  
     670A      2.435449   671A      2.435491   672A      2.446764  
     673A      2.449514   674A      2.449672   675A      2.449848  
     676A      2.452535   677A      2.461926   678A      2.462027  
     679A      2.462383   680A      2.463831   681A      2.469264  
     682A      2.469339   683A      2.470974   684A      2.471024  
     685A      2.471833   686A      2.479880   687A      2.485869  
     688A      2.489141   689A      2.489274   690A      2.501921  
     691A      2.504598   692A      2.504965   693A      2.509654  
     694A      2.509854   695A      2.512061   696A      2.512953  
     697A      2.512997   698A      2.519241   699A      2.520045  
     700A      2.536873   701A      2.536946   702A      2.558595  
     703A      2.558641   704A      2.562682   705A      2.562816  
     706A      2.563059   707A      2.568065   708A      2.573682  
     709A      2.573775   710A      2.578479   711A      2.578922  
     712A      2.583643   713A      2.586699   714A      2.595345  
     715A      2.595369   716A      2.599013   717A      2.599139  
     718A      2.604257   719A      2.613731   720A      2.614271  
     721A      2.618190   722A      2.619842   723A      2.620464  
     724A      2.628577   725A      2.628652   726A      2.632407  
     727A      2.640302   728A      2.645344   729A      2.645423  
     730A      2.652213   731A      2.652528   732A      2.655490  
     733A      2.656640   734A      2.656830   735A      2.658494  
     736A      2.662995   737A      2.669120   738A      2.669275  
     739A      2.682307   740A      2.682418   741A      2.688134  
     742A      2.698244   743A      2.698261   744A      2.716192  
     745A      2.716293   746A      2.718261   747A      2.722371  
     748A      2.723117   749A      2.723277   750A      2.730324  
     751A      2.733792   752A      2.734277   753A      2.744666  
     754A      2.747746   755A      2.748153   756A      2.754539  
     757A      2.754593   758A      2.755512   759A      2.755795  
     760A      2.765974   761A      2.771500   762A      2.771840  
     763A      2.780864   764A      2.780870   765A      2.793555  
     766A      2.793667   767A      2.798013   768A      2.798919  
     769A      2.809075   770A      2.809182   771A      2.809757  
     772A      2.816132   773A      2.816148   774A      2.816928  
[...]
     724A      1.445434   725A      1.447965   726A      1.448346  
     727A      1.448742   728A      1.451279   729A      1.455312  
     730A      1.455342   731A      1.465137   732A      1.465173  
     733A      1.479991   734A      1.480006   735A      1.501355  
     736A      1.512238   737A      1.512633   738A      1.521287  
     739A      1.521331   740A      1.525223   741A      1.525286  
     742A      1.538381   743A      1.552591   744A      1.595576  
     745A      1.604025   746A      1.604255   747A      1.604803  
     748A      1.610606   749A      1.610750   750A      1.621377  
     751A      1.621447   752A      1.623524   753A      1.631467  
     754A      1.631527   755A      1.638973   756A      1.639358  
     757A      1.643735   758A      1.644298   759A      1.644406  
     760A      1.644869   761A      1.645567   762A      1.645641  
     763A      1.654269   764A      1.662362   765A      1.662387  
     766A      1.665418   767A      1.667641   768A      1.676726  
     769A      1.676780   770A      1.677543   771A      1.679515  
     772A      1.679547   773A      1.685258   774A      1.689397  
     775A      1.689521   776A      1.690030   777A      1.697879  
     778A      1.699079   779A      1.699127   780A      1.706863  
     781A      1.706944   782A      1.707020   783A      1.714878  
     784A      1.714940   785A      1.730693   786A      1.742123  
     787A      1.751767   788A      1.761201   789A      1.761462  
     790A      1.762298   791A      1.762318   792A      1.762962  
     793A      1.763200   794A      1.781441   795A      1.781549  
     796A      1.793559   797A      1.793597   798A      1.817194  
     799A      1.817283   800A      1.817337   801A      1.825059  
     802A      1.825180   803A      1.834203   804A      1.834260  
     805A      1.838707   806A      1.842547   807A      1.846305  
     808A      1.848634   809A      1.848692   810A      1.858032  
     811A      1.863441   812A      1.863480   813A      1.865785  
     814A      1.866523   815A      1.871691   816A      1.871772  
     817A      1.879950   818A      1.883492   819A      1.883579  
     820A      1.898032   821A      1.898073   822A      1.900064  
     823A      1.908093   824A      1.908313   825A      1.911838  
     826A      1.912135   827A      1.912272   828A      1.919070  
     829A      1.919233   830A      1.920614   831A      1.920964  
     832A      1.921198   833A      1.923516   834A      1.923637  
     835A      1.941535   836A      1.943674   837A      1.945155  
     838A      1.945290   839A      1.948823   840A      1.948860  
     841A      1.955620   842A      1.955742   843A      1.958277  
     844A      1.967656   845A      1.967806   846A      1.978392  
     847A      1.992089   848A      1.992212   849A      1.997380  
     850A      2.002247   851A      2.002294   852A      2.003405  
     853A      2.009410   854A      2.010336   855A      2.014405  
     856A      2.014587   857A      2.029775   858A      2.031188  
     859A      2.031406   860A      2.031649   861A      2.035356  
     862A      2.036848   863A      2.037012   864A      2.048374  
     865A      2.054623   866A      2.054839   867A      2.062396  
     868A      2.062755   869A      2.068916   870A      2.069120  
     871A      2.070809   872A      2.076813   873A      2.077292  
     874A      2.079170   875A      2.079200   876A      2.080581  
     877A      2.087156   878A      2.094514   879A      2.096016  
     880A      2.098434   881A      2.099847   882A      2.100546  
     883A      2.100670   884A      2.103161   885A      2.103281  
     886A      2.110353   887A      2.110459   888A      2.112131  
     889A      2.115351   890A      2.118991   891A      2.119122  
     892A      2.119634   893A      2.122137   894A      2.122335  
     895A      2.123705   896A      2.123755   897A      2.132339  
     898A      2.132668   899A      2.134778   900A      2.137294  
     901A      2.137385   902A      2.141537   903A      2.144485  
     904A      2.144542   905A      2.152422   906A      2.163393  
     907A      2.163470   908A      2.163888   909A      2.174409  
     910A      2.174533   911A      2.175521   912A      2.181543  
     913A      2.181642   914A      2.193070   915A      2.195263  
     916A      2.195512   917A      2.196546   918A      2.197970  
     919A      2.198084   920A      2.219909   921A      2.221903  
     922A      2.221971   923A      2.223344   924A      2.232129  
     925A      2.235753   926A      2.236198   927A      2.236877  
     928A      2.245510   929A      2.245636   930A      2.246534  
     931A      2.246673   932A      2.248740   933A      2.262087  
     934A      2.262146   935A      2.270790   936A      2.270808  
     937A      2.272978   938A      2.273006   939A      2.281259  
     940A      2.301461   941A      2.306975   942A      2.316846  
     943A      2.317667   944A      2.328325   945A      2.332323  
     946A      2.332429   947A      2.339076   948A      2.341728  
     949A      2.352974   950A      2.353391   951A      2.353840  
     952A      2.354220   953A      2.355565   954A      2.369283  
     955A      2.369504   956A      2.376437   957A      2.396507  
     958A      2.417134   959A      2.424402   960A      2.424758  
     961A      2.424793   962A      2.436625   963A      2.442084  
     964A      2.442110   965A      2.471088   966A      2.479335  
     967A      2.479482   968A      2.489720   969A      2.489747  
     970A      2.504404   971A      2.522856   972A      2.531237  
     973A      2.538748   974A      2.547113   975A      2.547132  
     976A      2.549800   977A      2.554606   978A      2.554656  
     979A      2.555106   980A      2.560475   981A      2.560477  
     982A      2.573391   983A      2.573419   984A      2.576861  
     985A      2.577301   986A      2.587365   987A      2.587444  
     988A      2.589780   989A      2.592970   990A      2.593819  
     991A      2.610067   992A      2.625429   993A      2.625499  
     994A      2.632647   995A      2.633133   996A      2.633818  
     997A      2.643209   998A      2.643288   999A      2.653835  
    1000A      2.654144  1001A      2.658458  1002A      2.684447  
    1003A      2.687829  1004A      2.688689  1005A      2.696795  
    1006A      2.707294  1007A      2.707687  1008A      2.713439  
    1009A      2.713464  1010A      2.719251  1011A      2.719283  
    1012A      2.725230  1013A      2.725438  1014A      2.749420  
    1015A      2.757978  1016A      2.758299  1017A      2.777458  
    1018A      2.797404  1019A      2.797483  1020A      2.827966  
    1021A      2.828038  1022A      2.829333  1023A      2.856296  
    1024A      2.856512  1025A      2.856601  1026A      2.858653  
    1027A      2.862986  1028A      2.863200  1029A      2.865249  
    1030A      2.879562  1031A      2.893843  1032A      2.894363  
    1033A      2.920014  1034A      2.920047  1035A      2.928559  
    1036A      2.937304  1037A      2.937367  1038A      2.954372  
    1039A      2.954502  1040A      2.963924  1041A      3.013604  
    1042A      3.016998  1043A      3.017196  1044A      3.042674  
    1045A      3.064728  1046A      3.064778  1047A      3.072952  
    1048A      3.073008  1049A      3.117847  1050A      3.118472  
    1051A      3.132466  1052A      3.133028  1053A      3.133255  
    1054A      3.138948  1055A      3.148045  1056A      3.148099  
    1057A      3.148158  1058A      3.151240  1059A      3.151260  
    1060A      3.162976  1061A      3.163676  1062A      3.168485  
    1063A      3.169107  1064A      3.191927  1065A      3.211301  
    1066A      3.221826  1067A      3.245983  1068A      3.277934  
    1069A      3.278098  1070A      3.279243  1071A      3.289242  
    1072A      3.289341  1073A      3.420611  1074A      3.420952  
    1075A      3.463131  1076A      3.490289  1077A      3.492055  
    1078A      3.554385  1079A      3.592078  1080A      3.593735  
    1081A      3.605408  1082A      3.630706  1083A      3.632238  
    1084A      3.665013  1085A      3.674220  1086A      3.774329  
    1087A      3.795345  1088A      3.796369  1089A      3.871557  
    1090A      3.871578  1091A      3.914710  1092A      3.914777  
    1093A      3.977954  1094A      4.011662  1095A      4.063066  
    1096A      4.072688  1097A      4.118031  1098A      4.384229  
    1099A      4.464528  1100A      4.464800  1101A      4.506273  
    1102A      5.763255  1103A      5.763269  1104A      5.764388  
    1105A      5.770403  1106A      5.770461  1107A      5.771432  
    1108A      5.775324  1109A      5.775382  1110A      5.816333  
    1111A      5.816400  1112A      5.828920  1113A      6.029203  
    1114A      6.029531  1115A      6.034065  1116A      6.210516  
    1117A      6.334892  1118A      6.335190  1119A      6.394098  
    1120A      6.394470  1121A      6.399649  1122A      7.300323  
    1123A      7.300540  1124A      7.348935  1125A      7.349171  
    1126A      7.360070  1127A      7.408948  1128A      7.409338  
    1129A      7.482347  1130A      7.554207  1131A      7.647266  
    1132A      7.647427  1133A      7.812041  1134A     12.733916  
    1135A     42.944128  1136A     42.968369  1137A     42.968436  
    1138A     42.974313  

    Final Occupation by Irrep:
              A 
    DOCC [   171 ]
    NA   [   171 ]
    NB   [   171 ]

  @DF-RHF Final Energy: -2055.89413368625947

   => Energetics <=

    Nuclear Repulsion Energy =           6452.5568002797781446
    One-Electron Energy =              -15636.4899708691245905
    Two-Electron Energy =                7128.0390369030865259
    Total Energy =                      -2055.8941336862590106

Computation Completed


Properties will be evaluated at   0.000000,   0.000000,   0.000000 [a0]

Properties computed using the SCF density matrix


 Multipole Moments:

 ------------------------------------------------------------------------------------
     Multipole            Electronic (a.u.)      Nuclear  (a.u.)        Total (a.u.)
 ------------------------------------------------------------------------------------

 L = 1.  Multiply by 2.5417464519 to convert [e a0] to [Debye]
 Dipole X            :          0.0000188            0.0000419            0.0000607
 Dipole Y            :          0.0000538           -0.0000426            0.0000112
 Dipole Z            :        261.3069961         -261.3057536            0.0012425
 Magnitude           :                                                    0.0012441

 ------------------------------------------------------------------------------------

*** tstop() called on n2cn0481 at Wed Feb  7 00:35:53 2024
Module time:
	user time   =    2749.68 seconds =      45.83 minutes
	system time =      78.88 seconds =       1.31 minutes
	total time  =        199 seconds =       3.32 minutes
Total time:
	user time   =    9416.88 seconds =     156.95 minutes
	system time =     264.21 seconds =       4.40 minutes
	total time  =        725 seconds =      12.08 minutes
  Constructing Basis Sets for SAPT...

   => Loading Basis Set <=

    Name: (JUN-CC-PVDZ AUX)
    Role: RIFIT
    Keyword: DF_BASIS_SAPT
    atoms 1     entry B          line    56 file /opt/software/pc2/EB-SW/software/PSI4/1.9-foss-2022a/share/psi4/basis/jun-cc-pvdz-ri.gbs 
    atoms 2-5   entry F          line   232 file /opt/software/pc2/EB-SW/software/PSI4/1.9-foss-2022a/share/psi4/basis/jun-cc-pvdz-ri.gbs 
    atoms 6-59  entry C          line   100 file /opt/software/pc2/EB-SW/software/PSI4/1.9-foss-2022a/share/psi4/basis/jun-cc-pvdz-ri.gbs 
    atoms 60-77 entry H          line    30 file /opt/software/pc2/EB-SW/software/PSI4/1.9-foss-2022a/share/psi4/basis/jun-cc-pvdz-ri.gbs 

   => Loading Basis Set <=

    Name: (JUN-CC-PVDZ AUX)
    Role: JKFIT
    Keyword: DF_BASIS_ELST
    atoms 1     entry B          line    90 file /opt/software/pc2/EB-SW/software/PSI4/1.9-foss-2022a/share/psi4/basis/jun-cc-pvdz-jkfit.gbs 
    atoms 2-5   entry F          line   314 file /opt/software/pc2/EB-SW/software/PSI4/1.9-foss-2022a/share/psi4/basis/jun-cc-pvdz-jkfit.gbs 
    atoms 6-59  entry C          line   146 file /opt/software/pc2/EB-SW/software/PSI4/1.9-foss-2022a/share/psi4/basis/jun-cc-pvdz-jkfit.gbs 
    atoms 60-77 entry H          line    70 file /opt/software/pc2/EB-SW/software/PSI4/1.9-foss-2022a/share/psi4/basis/jun-cc-pvdz-jkfit.gbs 


  //>>>>>>>>>>>>>>>>>>>>>>>>>>>>>>>>>>>//
  //               SSAPT0              //
  //<<<<<<<<<<<<<<<<<<<<<<<<<<<<<<<<<<<//


*** tstart() called on n2cn0481
*** at Wed Feb  7 00:35:54 2024

        SAPT0  
    Ed Hohenstein
     6 June 2009

      Orbital Information
  --------------------------
    NSO        =      1152
    NMO        =      1138
    NRI        =      4087
    NRI (Elst) =      5075
    NOCC A     =        21
    NOCC B     =       171
    FOCC A     =         5
    FOCC B     =        54
    NVIR A     =      1117
    NVIR B     =       967

    Elst10,r            =     0.008864976355 [Eh]
    Exch10              =     0.012826196510 [Eh]
    Exch10 (S^2)        =     0.012810951079 [Eh]

    Iter     Energy [mEh]          dE [mEh]         Residual      Time [s]
       1      -1.14423577       1.144235774       5.169210897            17
       2      -1.42151665       0.277280871       1.789994554            32
       3      -1.43823707       0.016720420       0.316038004            46
       4      -1.43453700      -0.003700066       0.089390202            60
       5      -1.43452082      -0.000016175       0.027155917            74
       6      -1.43465986       0.000139039       0.006863919            89
       7      -1.43467916       0.000019299       0.001252588           103
       8      -1.43467203      -0.000007128       0.000232234           117
       9      -1.43467261       0.000000581       0.000049040           132
      10      -1.43467269       0.000000073       0.000007178           146
      11      -1.43467266      -0.000000024       0.000001349           160
      12      -1.43467267       0.000000003       0.000000320           174

    CHF Iterations converged


    Iter     Energy [mEh]          dE [mEh]         Residual      Time [s]
       1     -25.85393556      25.853935557      82.465858266            15
       2     -18.00878737      -7.845148183      10.564336371            36
       3     -18.01875416       0.009966784       3.484588768            47
       4     -18.37078229       0.352028129       0.922436831            58
       5     -18.39315899       0.022376709       0.315765046            68
       6     -18.37634850      -0.016810492       0.140065136            78
       7     -18.37480463      -0.001543873       0.059749215            89
       8     -18.37709762       0.002292992       0.021110312            99
       9     -18.37735856       0.000260938       0.008630797           109
      10     -18.37714977      -0.000208792       0.005140654           119
      11     -18.37710435      -0.000045414       0.003134093           130
      12     -18.37714741       0.000043054       0.002060723           140
      13     -18.37717347       0.000026063       0.001022040           150
      14     -18.37715942      -0.000014050       0.000508738           160
      15     -18.37715305      -0.000006373       0.000188278           170
      16     -18.37715601       0.000002964       0.000082477           181
      17     -18.37715689       0.000000875       0.000033138           191
      18     -18.37715674      -0.000000144       0.000011493           201
      19     -18.37715651      -0.000000233       0.000005676           211
      20     -18.37715652       0.000000010       0.000003189           222
      21     -18.37715659       0.000000067       0.000001705           232
      22     -18.37715658      -0.000000006       0.000000977           242

    CHF Iterations converged

    Ind20,r (A<-B)      =    -0.001434672667 [Eh]
    Ind20,r (B<-A)      =    -0.018377156582 [Eh]
    Ind20,r             =    -0.019811829248 [Eh]
    Exch-Ind20,r (A<-B) =     0.001320590948 [Eh]
    Exch-Ind20,r (B<-A) =     0.002826045033 [Eh]
    Exch-Ind20,r        =     0.004146635981 [Eh]
    Disp20              =    -0.013362547121 [Eh]
    Disp20 (SS)         =    -0.006681273560 [Eh]
    Disp20 (OS)         =    -0.006681273560 [Eh]
    Exch-Disp20         =     0.001733058706 [Eh]
    Exch-Disp20 (SS)    =     0.001011622302 [Eh]
    Exch-Disp20 (OS)    =     0.000721436404 [Eh]

    SAPT Results 
  --------------------------------------------------------------------------------------------------------
    Electrostatics                  8.86497635 [mEh]       5.56285665 [kcal/mol]      23.27499221 [kJ/mol]
      Elst10,r                      8.86497635 [mEh]       5.56285665 [kcal/mol]      23.27499221 [kJ/mol]

    Exchange                       12.82619651 [mEh]       8.04855982 [kcal/mol]      33.67517430 [kJ/mol]
      Exch10                       12.82619651 [mEh]       8.04855982 [kcal/mol]      33.67517430 [kJ/mol]
      Exch10(S^2)                  12.81095108 [mEh]       8.03899317 [kcal/mol]      33.63514742 [kJ/mol]

    Induction                     -16.62695862 [mEh]     -10.43357406 [kcal/mol]     -43.65407385 [kJ/mol]
      Ind20,r                     -19.81182925 [mEh]     -12.43211055 [kcal/mol]     -52.01595053 [kJ/mol]
      Exch-Ind20,r                  4.14663598 [mEh]       2.60205336 [kcal/mol]      10.88699127 [kJ/mol]
      delta HF,r (2)               -0.96176536 [mEh]      -0.60351687 [kcal/mol]      -2.52511459 [kJ/mol]

    Dispersion                    -11.62948841 [mEh]      -7.29761416 [kcal/mol]     -30.53321763 [kJ/mol]
      Disp20                      -13.36254712 [mEh]      -8.38512491 [kcal/mol]     -35.08336263 [kJ/mol]
      Exch-Disp20                   1.73305871 [mEh]       1.08751076 [kcal/mol]       4.55014501 [kJ/mol]
      Disp20 (SS)                  -6.68127356 [mEh]      -4.19256246 [kcal/mol]     -17.54168132 [kJ/mol]
      Disp20 (OS)                  -6.68127356 [mEh]      -4.19256246 [kcal/mol]     -17.54168132 [kJ/mol]
      Exch-Disp20 (SS)              1.01162230 [mEh]       0.63480258 [kcal/mol]       2.65601399 [kJ/mol]
      Exch-Disp20 (OS)              0.72143640 [mEh]       0.45270818 [kcal/mol]       1.89413102 [kJ/mol]

  Total HF                          5.06421424 [mEh]       3.17784241 [kcal/mol]      13.29609266 [kJ/mol]
  Total SAPT0                      -6.56527417 [mEh]      -4.11977174 [kcal/mol]     -17.23712497 [kJ/mol]

  Special recipe for scaled SAPT0 (see Manual):
    Electrostatics sSAPT0           8.86497635 [mEh]       5.56285665 [kcal/mol]      23.27499221 [kJ/mol]
    Exchange sSAPT0                12.82619651 [mEh]       8.04855982 [kcal/mol]      33.67517430 [kJ/mol]
    Induction sSAPT0              -16.61213712 [mEh]     -10.42427342 [kcal/mol]     -43.61516000 [kJ/mol]
    Dispersion sSAPT0             -11.62329387 [mEh]      -7.29372702 [kcal/mol]     -30.51695384 [kJ/mol]
  Total sSAPT0                     -6.54425812 [mEh]      -4.10658397 [kcal/mol]     -17.18194734 [kJ/mol]
  --------------------------------------------------------------------------------------------------------

*** tstop() called on n2cn0481 at Wed Feb  7 00:57:41 2024
Module time:
	user time   =    9098.31 seconds =     151.64 minutes
	system time =     545.91 seconds =       9.10 minutes
	total time  =       1307 seconds =      21.78 minutes
Total time:
	user time   =   18515.89 seconds =     308.60 minutes
	system time =     810.12 seconds =      13.50 minutes
	total time  =       2033 seconds =      33.88 minutes

    Psi4 stopped on: Wednesday, 07 February 2024 12:57AM
    Psi4 wall time for execution: 0:33:53.40

*** Psi4 exiting successfully. Buy a developer a beer!
