
    -----------------------------------------------------------------------
          Psi4: An Open-Source Ab Initio Electronic Structure Package
                               Psi4 1.9 release

                         Git: Rev {} zzzzzzz 


    D. G. A. Smith, L. A. Burns, A. C. Simmonett, R. M. Parrish,
    M. C. Schieber, R. Galvelis, P. Kraus, H. Kruse, R. Di Remigio,
    A. Alenaizan, A. M. James, S. Lehtola, J. P. Misiewicz, M. Scheurer,
    R. A. Shaw, J. B. Schriber, Y. Xie, Z. L. Glick, D. A. Sirianni,
    J. S. O'Brien, J. M. Waldrop, A. Kumar, E. G. Hohenstein,
    B. P. Pritchard, B. R. Brooks, H. F. Schaefer III, A. Yu. Sokolov,
    K. Patkowski, A. E. DePrince III, U. Bozkaya, R. A. King,
    F. A. Evangelista, J. M. Turney, T. D. Crawford, C. D. Sherrill,
    J. Chem. Phys. 152(18) 184108 (2020). https://doi.org/10.1063/5.0006002

                            Additional Code Authors
    E. T. Seidl, C. L. Janssen, E. F. Valeev, M. L. Leininger,
    J. F. Gonthier, R. M. Richard, H. R. McAlexander, M. Saitow, X. Wang,
    P. Verma, M. H. Lechner, A. Jiang, S. Behnle, A. G. Heide,
    M. F. Herbst, and D. L. Poole

             Previous Authors, Complete List of Code Contributors,
                       and Citations for Specific Modules
    https://github.com/psi4/psi4/blob/master/codemeta.json
    https://github.com/psi4/psi4/graphs/contributors
    http://psicode.org/psi4manual/master/introduction.html#citing-psifour

    -----------------------------------------------------------------------


    Psi4 started on: Wednesday, 24 January 2024 06:29PM

    Process ID: 3204502
    Host:       n2cn0267
    PSIDATADIR: /opt/software/pc2/EB-SW/software/PSI4/1.9-foss-2022a/share/psi4
    Memory:     500.0 MiB
    Threads:    16
    
  ==> Input File <==

--------------------------------------------------------------------------
memory 47 GB # how much memory is available ! Depends on the nodes/cores !

molecule dimer {
# monomer A
+1 1    # Charge and multiplicity
C  0.680067 1.417258 -8.815929
C -0.680504 1.419286 -8.815545
N -1.085635 1.420284 -7.497221
C  0.000108 1.423560 -6.715820
C -2.477365 1.469690 -7.029242
N  1.085222 1.420284 -7.497221
H  1.385146 1.409430 -9.633368
H -1.385302 1.419096 -9.633214
H -0.000009 1.425307 -5.634731
C  2.478117 1.403392 -7.032123
H  2.490592 1.430737 -5.941870
H  2.967028 0.489946 -7.379299
H  3.001428 2.278875 -7.423595
H -2.857359 2.491761 -7.109201
H -3.082679 0.799606 -7.642306
H -2.518128 1.142706 -5.989294
--
# monomer B
0 1     # Charge and multiplicity
C   -3.66844126402057      7.80375217008252      0.00190004133558
C   -4.84759871934653      7.13124183134024     -0.00046653359696
C   -4.89495929917518      5.69633040353158     -0.00103944469517
C   -3.65374067877320      4.98073034095895      0.00662099703436
C   -2.40942512149445      7.11398103667468      0.00209438359570
C   -2.42547734410473      5.68112195090346     -0.00491050527438
C   -1.19474401643570      7.78614419430947      0.00356656413763
C   0.03795902893699      7.09942164575698      0.00139585983271
C   0.03033258741920      5.66948955970466     -0.00408752508301
C   -1.20098450790502      4.96927034791531      0.00488220885047
C   1.27795782581485      7.77285944319479      0.00277170839332
C   2.48535808472416      7.08769688523756      0.00049722048857
C   2.48612868491717      5.65477081024076     -0.00644052849921
C   1.25408291964399      4.95607811366431      0.00518741308898
C   3.75171459140595      7.76391215098033      0.00062407186893
C   4.92356605618520      7.07878077698995     -0.00143240883900
C   4.95560727132542      5.64344746336949     -0.00159282164606
C   3.70680153420475      4.94121020833308      0.00349873852374
H   -3.65852113775815      8.89082741913536      0.00358502958574
H   -1.18921332975660      8.87412108735996      0.00753844057883
H   1.28429423888630      8.86083343548850      0.00693053253426
H   3.75354208679975      8.85103527897216      0.00214659618464
H   5.86995870320703      7.61379483465560     -0.00235777588134
H   -5.78823170750226      7.67630221293400     -0.00202638095293
C   -6.09197395869619      4.99326001364347     -0.00291168518608
C   -6.12866148031747      3.58258016879823     -0.00171050815740
C   -3.66457974004527      3.56418217974434     -0.00463560277484
C   -4.89429820469869      2.86108077590057      0.00453338221034
C   -2.43733499489796      2.84761165708481      0.00719617576166
C   -1.20922785759670      3.54788693497833     -0.00648285103018
C   1.24714157216223      3.53468075142962     -0.00729145743546
C   0.01517603956900      2.83311183930540      0.00439272578912
C   2.46764517244071      2.82128997725533      0.00449278391269
C   3.70254947457969      3.52466015442405     -0.00899517692985
C   6.14498038638375      4.92757236613191     -0.00282626685777
C   6.16658835886151      3.51658447594213     -0.00065971342101
C   4.92460995845939      2.80840792535402      0.00587903281610
H   7.08990550964105      5.46688776622306     -0.00658814770723
H   -7.03104175110130      5.54268795285765     -0.00714490013730
C   -7.33969804112295      2.85841153457957     -0.00333767559888
C   -7.36488195805880      1.47032337158330     -0.00157213747140
C   -4.90350460894690      1.44442681216000     -0.00628840166334
C   -6.13225715261081      0.73993935705394      0.00600164231964
C   -3.67687480051673      0.72669714267312      0.00433931473643
C   -2.44565658606518      1.42964113326212     -0.00597039546461
C   -1.22360068130162      0.71532450163492      0.00545886906656
C   0.00763786931376      1.41738314923765      0.00392452278437
C   1.23121980774686      0.70211669058719     -0.01490206287210
C   2.46082110053113      1.40329203612573      0.00460244601878
C   3.68443025419614      0.68719842821222      0.00377365974158
C   4.91870890153864      1.39173456118907     -0.00862816189375
C   7.36980207796101      2.77948220318441     -0.00242013321349
C   7.38016266612146      1.39121750785509     -0.00087345036788
C   6.13979953912259      0.67411862320065      0.00545489144369
H   -8.27919079934664      3.40711804112415     -0.00763522772059
H   8.31511347147953      3.31811809662368     -0.00663070901292
C   -8.59175593758115      0.72483255304480     -0.00123170985383
C   -8.59902460370342     -0.63263980622873      0.00089141472904
C   -6.13981313911873     -0.67413663715361     -0.00609792660607
C   -7.38018411213749     -1.39126618958160      0.00131813493501
C   -4.91868448025621     -1.39175501803000      0.00624257154343
C   -3.68443829568458     -0.68723731573599     -0.00478966852105
C   -2.46081704024768     -1.40334517882457      0.00575341766833
C   -1.23116201232071     -0.70217386488055     -0.00636696112346
C   -0.00756962538737     -1.41741884941102      0.00108956317991
C   1.22364771588843     -0.71527537726392      0.01109518512883
C   2.44567064933149     -1.42964328900682     -0.00065482763106
C   3.67686670284649     -0.72670743155550     -0.00479541202602
C   6.13224884641929     -0.73997883984993     -0.00632338623858
C   4.90351914550401     -1.44445752054090      0.00751768830159
C   8.59901484869081      0.63260386666793     -0.00101133422380
C   8.59174548810050     -0.72485086719319      0.00072504603735
C   7.36486276438985     -1.47033266560598      0.00049486934466
H   -9.52830597181814      1.27684744919284     -0.00270163681798
H   9.54141097460619      1.17457248844457     -0.00206336648518
C   -7.36983790976868     -2.77954514593389      0.00312634335708
C   -4.92459910905015     -2.80843725734101     -0.00460528907921
C   -6.16662249566744     -3.51665219282533      0.00169655107992
C   -3.70251035970491     -3.52468154912026      0.00571878010666
C   -2.46764698511392     -2.82132596280400     -0.00632585824990
C   -0.01513347410770     -2.83314164539971     -0.00604426974092
C   -1.24712184122656     -3.53473217556300      0.00551968366725
C   1.20924506964357     -3.54791467864352      0.00805871345849
C   2.43733602215464     -2.84764173817541     -0.00608104485234
C   4.89430234377080     -2.86112296828604     -0.00526030478103
C   3.66461525504104     -3.56421984553201      0.00761911515957
C   6.12863901474565     -3.58258405771778      0.00096495711699
C   7.33967266469532     -2.85841330737039      0.00248018319869
H   -9.54144911125902     -1.17456346666430      0.00226083090216
H   9.52826186807155     -1.27691907390448      0.00197485379837
H   -8.31516504384864     -3.31814985321231      0.00729857188773
H   8.27915514249207     -3.40714078989363      0.00681973918158
C   -6.14499418870218     -4.92764727278338      0.00302254913999
C   -3.70678334799751     -4.94126171411716     -0.00679841894792
C   -4.95559005800169     -5.64349397349412      0.00116871569699
C   -2.48612132622665     -5.65478557440947      0.00614125209662
C   -1.25405833548005     -4.95612205000132     -0.00503435388927
C   1.20101257386816     -4.96928038819302     -0.00385322963129
C   -0.03033667441341     -5.66952030313900      0.00398997003238
C   3.65375010132847     -4.98074377541453     -0.00309522988330
C   2.42549269587528     -5.68117463552727      0.00628170066869
C   6.09196561781097     -4.99325796338655      0.00325918379042
C   4.89497644461045     -5.69634842095790      0.00202298796027
H   -7.08989238804069     -5.46699984223871      0.00742531082125
H   7.03105520920009     -5.54265853633254      0.00683896355417
C   -4.92354532219813     -7.07882109967734      0.00061394679214
C   -2.48534208823777     -7.08772807792913     -0.00189594564379
C   -3.75168589177895     -7.76394715763627     -0.00170126671874
C   -0.03794895698805     -7.09946487446944     -0.00168022049625
C   -1.27795610040136     -7.77290438466689     -0.00366491325785
C   2.40944432072629     -7.11402201200282     -0.00081701968533
C   1.19474993715296     -7.78618536556242     -0.00296931056689
C   4.84762105249800     -7.13126211057943      0.00168979497423
C   3.66847160587561     -7.80378799294376     -0.00065863938960
H   -5.86994035041618     -7.61383059804164      0.00215798365757
H   5.78824962538815     -7.67633218931421      0.00281691445618
H   -3.75352693944918     -8.85107156923607     -0.00353718114765
H   -1.28430440589466     -8.86087539249706     -0.00809229711623
H   1.18922157469537     -8.87416062058945     -0.00706194725726
H   3.65854661482387     -8.89086063405326     -0.00231318081200

    units angstrom      # Angstroms are the default
    no_reorient         # Geometry fixed, default
    symmetry c1         # C1 symmetry, default
}

set {
    scf_type DF         # Density fitting, faster than exact integrals
    freeze_core True    # Freeze core electrons
    basis jun-cc-pVDZ   # Jun-cc-pVDZ basis set, recommended for sSAPT0 in https://doi.org/10.1063/1.4867135
}

energy('ssapt0')        # Compute sSAPT0 energy, includes also SAPT0
--------------------------------------------------------------------------

  Memory set to  43.772 GiB by Python driver.

Scratch directory: /tmp/
   => Loading Basis Set <=

    Name: JUN-CC-PVDZ
    Role: ORBITAL
    Keyword: BASIS
    atoms 1-2, 4-5, 10, 17-34, 41-53, 56-70, 73-89, 92-104, 109-119, 122-130 entry C          line   164 file /opt/software/pc2/EB-SW/software/PSI4/1.9-foss-2022a/share/psi4/basis/jun-cc-pvdz.gbs 
    atoms 3, 6                                                               entry N          line   198 file /opt/software/pc2/EB-SW/software/PSI4/1.9-foss-2022a/share/psi4/basis/jun-cc-pvdz.gbs 
    atoms 7-9, 11-16, 35-40, 54-55, 71-72, 90-91, 105-108, 120-121, 131-136  entry H          line    36 file /opt/software/pc2/EB-SW/software/PSI4/1.9-foss-2022a/share/psi4/basis/jun-cc-pvdz.gbs 

   => Loading Basis Set <=

    Name: JUN-CC-PVDZ
    Role: ORBITAL
    Keyword: BASIS
    atoms 1-2, 4-5, 10, 17-34, 41-53, 56-70, 73-89, 92-104, 109-119, 122-130 entry C          line   164 file /opt/software/pc2/EB-SW/software/PSI4/1.9-foss-2022a/share/psi4/basis/jun-cc-pvdz.gbs 
    atoms 3, 6                                                               entry N          line   198 file /opt/software/pc2/EB-SW/software/PSI4/1.9-foss-2022a/share/psi4/basis/jun-cc-pvdz.gbs 
    atoms 7-9, 11-16, 35-40, 54-55, 71-72, 90-91, 105-108, 120-121, 131-136  entry H          line    36 file /opt/software/pc2/EB-SW/software/PSI4/1.9-foss-2022a/share/psi4/basis/jun-cc-pvdz.gbs 


  //>>>>>>>>>>>>>>>>>>>>>>>>>>>>>>>>>>>//
  //              Dimer HF             //
  //<<<<<<<<<<<<<<<<<<<<<<<<<<<<<<<<<<<//

   => Libint2 <=

    Primary   basis highest AM E, G, H:  5, 4, 3
    Auxiliary basis highest AM E, G, H:  6, 5, 4
    Onebody   basis highest AM E, G, H:  6, 5, 4
    Solid Harmonics ordering:            gaussian

*** tstart() called on n2cn0267
*** at Wed Jan 24 18:29:10 2024

   => Loading Basis Set <=

    Name: JUN-CC-PVDZ
    Role: ORBITAL
    Keyword: BASIS
    atoms 1-2, 4-5, 10, 17-34, 41-53, 56-70, 73-89, 92-104, 109-119, 122-130 entry C          line   164 file /opt/software/pc2/EB-SW/software/PSI4/1.9-foss-2022a/share/psi4/basis/jun-cc-pvdz.gbs 
    atoms 3, 6                                                               entry N          line   198 file /opt/software/pc2/EB-SW/software/PSI4/1.9-foss-2022a/share/psi4/basis/jun-cc-pvdz.gbs 
    atoms 7-9, 11-16, 35-40, 54-55, 71-72, 90-91, 105-108, 120-121, 131-136  entry H          line    36 file /opt/software/pc2/EB-SW/software/PSI4/1.9-foss-2022a/share/psi4/basis/jun-cc-pvdz.gbs 


         ---------------------------------------------------------
                                   SCF
               by Justin Turney, Rob Parrish, Andy Simmonett
                          and Daniel G. A. Smith
                              RHF Reference
                       16 Threads,  44822 MiB Core
         ---------------------------------------------------------

  ==> Geometry <==

    Molecular point group: c1
    Full point group: C1

    Geometry (in Angstrom), charge = 1, multiplicity = 1:

       Center              X                  Y                   Z               Mass       
    ------------   -----------------  -----------------  -----------------  -----------------
         C            0.680062820275     1.308604348936    -8.236493483346    12.000000000000
         C           -0.680508179725     1.310632348936    -8.236109483346    12.000000000000
         N           -1.085639179725     1.311630348936    -6.917785483346    14.003074004430
         C            0.000103820275     1.314906348936    -6.136384483346    12.000000000000
         C           -2.477369179725     1.361036348936    -6.449806483346    12.000000000000
         N            1.085217820275     1.311630348936    -6.917785483346    14.003074004430
         H            1.385141820275     1.300776348936    -9.053932483346     1.007825032230
         H           -1.385306179725     1.310442348936    -9.053778483346     1.007825032230
         H           -0.000013179725     1.316653348936    -5.055295483346     1.007825032230
         C            2.478112820275     1.294738348936    -6.452687483346    12.000000000000
         H            2.490587820275     1.322083348936    -5.362434483346     1.007825032230
         H            2.967023820275     0.381292348936    -6.799863483346     1.007825032230
         H            3.001423820275     2.170221348936    -6.844159483346     1.007825032230
         H           -2.857363179725     2.383107348936    -6.529765483346     1.007825032230
         H           -3.082683179725     0.690952348936    -7.062870483346     1.007825032230
         H           -2.518132179725     1.034052348936    -5.409858483346     1.007825032230
         C           -3.668445443746     7.695098519018     0.581335557989    12.000000000000
         C           -4.847602899072     7.022588180276     0.578968983057    12.000000000000
         C           -4.894963478901     5.587676752467     0.578396071958    12.000000000000
         C           -3.653744858499     4.872076689895     0.586056513688    12.000000000000
         C           -2.409429301220     7.005327385610     0.581529900249    12.000000000000
         C           -2.425481523830     5.572468299839     0.574525011379    12.000000000000
         C           -1.194748196161     7.677490543245     0.583002080791    12.000000000000
         C            0.037954849212     6.990767994693     0.580831376486    12.000000000000
         C            0.030328407694     5.560835908640     0.575347991571    12.000000000000
         C           -1.200988687630     4.860616696851     0.584317725504    12.000000000000
         C            1.277953646089     7.664205792130     0.582207225047    12.000000000000
         C            2.485353904999     6.979043234173     0.579932737142    12.000000000000
         C            2.486124505192     5.546117159176     0.572994988154    12.000000000000
         C            1.254078739919     4.847424462600     0.584622929743    12.000000000000
         C            3.751710411681     7.655258499916     0.580059588522    12.000000000000
         C            4.923561876460     6.970127125926     0.578003107815    12.000000000000
         C            4.955603091600     5.534793812305     0.577842695007    12.000000000000
         C            3.706797354479     4.832556557269     0.582934255177    12.000000000000
         H           -3.658525317484     8.782173768071     0.583020546239     1.007825032230
         H           -1.189217509482     8.765467436296     0.586973957232     1.007825032230
         H            1.284290059161     8.752179784424     0.586366049188     1.007825032230
         H            3.753537907074     8.742381627908     0.581582112838     1.007825032230
         H            5.869954523482     7.505141183591     0.577077740772     1.007825032230
         H           -5.788235887228     7.567648561870     0.577409135701     1.007825032230
         C           -6.091978138422     4.884606362579     0.576523831467    12.000000000000
         C           -6.128665660043     3.473926517734     0.577725008496    12.000000000000
         C           -3.664583919771     3.455528528680     0.574799913879    12.000000000000
         C           -4.894302384424     2.752427124836     0.583968898864    12.000000000000
         C           -2.437339174623     2.738958006020     0.586631692415    12.000000000000
         C           -1.209232037322     3.439233283914     0.572952665623    12.000000000000
         C            1.247137392437     3.426027100365     0.572144059218    12.000000000000
         C            0.015171859844     2.724458188241     0.583828242443    12.000000000000
         C            2.467640992715     2.712636326191     0.583928300566    12.000000000000
         C            3.702545294854     3.416006503360     0.570440339724    12.000000000000
         C            6.144976206658     4.818918715067     0.576609249796    12.000000000000
         C            6.166584179136     3.407930824878     0.578775803233    12.000000000000
         C            4.924605778734     2.699754274290     0.585314549470    12.000000000000
         H            7.089901329916     5.358234115159     0.572847368946     1.007825032230
         H           -7.031045930827     5.434034301793     0.572290616516     1.007825032230
         C           -7.339702220848     2.749757883515     0.576097841055    12.000000000000
         C           -7.364886137784     1.361669720519     0.577863379182    12.000000000000
         C           -4.903508788672     1.335773161096     0.573147114990    12.000000000000
         C           -6.132261332336     0.631285705989     0.585437158973    12.000000000000
         C           -3.676878980242     0.618043491609     0.583774831390    12.000000000000
         C           -2.445660765791     1.320987482198     0.573465121189    12.000000000000
         C           -1.223604861027     0.606670850570     0.584894385720    12.000000000000
         C            0.007633689588     1.308729498173     0.583360039438    12.000000000000
         C            1.231215628021     0.593463039523     0.564533453781    12.000000000000
         C            2.460816920806     1.294638385061     0.584037962672    12.000000000000
         C            3.684426074471     0.578544777148     0.583209176395    12.000000000000
         C            4.918704721813     1.283080910125     0.570807354760    12.000000000000
         C            7.369797898236     2.670828552120     0.577015383440    12.000000000000
         C            7.380158486396     1.282563856791     0.578562066286    12.000000000000
         C            6.139795359397     0.565464972136     0.584890408097    12.000000000000
         H           -8.279194979072     3.298464390060     0.571800288933     1.007825032230
         H            8.315109291754     3.209464445559     0.572804807641     1.007825032230
         C           -8.591760117307     0.616178901980     0.578203806800    12.000000000000
         C           -8.599028783429    -0.741293457293     0.580326931383    12.000000000000
         C           -6.139817318844    -0.782790288218     0.573337590047    12.000000000000
         C           -7.380188291863    -1.499919840646     0.580753651589    12.000000000000
         C           -4.918688659982    -1.500408669094     0.585678088197    12.000000000000
         C           -3.684442475410    -0.795890966800     0.574645848132    12.000000000000
         C           -2.460821219973    -1.511998829889     0.585188934322    12.000000000000
         C           -1.231166192046    -0.810827515945     0.573068555530    12.000000000000
         C           -0.007573805113    -1.526072500475     0.580525079833    12.000000000000
         C            1.223643536163    -0.823929028328     0.590530701782    12.000000000000
         C            2.445666469606    -1.538296940071     0.578780689022    12.000000000000
         C            3.676862523121    -0.835361082620     0.574640104628    12.000000000000
         C            6.132244666694    -0.848632490914     0.573112130415    12.000000000000
         C            4.903514965779    -1.553111171605     0.586953204955    12.000000000000
         C            8.599010668965     0.523950215603     0.578424182430    12.000000000000
         C            8.591741308375    -0.833504518258     0.580160562691    12.000000000000
         C            7.364858584664    -1.578986316670     0.579930385998    12.000000000000
         H           -9.528310151544     1.168193798128     0.576733879836     1.007825032230
         H            9.541406794881     1.065918837380     0.577372150168     1.007825032230
         C           -7.369842089494    -2.888198796998     0.582561860011    12.000000000000
         C           -4.924603288776    -2.917090908405     0.574830227574    12.000000000000
         C           -6.166626675393    -3.625305843890     0.581132067733    12.000000000000
         C           -3.702514539430    -3.633335200185     0.585154296760    12.000000000000
         C           -2.467651164839    -2.929979613868     0.573109658404    12.000000000000
         C           -0.015137653833    -2.941795296464     0.573391246913    12.000000000000
         C           -1.247126020952    -3.643385826627     0.584955200321    12.000000000000
         C            1.209240889918    -3.656568329708     0.587494230112    12.000000000000
         C            2.437331842429    -2.956295389240     0.573354471801    12.000000000000
         C            4.894298164045    -2.969776619350     0.574175211873    12.000000000000
         C            3.664611075316    -3.672873496596     0.587054631813    12.000000000000
         C            6.128634835020    -3.691237708782     0.580400473771    12.000000000000
         C            7.339668484970    -2.967066958435     0.581915699852    12.000000000000
         H           -9.541453290984    -1.283217117729     0.581696347556     1.007825032230
         H            9.528257688346    -1.385572724969     0.581410370452     1.007825032230
         H           -8.315169223574    -3.426803504277     0.586734088541     1.007825032230
         H            8.279150962767    -3.515794440958     0.586255255835     1.007825032230
         C           -6.144998368428    -5.036300923848     0.582458065794    12.000000000000
         C           -3.706787527723    -5.049915365182     0.572637097706    12.000000000000
         C           -4.955594237727    -5.752147624559     0.580604232351    12.000000000000
         C           -2.486125505952    -5.763439225474     0.585576768750    12.000000000000
         C           -1.254062515205    -5.064775701066     0.574401162764    12.000000000000
         C            1.201008394143    -5.077934039257     0.575582287022    12.000000000000
         C           -0.030340854139    -5.778173954203     0.583425486686    12.000000000000
         C            3.653745921603    -5.089397426479     0.576340286770    12.000000000000
         C            2.425488516150    -5.789828286592     0.585717217322    12.000000000000
         C            6.091961438086    -5.101911614451     0.582694700444    12.000000000000
         C            4.894972264885    -5.805002072022     0.581458504614    12.000000000000
         H           -7.089896567766    -5.575653493303     0.586860827475     1.007825032230
         H            7.031051029475    -5.651312187397     0.586274480208     1.007825032230
         C           -4.923549501924    -7.187474750742     0.580049463446    12.000000000000
         C           -2.485346267963    -7.196381728994     0.577539571010    12.000000000000
         C           -3.751690071504    -7.872600808701     0.577734249935    12.000000000000
         C           -0.037953136713    -7.208118525534     0.577755296157    12.000000000000
         C           -1.277960280127    -7.881558035731     0.575770603396    12.000000000000
         C            2.409440141001    -7.222675663067     0.578618496968    12.000000000000
         C            1.194745757428    -7.894839016627     0.576466206087    12.000000000000
         C            4.847616872773    -7.239915761644     0.581125311628    12.000000000000
         C            3.668467426150    -7.912441644008     0.578776877264    12.000000000000
         H           -5.869944530142    -7.722484249106     0.581593500311     1.007825032230
         H            5.788245445663    -7.784985840379     0.582252431110     1.007825032230
         H           -3.753531119175    -8.959725220301     0.575898335506     1.007825032230
         H           -1.284308585620    -8.969529043562     0.571343219537     1.007825032230
         H            1.189217394970    -8.982814271654     0.572373569396     1.007825032230
         H            3.658542435098    -8.999514285118     0.577122335842     1.007825032230

  Running in c1 symmetry.

  Rotational constants: A =      0.00057  B =      0.00057  C =      0.00035 [cm^-1]
  Rotational constants: A =     17.22795  B =     17.22368  C =     10.46856 [MHz]
  Nuclear repulsion = 17632.689173159265920

  Charge       = 1
  Multiplicity = 1
  Electrons    = 652
  Nalpha       = 326
  Nbeta        = 326

  ==> Algorithm <==

  SCF Algorithm Type is DF.
  DIIS enabled.
  MOM disabled.
  Fractional occupation disabled.
  Guess Type is SAD.
  Energy threshold   = 1.00e-08
  Density threshold  = 1.00e-08
  Integral threshold = 1.00e-12

  ==> Primary Basis <==

  Basis Set: JUN-CC-PVDZ
    Blend: JUN-CC-PVDZ
    Number of shells: 923
    Number of basis functions: 2019
    Number of Cartesian functions: 2122
    Spherical Harmonics?: true
    Max angular momentum: 2

   => Loading Basis Set <=

    Name: (JUN-CC-PVDZ AUX)
    Role: JKFIT
    Keyword: DF_BASIS_SCF
    atoms 1-2, 4-5, 10, 17-34, 41-53, 56-70, 73-89, 92-104, 109-119, 122-130 entry C          line   146 file /opt/software/pc2/EB-SW/software/PSI4/1.9-foss-2022a/share/psi4/basis/jun-cc-pvdz-jkfit.gbs 
    atoms 3, 6                                                               entry N          line   202 file /opt/software/pc2/EB-SW/software/PSI4/1.9-foss-2022a/share/psi4/basis/jun-cc-pvdz-jkfit.gbs 
    atoms 7-9, 11-16, 35-40, 54-55, 71-72, 90-91, 105-108, 120-121, 131-136  entry H          line    70 file /opt/software/pc2/EB-SW/software/PSI4/1.9-foss-2022a/share/psi4/basis/jun-cc-pvdz-jkfit.gbs 

  ==> Integral Setup <==

  ==> DiskDFJK: Density-Fitted J/K Matrices <==

    J tasked:                  Yes
    K tasked:                  Yes
    wK tasked:                  No
    OpenMP threads:             16
    Integrals threads:          16
    Memory [MiB]:            33617
    Algorithm:                Disk
    Integral Cache:           SAVE
    Schwarz Cutoff:          1E-12
    Fitting Condition:       1E-10

   => Auxiliary Basis Set <=

  Basis Set: (JUN-CC-PVDZ AUX)
    Blend: JUN-CC-PVDZ-JKFIT
    Number of shells: 3078
    Number of basis functions: 8896
    Number of Cartesian functions: 10198
    Spherical Harmonics?: true
    Max angular momentum: 3

  Minimum eigenvalue in the overlap matrix is 9.0243468879E-11.
  Reciprocal condition number of the overlap matrix is 3.9571774969E-12.
    Using canonical orthogonalization.
  Overall, 38 of 2019 possible MOs eliminated.


  ==> Pre-Iterations <==

  SCF Guess: Superposition of Atomic Densities via on-the-fly atomic UHF (no occupation information).

   -------------------------
    Irrep   Nso     Nmo    
   -------------------------
     A       2019    1981 
   -------------------------
    Total    2019    1981
   -------------------------

  ==> Iterations <==

                           Total Energy        Delta E     RMS |[F,P]|

   @DF-RHF iter SAD: -3967.13353466865146   -3.96713e+03   0.00000e+00 
   @DF-RHF iter   1: -3952.10017391481051    1.50334e+01   7.16033e-04 ADIIS/DIIS
   @DF-RHF iter   2: -3953.49441676601509   -1.39424e+00   2.33319e-04 ADIIS/DIIS
   @DF-RHF iter   3: -3953.61806222017049   -1.23645e-01   1.00434e-04 ADIIS/DIIS
   @DF-RHF iter   4: -3953.64049718284741   -2.24350e-02   4.20246e-05 DIIS
   @DF-RHF iter   5: -3953.64495564516074   -4.45846e-03   1.03185e-05 DIIS
   @DF-RHF iter   6: -3953.64539346905121   -4.37824e-04   4.60238e-06 DIIS
   @DF-RHF iter   7: -3953.64557681921315   -1.83350e-04   2.20596e-06 DIIS
   @DF-RHF iter   8: -3953.64563835496529   -6.15358e-05   1.10496e-06 DIIS
   @DF-RHF iter   9: -3953.64565571268395   -1.73577e-05   3.53116e-07 DIIS
   @DF-RHF iter  10: -3953.64565688181710   -1.16913e-06   1.44717e-07 DIIS
   @DF-RHF iter  11: -3953.64565703057178   -1.48755e-07   5.89499e-08 DIIS
   @DF-RHF iter  12: -3953.64565706294843   -3.23766e-08   2.92119e-08 DIIS
   @DF-RHF iter  13: -3953.64565706973644   -6.78801e-09   9.39185e-09 DIIS
  Energy and wave function converged.


  ==> Post-Iterations <==

    Orbital Energies [Eh]
    ---------------------

    Doubly Occupied:                                                      

       1A    -15.821664     2A    -15.821144     3A    -11.516355  
       4A    -11.448061     5A    -11.446506     6A    -11.436349  
       7A    -11.436249     8A    -11.319171     9A    -11.318471  
      10A    -11.318348    11A    -11.317997    12A    -11.317768  
      13A    -11.317743    14A    -11.317283    15A    -11.317081  
      16A    -11.317043    17A    -11.316945    18A    -11.316703  
      19A    -11.316509    20A    -11.316335    21A    -11.316261  
      22A    -11.316129    23A    -11.315937    24A    -11.315911  
      25A    -11.315524    26A    -11.315221    27A    -11.315182  
      28A    -11.315137    29A    -11.315055    30A    -11.314831  
      31A    -11.314807    32A    -11.314798    33A    -11.314592  
      34A    -11.314091    35A    -11.314082    36A    -11.313891  
      37A    -11.313821    38A    -11.313716    39A    -11.313232  
      40A    -11.313220    41A    -11.313213    42A    -11.313197  
      43A    -11.313174    44A    -11.313156    45A    -11.312742  
      46A    -11.312725    47A    -11.312331    48A    -11.312320  
      49A    -11.312293    50A    -11.312148    51A    -11.312123  
      52A    -11.312113    53A    -11.312088    54A    -11.311914  
      55A    -11.311726    56A    -11.311681    57A    -11.311662  
      58A    -11.311523    59A    -11.311511    60A    -11.311443  
      61A    -11.311420    62A    -11.311395    63A    -11.311372  
      64A    -11.310844    65A    -11.310816    66A    -11.310492  
      67A    -11.310356    68A    -11.310346    69A    -11.310129  
      70A    -11.310107    71A    -11.309851    72A    -11.309837  
      73A    -11.309806    74A    -11.309789    75A    -11.309227  
      76A    -11.309222    77A    -11.308936    78A    -11.308642  
      79A    -11.308622    80A    -11.304944    81A    -11.304865  
      82A    -11.304781    83A    -11.304754    84A    -11.304159  
      85A    -11.304132    86A    -11.303944    87A    -11.303907  
      88A    -11.303311    89A    -11.303294    90A    -11.302751  
      91A    -11.302719    92A    -11.302686    93A    -11.302659  
      94A    -11.302246    95A    -11.302236    96A    -11.301996  
      97A    -11.301914    98A    -11.301240    99A    -11.301209  
     100A    -11.300857   101A    -11.300852   102A    -11.299375  
     103A    -11.299372   104A     -1.565466   105A     -1.420947  
     106A     -1.307671   107A     -1.291544   108A     -1.291386  
     109A     -1.272164   110A     -1.272158   111A     -1.268022  
     112A     -1.252049   113A     -1.246993   114A     -1.240508  
     115A     -1.240398   116A     -1.226152   117A     -1.224573  
     118A     -1.224568   119A     -1.207687   120A     -1.207668  
     121A     -1.204878   122A     -1.195303   123A     -1.195290  
     124A     -1.179972   125A     -1.176280   126A     -1.166697  
     127A     -1.164553   128A     -1.164433   129A     -1.163651  
     130A     -1.161973   131A     -1.139719   132A     -1.139686  
     133A     -1.127360   134A     -1.127353   135A     -1.119296  
     136A     -1.119264   137A     -1.116904   138A     -1.105788  
     139A     -1.097839   140A     -1.097816   141A     -1.091504  
     142A     -1.089116   143A     -1.089113   144A     -1.077293  
     145A     -1.074030   146A     -1.074000   147A     -1.058361  
     148A     -1.057836   149A     -1.054740   150A     -1.052023  
     151A     -1.052016   152A     -1.041165   153A     -1.022301  
     154A     -1.022288   155A     -1.010043   156A     -1.006461  
     157A     -1.006456   158A     -0.984045   159A     -0.958032  
     160A     -0.957948   161A     -0.957047   162A     -0.955537  
     163A     -0.955505   164A     -0.944743   165A     -0.944689  
     166A     -0.942422   167A     -0.942155   168A     -0.940841  
     169A     -0.922566   170A     -0.918509   171A     -0.904103  
     172A     -0.902247   173A     -0.899676   174A     -0.899531  
     175A     -0.897368   176A     -0.894432   177A     -0.885418  
     178A     -0.885405   179A     -0.878106   180A     -0.878102  
     181A     -0.837670   182A     -0.836179   183A     -0.836095  
     184A     -0.834201   185A     -0.834067   186A     -0.833849  
     187A     -0.833158   188A     -0.832842   189A     -0.818174  
     190A     -0.812877   191A     -0.803857   192A     -0.801968  
     193A     -0.799878   194A     -0.783661   195A     -0.778160  
     196A     -0.778062   197A     -0.777523   198A     -0.776179  
     199A     -0.775625   200A     -0.775563   201A     -0.773226  
     202A     -0.770186   203A     -0.769639   204A     -0.765255  
     205A     -0.765247   206A     -0.750017   207A     -0.750014  
     208A     -0.737694   209A     -0.736479   210A     -0.736469  
     211A     -0.732960   212A     -0.732952   213A     -0.729686  
     214A     -0.716316   215A     -0.712470   216A     -0.704163  
     217A     -0.703902   218A     -0.701754   219A     -0.701695  
     220A     -0.701065   221A     -0.701060   222A     -0.699880  
     223A     -0.692313   224A     -0.692255   225A     -0.690718  
     226A     -0.689698   227A     -0.687096   228A     -0.687091  
     229A     -0.680000   230A     -0.671795   231A     -0.665378  
     232A     -0.665371   233A     -0.659498   234A     -0.659467  
     235A     -0.651833   236A     -0.651655   237A     -0.650275  
     238A     -0.650055   239A     -0.649733   240A     -0.649542  
     241A     -0.645731   242A     -0.645616   243A     -0.645577  
     244A     -0.645285   245A     -0.642457   246A     -0.642413  
     247A     -0.639272   248A     -0.627419   249A     -0.627416  
     250A     -0.627326   251A     -0.627321   252A     -0.624006  
     253A     -0.622359   254A     -0.619688   255A     -0.619622  
     256A     -0.617246   257A     -0.617152   258A     -0.610364  
     259A     -0.609762   260A     -0.609746   261A     -0.608186  
     262A     -0.605245   263A     -0.601494   264A     -0.596717  
     265A     -0.595637   266A     -0.587532   267A     -0.587411  
     268A     -0.584084   269A     -0.583995   270A     -0.583616  
     271A     -0.579471   272A     -0.578450   273A     -0.578433  
     274A     -0.568031   275A     -0.567925   276A     -0.566029  
     277A     -0.566021   278A     -0.559764   279A     -0.559726  
     280A     -0.548785   281A     -0.547377   282A     -0.547346  
     283A     -0.545922   284A     -0.545901   285A     -0.541783  
     286A     -0.531568   287A     -0.527801   288A     -0.527788  
     289A     -0.524489   290A     -0.520973   291A     -0.517542  
     292A     -0.517472   293A     -0.511766   294A     -0.510192  
     295A     -0.498817   296A     -0.498701   297A     -0.493104  
     298A     -0.492983   299A     -0.492821   300A     -0.484796  
     301A     -0.484156   302A     -0.458675   303A     -0.458636  
     304A     -0.438356   305A     -0.438326   306A     -0.436057  
     307A     -0.435794   308A     -0.435634   309A     -0.405434  
     310A     -0.405397   311A     -0.401802   312A     -0.391277  
     313A     -0.389073   314A     -0.389037   315A     -0.382799  
     316A     -0.382745   317A     -0.359246   318A     -0.353971  
     319A     -0.353961   320A     -0.351581   321A     -0.336948  
     322A     -0.305859   323A     -0.305363   324A     -0.305349  
     325A     -0.255122   326A     -0.255101  

    Virtual:                                                              

     327A     -0.062386   328A     -0.062254   329A     -0.055865  
     330A     -0.051231   331A     -0.043051   332A     -0.037089  
     333A     -0.020799   334A     -0.018320   335A     -0.017868  
     336A     -0.016729   337A     -0.016634   338A     -0.013500  
     339A     -0.009615   340A     -0.000314   341A      0.001531  
     342A      0.002682   343A      0.004358   344A      0.006011  
     345A      0.006335   346A      0.008818   347A      0.009186  
     348A      0.010703   349A      0.011156   350A      0.012799  
     351A      0.015306   352A      0.015338   353A      0.018380  
     354A      0.018498   355A      0.020726   356A      0.020986  
     357A      0.022890   358A      0.023103   359A      0.024161  
     360A      0.028244   361A      0.028260   362A      0.030274  
     363A      0.032069   364A      0.032105   365A      0.033430  
     366A      0.033956   367A      0.038787   368A      0.039174  
     369A      0.041152   370A      0.042050   371A      0.042698  
     372A      0.043217   373A      0.045720   374A      0.046412  
     375A      0.047760   376A      0.049823   377A      0.054376  
     378A      0.054781   379A      0.055157   380A      0.055542  
     381A      0.057911   382A      0.059075   383A      0.059446  
     384A      0.060604   385A      0.063721   386A      0.063911  
     387A      0.063971   388A      0.064635   389A      0.064846  
     390A      0.065488   391A      0.065625   392A      0.070686  
     393A      0.071146   394A      0.072731   395A      0.073491  
     396A      0.074359   397A      0.076277   398A      0.076404  
     399A      0.078383   400A      0.080761   401A      0.082101  
     402A      0.084637   403A      0.085264   404A      0.087826  
     405A      0.088425   406A      0.088948   407A      0.089163  
     408A      0.091831   409A      0.092505   410A      0.094776  
     411A      0.095231   412A      0.095415   413A      0.098311  
     414A      0.100151   415A      0.100557   416A      0.102043  
     417A      0.102801   418A      0.104929   419A      0.105646  
     420A      0.106070   421A      0.106967   422A      0.110128  
     423A      0.113022   424A      0.113075   425A      0.113903  
     426A      0.114444   427A      0.115710   428A      0.116217  
     429A      0.116929   430A      0.119203   431A      0.122092  
     432A      0.122510   433A      0.122930   434A      0.124433  
     435A      0.125227   436A      0.128278   437A      0.128598  
     438A      0.129002   439A      0.129583   440A      0.133551  
     441A      0.133822   442A      0.133913   443A      0.134572  
     444A      0.136647   445A      0.137606   446A      0.141314  
     447A      0.142338   448A      0.142703   449A      0.143188  
     450A      0.143580   451A      0.146650   452A      0.147672  
     453A      0.149939   454A      0.151499   455A      0.153176  
     456A      0.153929   457A      0.154459   458A      0.154712  
     459A      0.156465   460A      0.156928   461A      0.157135  
     462A      0.158353   463A      0.159136   464A      0.159612  
     465A      0.159891   466A      0.160078   467A      0.160911  
     468A      0.161414   469A      0.161677   470A      0.162318  
     471A      0.162482   472A      0.162936   473A      0.165067  
     474A      0.166472   475A      0.167360   476A      0.168589  
     477A      0.169175   478A      0.169593   479A      0.171785  
     480A      0.173672   481A      0.174258   482A      0.174357  
     483A      0.176830   484A      0.177329   485A      0.177696  
     486A      0.178204   487A      0.180363   488A      0.181875  
     489A      0.182124   490A      0.183100   491A      0.183580  
     492A      0.184157   493A      0.185498   494A      0.186907  
     495A      0.188927   496A      0.189512   497A      0.191272  
     498A      0.191834   499A      0.192204   500A      0.193910  
     501A      0.194720   502A      0.195051   503A      0.195556  
     504A      0.198164   505A      0.199491   506A      0.199782  
     507A      0.200188   508A      0.203054   509A      0.203183  
     510A      0.203317   511A      0.207382   512A      0.208036  
     513A      0.208319   514A      0.210528   515A      0.211484  
     516A      0.212279   517A      0.212577   518A      0.213097  
     519A      0.215372   520A      0.216102   521A      0.216504  
     522A      0.218363   523A      0.219198   524A      0.220087  
     525A      0.220178   526A      0.220553   527A      0.222735  
     528A      0.223321   529A      0.223384   530A      0.226766  
     531A      0.228819   532A      0.229132   533A      0.229616  
     534A      0.230669   535A      0.230736   536A      0.231300  
     537A      0.232499   538A      0.233323   539A      0.235371  
     540A      0.236378   541A      0.238359   542A      0.238830  
     543A      0.239637   544A      0.240928   545A      0.242562  
     546A      0.243370   547A      0.243930   548A      0.245231  
     549A      0.246007   550A      0.246398   551A      0.247441  
     552A      0.249201   553A      0.250388   554A      0.251265  
     555A      0.252385   556A      0.253537   557A      0.254729  
     558A      0.254819   559A      0.258193   560A      0.258287  
     561A      0.259177   562A      0.259352   563A      0.260128  
     564A      0.261736   565A      0.265253   566A      0.265328  
     567A      0.266799   568A      0.267272   569A      0.268527  
     570A      0.268931   571A      0.269272   572A      0.270225  
     573A      0.271399   574A      0.271556   575A      0.272059  
     576A      0.272405   577A      0.273454   578A      0.273959  
     579A      0.275031   580A      0.275859   581A      0.277929  
     582A      0.278720   583A      0.280060   584A      0.280673  
     585A      0.281027   586A      0.282404   587A      0.282998  
     588A      0.283729   589A      0.284382   590A      0.286447  
     591A      0.286657   592A      0.286858   593A      0.289733  
     594A      0.289986   595A      0.290968   596A      0.292675  
     597A      0.292874   598A      0.293690   599A      0.295589  
     600A      0.295761   601A      0.296944   602A      0.297644  
     603A      0.297825   604A      0.298502   605A      0.299866  
     606A      0.300601   607A      0.300955   608A      0.301714  
     609A      0.303197   610A      0.305512   611A      0.305924  
     612A      0.307465   613A      0.309491   614A      0.313718  
     615A      0.313928   616A      0.314469   617A      0.316483  
     618A      0.317287   619A      0.318327   620A      0.318729  
     621A      0.319807   622A      0.320682   623A      0.320964  
     624A      0.321664   625A      0.323373   626A      0.324059  
     627A      0.326677   628A      0.327240   629A      0.327993  
     630A      0.330480   631A      0.330715   632A      0.331454  
     633A      0.332408   634A      0.333556   635A      0.333677  
     636A      0.334220   637A      0.336643   638A      0.337414  
     639A      0.339124   640A      0.340248   641A      0.340938  
     642A      0.342748   643A      0.343671   644A      0.345028  
     645A      0.345806   646A      0.346331   647A      0.346562  
     648A      0.347004   649A      0.347204   650A      0.347667  
     651A      0.348412   652A      0.349580   653A      0.350546  
     654A      0.351357   655A      0.351862   656A      0.352316  
     657A      0.353051   658A      0.354109   659A      0.355015  
     660A      0.355374   661A      0.356318   662A      0.356398  
     663A      0.357347   664A      0.359494   665A      0.359830  
     666A      0.360178   667A      0.360987   668A      0.361395  
     669A      0.362811   670A      0.362968   671A      0.364062  
     672A      0.365703   673A      0.366452   674A      0.367284  
     675A      0.368064   676A      0.368165   677A      0.368699  
     678A      0.369434   679A      0.372532   680A      0.374518  
     681A      0.375457   682A      0.377726   683A      0.378334  
     684A      0.379844   685A      0.380072   686A      0.380744  
     687A      0.381571   688A      0.381984   689A      0.382508  
     690A      0.382894   691A      0.383822   692A      0.384441  
     693A      0.385784   694A      0.386401   695A      0.387014  
     696A      0.387754   697A      0.389825   698A      0.390117  
     699A      0.391241   700A      0.393826   701A      0.399095  
     702A      0.400742   703A      0.400930   704A      0.402347  
     705A      0.402966   706A      0.403326   707A      0.403612  
     708A      0.404208   709A      0.405131   710A      0.406256  
     711A      0.406294   712A      0.407059   713A      0.407986  
     714A      0.408971   715A      0.410570   716A      0.411241  
     717A      0.412910   718A      0.413308   719A      0.415176  
     720A      0.415914   721A      0.417186   722A      0.417654  
     723A      0.417972   724A      0.418794   725A      0.419348  
     726A      0.420818   727A      0.421506   728A      0.425025  
     729A      0.425109   730A      0.425517   731A      0.426094  
     732A      0.426885   733A      0.428131   734A      0.429085  
     735A      0.429494   736A      0.430248   737A      0.430371  
     738A      0.433361   739A      0.435710   740A      0.435764  
     741A      0.436745   742A      0.439095   743A      0.440427  
     744A      0.440868   745A      0.442137   746A      0.443083  
     747A      0.444054   748A      0.444486   749A      0.446992  
     750A      0.447412   751A      0.450467   752A      0.451970  
     753A      0.453292   754A      0.453640   755A      0.454136  
     756A      0.454585   757A      0.455367   758A      0.455455  
     759A      0.456777   760A      0.457457   761A      0.460629  
     762A      0.464953   763A      0.465381   764A      0.465574  
     765A      0.467441   766A      0.467931   767A      0.468335  
     768A      0.468485   769A      0.469975   770A      0.471912  
     771A      0.472639   772A      0.473356   773A      0.474970  
     774A      0.477372   775A      0.480631   776A      0.483435  
     777A      0.483481   778A      0.483585   779A      0.487194  
     780A      0.488261   781A      0.490006   782A      0.490169  
     783A      0.491563   784A      0.493764   785A      0.494979  
     786A      0.495860   787A      0.503267   788A      0.507498  
     789A      0.508086   790A      0.509275   791A      0.511455  
     792A      0.511857   793A      0.512221   794A      0.516775  
     795A      0.517412   796A      0.517947   797A      0.521361  
     798A      0.521779   799A      0.522260   800A      0.522529  
     801A      0.524695   802A      0.525415   803A      0.525754  
     804A      0.527243   805A      0.527977   806A      0.528427  
     807A      0.528680   808A      0.529132   809A      0.532870  
     810A      0.536411   811A      0.538424   812A      0.539504  
     813A      0.539519   814A      0.540266   815A      0.543417  
     816A      0.543970   817A      0.547298   818A      0.547315  
     819A      0.547756   820A      0.551218   821A      0.552337  
     822A      0.553732   823A      0.554805   824A      0.555723  
     825A      0.561828   826A      0.566411   827A      0.568827  
     828A      0.568845   829A      0.569969   830A      0.570379  
     831A      0.572757   832A      0.578267   833A      0.580268  
     834A      0.580906   835A      0.581578   836A      0.582513  
     837A      0.585761   838A      0.590494   839A      0.591722  
     840A      0.595756   841A      0.604602   842A      0.604845  
     843A      0.606292   844A      0.608049   845A      0.608992  
     846A      0.609539   847A      0.609717   848A      0.614220  
     849A      0.616638   850A      0.616880   851A      0.622102  
     852A      0.627271   853A      0.629548   854A      0.634181  
     855A      0.635055   856A      0.636797   857A      0.637245  
     858A      0.639711   859A      0.640757   860A      0.641111  
     861A      0.641730   862A      0.642424   863A      0.646267  
     864A      0.649360   865A      0.650317   866A      0.650429  
     867A      0.650786   868A      0.656084   869A      0.656532  
     870A      0.660290   871A      0.665837   872A      0.668284  
     873A      0.669675   874A      0.671859   875A      0.677483  
     876A      0.678090   877A      0.682533   878A      0.683745  
     879A      0.689659   880A      0.690143   881A      0.691569  
     882A      0.692433   883A      0.694244   884A      0.694916  
     885A      0.697073   886A      0.699838   887A      0.700189  
     888A      0.701683   889A      0.703733   890A      0.709162  
     891A      0.716057   892A      0.721536   893A      0.726859  
     894A      0.732336   895A      0.733581   896A      0.735111  
     897A      0.738435   898A      0.739393   899A      0.742587  
     900A      0.743850   901A      0.744188   902A      0.747560  
     903A      0.749358   904A      0.752294   905A      0.752948  
     906A      0.755832   907A      0.757053   908A      0.757121  
     909A      0.760352   910A      0.760740   911A      0.763252  
     912A      0.764933   913A      0.765996   914A      0.767657  
     915A      0.769367   916A      0.769998   917A      0.770556  
     918A      0.777373   919A      0.778717   920A      0.779957  
     921A      0.782078   922A      0.783974   923A      0.785369  
     924A      0.785830   925A      0.786825   926A      0.788384  
     927A      0.790869   928A      0.792260   929A      0.792720  
     930A      0.794431   931A      0.796518   932A      0.797505  
     933A      0.798474   934A      0.801890   935A      0.804346  
     936A      0.807023   937A      0.807637   938A      0.809843  
     939A      0.811285   940A      0.811710   941A      0.814302  
     942A      0.815048   943A      0.819039   944A      0.819233  
     945A      0.819718   946A      0.820074   947A      0.820333  
     948A      0.822336   949A      0.823256   950A      0.824847  
     951A      0.826272   952A      0.827852   953A      0.829143  
     954A      0.830289   955A      0.831174   956A      0.834807  
     957A      0.836467   958A      0.838291   959A      0.839498  
     960A      0.839711   961A      0.840978   962A      0.841681  
     963A      0.843512   964A      0.844507   965A      0.848023  
     966A      0.848806   967A      0.849966   968A      0.850571  
     969A      0.854071   970A      0.857352   971A      0.857747  
     972A      0.862677   973A      0.865960   974A      0.866703  
     975A      0.867002   976A      0.870053   977A      0.870496  
     978A      0.872042   979A      0.872382   980A      0.872533  
     981A      0.872833   982A      0.875803   983A      0.877317  
     984A      0.877826   985A      0.881024   986A      0.881930  
     987A      0.883552   988A      0.884062   989A      0.884693  
     990A      0.888096   991A      0.888352   992A      0.888814  
     993A      0.894513   994A      0.896320   995A      0.897937  
     996A      0.898988   997A      0.900538   998A      0.900624  
     999A      0.900836  1000A      0.902501  1001A      0.903262  
    1002A      0.903554  1003A      0.904093  1004A      0.906753  
    1005A      0.907176  1006A      0.907443  1007A      0.907994  
    1008A      0.915712  1009A      0.915846  1010A      0.916512  
    1011A      0.918218  1012A      0.919334  1013A      0.920784  
    1014A      0.923635  1015A      0.931558  1016A      0.933112  
    1017A      0.933152  1018A      0.936546  1019A      0.943036  
    1020A      0.943606  1021A      0.943897  1022A      0.944213  
    1023A      0.950545  1024A      0.950737  1025A      0.952545  
    1026A      0.953593  1027A      0.954700  1028A      0.954872  
    1029A      0.955393  1030A      0.959061  1031A      0.960138  
    1032A      0.962680  1033A      0.964934  1034A      0.966427  
    1035A      0.968953  1036A      0.969520  1037A      0.970421  
    1038A      0.971745  1039A      0.972793  1040A      0.974120  
    1041A      0.978672  1042A      0.979370  1043A      0.981371  
    1044A      0.981894  1045A      0.983246  1046A      0.985691  
    1047A      0.986312  1048A      0.987563  1049A      0.993205  
    1050A      0.994784  1051A      0.995156  1052A      0.996038  
    1053A      0.996520  1054A      0.997145  1055A      0.997193  
    1056A      0.997523  1057A      0.998099  1058A      1.001498  
    1059A      1.002333  1060A      1.002850  1061A      1.003276  
    1062A      1.003349  1063A      1.010039  1064A      1.010637  
    1065A      1.011020  1066A      1.013833  1067A      1.014268  
    1068A      1.015766  1069A      1.016680  1070A      1.016920  
    1071A      1.017926  1072A      1.018886  1073A      1.019377  
    1074A      1.020081  1075A      1.020828  1076A      1.021115  
    1077A      1.021234  1078A      1.022006  1079A      1.022936  
    1080A      1.023254  1081A      1.024126  1082A      1.024962  
    1083A      1.026161  1084A      1.026372  1085A      1.027071  
    1086A      1.027229  1087A      1.028387  1088A      1.028407  
    1089A      1.028988  1090A      1.029783  1091A      1.030001  
    1092A      1.030265  1093A      1.031648  1094A      1.032080  
    1095A      1.032974  1096A      1.033981  1097A      1.034173  
    1098A      1.036729  1099A      1.037821  1100A      1.038285  
    1101A      1.039269  1102A      1.039394  1103A      1.040314  
    1104A      1.042845  1105A      1.046155  1106A      1.046625  
    1107A      1.047154  1108A      1.048622  1109A      1.049597  
    1110A      1.049993  1111A      1.051231  1112A      1.051560  
    1113A      1.053344  1114A      1.056113  1115A      1.059957  
    1116A      1.061473  1117A      1.062285  1118A      1.068526  
    1119A      1.069606  1120A      1.069768  1121A      1.071110  
    1122A      1.075212  1123A      1.077517  1124A      1.077880  
    1125A      1.079679  1126A      1.080563  1127A      1.080748  
    1128A      1.083131  1129A      1.083607  1130A      1.083758  
    1131A      1.086886  1132A      1.087082  1133A      1.088023  
    1134A      1.092244  1135A      1.093677  1136A      1.094696  
    1137A      1.095702  1138A      1.097898  1139A      1.099025  
    1140A      1.100137  1141A      1.100937  1142A      1.104247  
    1143A      1.106617  1144A      1.106749  1145A      1.108904  
    1146A      1.111989  1147A      1.112619  1148A      1.113971  
    1149A      1.117133  1150A      1.118727  1151A      1.119756  
    1152A      1.121888  1153A      1.125167  1154A      1.125326  
    1155A      1.130383  1156A      1.133441  1157A      1.134880  
    1158A      1.135461  1159A      1.137341  1160A      1.139021  
    1161A      1.141352  1162A      1.142583  1163A      1.142636  
    1164A      1.150998  1165A      1.151774  1166A      1.152002  
    1167A      1.152346  1168A      1.154694  1169A      1.154820  
    1170A      1.156498  1171A      1.160724  1172A      1.162531  
    1173A      1.162634  1174A      1.164933  1175A      1.165779  
    1176A      1.168581  1177A      1.169288  1178A      1.172290  
    1179A      1.173457  1180A      1.175034  1181A      1.177442  
    1182A      1.179530  1183A      1.183175  1184A      1.183684  
    1185A      1.196803  1186A      1.197070  1187A      1.198265  
    1188A      1.201922  1189A      1.202704  1190A      1.205095  
    1191A      1.210868  1192A      1.211728  1193A      1.211932  
    1194A      1.213947  1195A      1.218751  1196A      1.220298  
    1197A      1.220860  1198A      1.222134  1199A      1.226397  
    1200A      1.235116  1201A      1.235374  1202A      1.239461  
    1203A      1.240664  1204A      1.241305  1205A      1.243352  
    1206A      1.244735  1207A      1.245072  1208A      1.247102  
    1209A      1.251912  1210A      1.252892  1211A      1.255627  
    1212A      1.256064  1213A      1.257823  1214A      1.259797  
    1215A      1.261767  1216A      1.263022  1217A      1.263877  
    1218A      1.269481  1219A      1.269777  1220A      1.269800  
    1221A      1.270520  1222A      1.271832  1223A      1.276124  
    1224A      1.276740  1225A      1.278336  1226A      1.280279  
    1227A      1.281114  1228A      1.285285  1229A      1.285735  
    1230A      1.287196  1231A      1.289568  1232A      1.289846  
    1233A      1.291940  1234A      1.294251  1235A      1.296451  
    1236A      1.298567  1237A      1.299693  1238A      1.305448  
    1239A      1.305509  1240A      1.307602  1241A      1.307953  
    1242A      1.310888  1243A      1.313245  1244A      1.313539  
    1245A      1.318210  1246A      1.318574  1247A      1.320644  
    1248A      1.322284  1249A      1.323515  1250A      1.324223  
    1251A      1.335576  1252A      1.336572  1253A      1.337583  
    1254A      1.340557  1255A      1.344300  1256A      1.344905  
    1257A      1.345183  1258A      1.345508  1259A      1.349680  
    1260A      1.355709  1261A      1.357064  1262A      1.357424  
    1263A      1.357600  1264A      1.358384  1265A      1.359167  
    1266A      1.362791  1267A      1.363046  1268A      1.364063  
    1269A      1.364718  1270A      1.370793  1271A      1.372139  
    1272A      1.372902  1273A      1.373941  1274A      1.376398  
    1275A      1.376530  1276A      1.376825  1277A      1.378136  
    1278A      1.380384  1279A      1.381844  1280A      1.384730  
    1281A      1.386081  1282A      1.387199  1283A      1.389185  
    1284A      1.389431  1285A      1.394542  1286A      1.396013  
    1287A      1.397040  1288A      1.398690  1289A      1.399657  
    1290A      1.399883  1291A      1.402506  1292A      1.404238  
    1293A      1.412440  1294A      1.412737  1295A      1.418743  
    1296A      1.419441  1297A      1.419656  1298A      1.420798  
    1299A      1.421621  1300A      1.428616  1301A      1.433194  
    1302A      1.433762  1303A      1.435030  1304A      1.437780  
    1305A      1.440251  1306A      1.445154  1307A      1.445473  
    1308A      1.448555  1309A      1.452710  1310A      1.454866  
    1311A      1.455405  1312A      1.465880  1313A      1.466613  
    1314A      1.479463  1315A      1.487750  1316A      1.489704  
    1317A      1.489727  1318A      1.491489  1319A      1.492977  
    1320A      1.502139  1321A      1.502187  1322A      1.516529  
    1323A      1.532213  1324A      1.532372  1325A      1.541940  
    1326A      1.542342  1327A      1.546991  1328A      1.550204  
    1329A      1.552323  1330A      1.553323  1331A      1.554076  
    1332A      1.555612  1333A      1.556257  1334A      1.559307  
    1335A      1.559663  1336A      1.560153  1337A      1.562938  
    1338A      1.563407  1339A      1.563846  1340A      1.564653  
    1341A      1.565347  1342A      1.568204  1343A      1.569271  
    1344A      1.569744  1345A      1.572126  1346A      1.573454  
    1347A      1.575591  1348A      1.575759  1349A      1.577628  
    1350A      1.579228  1351A      1.579492  1352A      1.584164  
    1353A      1.584194  1354A      1.584610  1355A      1.586037  
    1356A      1.586670  1357A      1.587300  1358A      1.587540  
    1359A      1.588509  1360A      1.589586  1361A      1.591099  
    1362A      1.592168  1363A      1.594175  1364A      1.600585  
    1365A      1.601101  1366A      1.601404  1367A      1.605445  
    1368A      1.605706  1369A      1.606100  1370A      1.613031  
    1371A      1.613575  1372A      1.616616  1373A      1.616729  
    1374A      1.617133  1375A      1.617949  1376A      1.617990  
    1377A      1.619504  1378A      1.620544  1379A      1.625697  
    1380A      1.626209  1381A      1.626674  1382A      1.627501  
    1383A      1.633182  1384A      1.636821  1385A      1.638182  
    1386A      1.641693  1387A      1.644667  1388A      1.644902  
    1389A      1.645585  1390A      1.646393  1391A      1.648600  
    1392A      1.658467  1393A      1.658646  1394A      1.659019  
    1395A      1.663461  1396A      1.665192  1397A      1.665389  
    1398A      1.668291  1399A      1.669851  1400A      1.670963  
    1401A      1.671143  1402A      1.673558  1403A      1.674376  
    1404A      1.676136  1405A      1.683481  1406A      1.686341  
    1407A      1.687171  1408A      1.694895  1409A      1.695399  
    1410A      1.696934  1411A      1.697094  1412A      1.699233  
    1413A      1.700069  1414A      1.710992  1415A      1.712619  
    1416A      1.714381  1417A      1.717557  1418A      1.729050  
    1419A      1.735290  1420A      1.737407  1421A      1.737759  
    1422A      1.747142  1423A      1.750879  1424A      1.751134  
    1425A      1.758291  1426A      1.760876  1427A      1.763067  
    1428A      1.766740  1429A      1.770295  1430A      1.771000  
    1431A      1.772837  1432A      1.775876  1433A      1.776594  
    1434A      1.777225  1435A      1.779174  1436A      1.780214  
    1437A      1.782039  1438A      1.782433  1439A      1.785557  
    1440A      1.785714  1441A      1.785963  1442A      1.786783  
    1443A      1.792720  1444A      1.794186  1445A      1.798336  
    1446A      1.805916  1447A      1.806030  1448A      1.809391  
    1449A      1.809744  1450A      1.811919  1451A      1.812065  
    1452A      1.814163  1453A      1.814470  1454A      1.819172  
    1455A      1.820031  1456A      1.822280  1457A      1.822881  
    1458A      1.823860  1459A      1.824892  1460A      1.825513  
    1461A      1.830691  1462A      1.831668  1463A      1.831879  
    1464A      1.832327  1465A      1.833419  1466A      1.833721  
    1467A      1.833846  1468A      1.834688  1469A      1.835686  
    1470A      1.838253  1471A      1.838701  1472A      1.852315  
    1473A      1.852461  1474A      1.855088  1475A      1.855379  
    1476A      1.858768  1477A      1.860359  1478A      1.864023  
    1479A      1.864754  1480A      1.865957  1481A      1.869738  
    1482A      1.870661  1483A      1.871176  1484A      1.872755  
    1485A      1.873293  1486A      1.874005  1487A      1.874725  
    1488A      1.880281  1489A      1.882702  1490A      1.886447  
    1491A      1.886714  1492A      1.887687  1493A      1.888399  
    1494A      1.889084  1495A      1.889182  1496A      1.891383  
    1497A      1.892524  1498A      1.893427  1499A      1.895115  
    1500A      1.900364  1501A      1.902166  1502A      1.904083  
    1503A      1.907451  1504A      1.908064  1505A      1.908874  
    1506A      1.909659  1507A      1.910079  1508A      1.910561  
    1509A      1.912601  1510A      1.916330  1511A      1.917705  
    1512A      1.918815  1513A      1.920236  1514A      1.921375  
    1515A      1.922268  1516A      1.929458  1517A      1.930743  
    1518A      1.933966  1519A      1.938338  1520A      1.940932  
    1521A      1.941185  1522A      1.942577  1523A      1.942961  
    1524A      1.944216  1525A      1.955562  1526A      1.956376  
    1527A      1.958636  1528A      1.960648  1529A      1.961407  
    1530A      1.962816  1531A      1.965197  1532A      1.965358  
    1533A      1.965961  1534A      1.967033  1535A      1.968254  
    1536A      1.968705  1537A      1.970103  1538A      1.970401  
    1539A      1.973345  1540A      1.977128  1541A      1.979545  
    1542A      1.980874  1543A      1.981748  1544A      1.982647  
    1545A      1.984648  1546A      1.988537  1547A      1.990882  
    1548A      1.991427  1549A      1.996128  1550A      1.998760  
    1551A      2.000874  1552A      2.002234  1553A      2.004830  
    1554A      2.005354  1555A      2.007539  1556A      2.008178  
    1557A      2.008914  1558A      2.009442  1559A      2.015273  
    1560A      2.017424  1561A      2.017790  1562A      2.019320  
    1563A      2.019873  1564A      2.024406  1565A      2.027258  
    1566A      2.028302  1567A      2.029371  1568A      2.029573  
    1569A      2.031075  1570A      2.031711  1571A      2.031952  
    1572A      2.032462  1573A      2.035507  1574A      2.037108  
    1575A      2.037592  1576A      2.038831  1577A      2.040056  
    1578A      2.040732  1579A      2.041168  1580A      2.042675  
    1581A      2.043439  1582A      2.045352  1583A      2.046069  
    1584A      2.046852  1585A      2.047120  1586A      2.050144  
    1587A      2.050435  1588A      2.051355  1589A      2.054789  
    1590A      2.055955  1591A      2.058952  1592A      2.060464  
    1593A      2.060559  1594A      2.061477  1595A      2.062280  
    1596A      2.063277  1597A      2.065552  1598A      2.067179  
    1599A      2.068582  1600A      2.074455  1601A      2.075419  
    1602A      2.075705  1603A      2.076173  1604A      2.076617  
    1605A      2.077307  1606A      2.077501  1607A      2.079398  
    1608A      2.080449  1609A      2.083839  1610A      2.084231  
    1611A      2.085370  1612A      2.086012  1613A      2.091105  
    1614A      2.091411  1615A      2.093232  1616A      2.094031  
    1617A      2.094768  1618A      2.103390  1619A      2.103532  
    1620A      2.103886  1621A      2.105399  1622A      2.106935  
    1623A      2.108091  1624A      2.108656  1625A      2.109049  
    1626A      2.110286  1627A      2.112972  1628A      2.113155  
    1629A      2.120384  1630A      2.120718  1631A      2.128912  
    1632A      2.129730  1633A      2.131178  1634A      2.131782  
    1635A      2.137147  1636A      2.137443  1637A      2.138963  
    1638A      2.139220  1639A      2.140789  1640A      2.142656  
    1641A      2.145233  1642A      2.146150  1643A      2.147257  
    1644A      2.148153  1645A      2.149772  1646A      2.150145  
    1647A      2.150601  1648A      2.152461  1649A      2.153475  
    1650A      2.155219  1651A      2.158122  1652A      2.159604  
    1653A      2.162852  1654A      2.163209  1655A      2.168747  
    1656A      2.172058  1657A      2.172469  1658A      2.173004  
    1659A      2.173051  1660A      2.173331  1661A      2.174586  
    1662A      2.178065  1663A      2.181848  1664A      2.182924  
    1665A      2.184371  1666A      2.185766  1667A      2.187211  
    1668A      2.187423  1669A      2.191102  1670A      2.195666  
    1671A      2.196325  1672A      2.198136  1673A      2.198861  
    1674A      2.211341  1675A      2.211694  1676A      2.212654  
    1677A      2.213755  1678A      2.215465  1679A      2.216729  
    1680A      2.220881  1681A      2.223676  1682A      2.232471  
    1683A      2.233713  1684A      2.236363  1685A      2.240082  
    1686A      2.241494  1687A      2.244964  1688A      2.246571  
    1689A      2.253326  1690A      2.253913  1691A      2.258469  
    1692A      2.260696  1693A      2.262673  1694A      2.272547  
    1695A      2.274121  1696A      2.274396  1697A      2.276531  
    1698A      2.278338  1699A      2.280136  1700A      2.280529  
    1701A      2.281384  1702A      2.282432  1703A      2.284124  
    1704A      2.287727  1705A      2.290534  1706A      2.291239  
    1707A      2.291540  1708A      2.293753  1709A      2.294357  
    1710A      2.295110  1711A      2.297197  1712A      2.297613  
    1713A      2.307228  1714A      2.315057  1715A      2.319511  
    1716A      2.320158  1717A      2.333401  1718A      2.336746  
    1719A      2.338121  1720A      2.338505  1721A      2.340065  
    1722A      2.341636  1723A      2.345080  1724A      2.347278  
    1725A      2.367620  1726A      2.368763  1727A      2.372222  
    1728A      2.376920  1729A      2.380330  1730A      2.390703  
    1731A      2.392469  1732A      2.400505  1733A      2.401794  
    1734A      2.413691  1735A      2.413803  1736A      2.417180  
    1737A      2.417367  1738A      2.421550  1739A      2.421841  
    1740A      2.441132  1741A      2.441565  1742A      2.443057  
    1743A      2.451726  1744A      2.455147  1745A      2.457100  
    1746A      2.457317  1747A      2.461425  1748A      2.466519  
    1749A      2.473466  1750A      2.487910  1751A      2.488103  
    1752A      2.489538  1753A      2.491658  1754A      2.492296  
    1755A      2.493701  1756A      2.496927  1757A      2.498127  
    1758A      2.499300  1759A      2.500990  1760A      2.504477  
    1761A      2.504661  1762A      2.508421  1763A      2.513219  
    1764A      2.520487  1765A      2.522283  1766A      2.530859  
    1767A      2.534556  1768A      2.534682  1769A      2.535200  
    1770A      2.535951  1771A      2.539640  1772A      2.540066  
    1773A      2.542665  1774A      2.545073  1775A      2.551091  
    1776A      2.551254  1777A      2.562294  1778A      2.562530  
    1779A      2.562875  1780A      2.563385  1781A      2.566617  
    1782A      2.567128  1783A      2.581572  1784A      2.584120  
    1785A      2.589589  1786A      2.590616  1787A      2.592776  
    1788A      2.594339  1789A      2.596948  1790A      2.597499  
    1791A      2.598661  1792A      2.602903  1793A      2.606082  
    1794A      2.606257  1795A      2.613901  1796A      2.614600  
    1797A      2.615069  1798A      2.617748  1799A      2.620472  
    1800A      2.621473  1801A      2.621995  1802A      2.627183  
    1803A      2.628061  1804A      2.633733  1805A      2.634670  
    1806A      2.636129  1807A      2.640061  1808A      2.640328  
    1809A      2.640543  1810A      2.641833  1811A      2.645039  
    1812A      2.646383  1813A      2.647314  1814A      2.653018  
    1815A      2.670776  1816A      2.671594  1817A      2.679729  
    1818A      2.679763  1819A      2.680655  1820A      2.682362  
    1821A      2.682639  1822A      2.688342  1823A      2.690952  
    1824A      2.698827  1825A      2.702205  1826A      2.707735  
    1827A      2.708477  1828A      2.716209  1829A      2.719835  
    1830A      2.723423  1831A      2.728255  1832A      2.728915  
    1833A      2.746284  1834A      2.747002  1835A      2.748033  
    1836A      2.749320  1837A      2.750421  1838A      2.750525  
    1839A      2.756407  1840A      2.757665  1841A      2.759424  
    1842A      2.762973  1843A      2.763079  1844A      2.764648  
    1845A      2.765319  1846A      2.775764  1847A      2.776072  
    1848A      2.788820  1849A      2.789076  1850A      2.790411  
    1851A      2.790532  1852A      2.794775  1853A      2.805459  
    1854A      2.808231  1855A      2.813569  1856A      2.813985  
    1857A      2.819616  1858A      2.820772  1859A      2.823228  
    1860A      2.842972  1861A      2.843887  1862A      2.860035  
    1863A      2.868191  1864A      2.868348  1865A      2.878136  
    1866A      2.880218  1867A      2.884947  1868A      2.885074  
    1869A      2.912782  1870A      2.915014  1871A      2.915538  
    1872A      2.926089  1873A      2.926664  1874A      2.941925  
    1875A      2.942174  1876A      2.978052  1877A      2.978836  
    1878A      2.985280  1879A      2.985403  1880A      2.988802  
    1881A      2.995938  1882A      2.996724  1883A      2.998700  
    1884A      3.006176  1885A      3.006322  1886A      3.015083  
    1887A      3.022054  1888A      3.056541  1889A      3.058970  
    1890A      3.063246  1891A      3.063552  1892A      3.071747  
    1893A      3.073961  1894A      3.076126  1895A      3.076839  
    1896A      3.081871  1897A      3.083545  1898A      3.092077  
    1899A      3.093249  1900A      3.097319  1901A      3.097708  
    1902A      3.099661  1903A      3.100464  1904A      3.104040  
    1905A      3.112943  1906A      3.115571  1907A      3.123533  
    1908A      3.125435  1909A      3.125681  1910A      3.143486  
    1911A      3.144301  1912A      3.170829  1913A      3.202455  
    1914A      3.209278  1915A      3.210083  1916A      3.210312  
    1917A      3.211278  1918A      3.213533  1919A      3.217597  
    1920A      3.221045  1921A      3.224506  1922A      3.225007  
    1923A      3.242174  1924A      3.243960  1925A      3.244638  
    1926A      3.251963  1927A      3.309373  1928A      3.310418  
    1929A      3.318039  1930A      3.363567  1931A      3.377599  
    1932A      3.379828  1933A      3.382397  1934A      3.392017  
    1935A      3.396773  1936A      3.407913  1937A      3.412287  
    1938A      3.413265  1939A      3.419009  1940A      3.421718  
    1941A      3.428586  1942A      3.433505  1943A      3.441186  
    1944A      3.448563  1945A      3.456922  1946A      3.486823  
    1947A      3.522490  1948A      3.524178  1949A      3.531025  
    1950A      3.537611  1951A      3.539123  1952A      3.586386  
    1953A      3.587287  1954A      3.612868  1955A      3.615727  
    1956A      3.653377  1957A      3.695081  1958A      3.698435  
    1959A      3.699298  1960A      3.710531  1961A      3.726540  
    1962A      3.728246  1963A      3.791245  1964A      3.792315  
    1965A      3.820738  1966A      3.823707  1967A      3.853399  
    1968A      3.861240  1969A      3.884951  1970A      3.887010  
    1971A      3.897131  1972A      3.898224  1973A      3.906558  
    1974A      3.911346  1975A      3.918323  1976A      3.972426  
    1977A      3.974968  1978A      4.017829  1979A      4.175043  
    1980A      4.247213  1981A      4.338739  

    Final Occupation by Irrep:
              A 
    DOCC [   326 ]
    NA   [   326 ]
    NB   [   326 ]

  @DF-RHF Final Energy: -3953.64565706973644

   => Energetics <=

    Nuclear Repulsion Energy =          17632.6891731592659198
    One-Electron Energy =              -40477.9424457113927929
    Two-Electron Energy =               18891.6076154823895195
    Total Energy =                      -3953.6456570697373536

Computation Completed


Properties will be evaluated at   0.000000,   0.000000,   0.000000 [a0]

Properties computed using the SCF density matrix


 Multipole Moments:

 ------------------------------------------------------------------------------------
     Multipole            Electronic (a.u.)      Nuclear  (a.u.)        Total (a.u.)
 ------------------------------------------------------------------------------------

 L = 1.  Multiply by 2.5417464519 to convert [e a0] to [Debye]
 Dipole X            :         -0.0023708            0.0004804           -0.0018904
 Dipole Y            :         -6.8106438            8.7122315            1.9015877
 Dipole Z            :         32.4649959          -44.2701202          -11.8051242
 Magnitude           :                                                   11.9572989

 ------------------------------------------------------------------------------------

*** tstop() called on n2cn0267 at Wed Jan 24 20:03:07 2024
Module time:
	user time   =   25851.05 seconds =     430.85 minutes
	system time =    1416.43 seconds =      23.61 minutes
	total time  =       5637 seconds =      93.95 minutes
Total time:
	user time   =   25851.05 seconds =     430.85 minutes
	system time =    1416.43 seconds =      23.61 minutes
	total time  =       5637 seconds =      93.95 minutes

  //>>>>>>>>>>>>>>>>>>>>>>>>>>>>>>>>>>>//
  //            Monomer A HF           //
  //<<<<<<<<<<<<<<<<<<<<<<<<<<<<<<<<<<<//

   => Libint2 <=

    Primary   basis highest AM E, G, H:  5, 4, 3
    Auxiliary basis highest AM E, G, H:  6, 5, 4
    Onebody   basis highest AM E, G, H:  6, 5, 4
    Solid Harmonics ordering:            gaussian

*** tstart() called on n2cn0267
*** at Wed Jan 24 20:03:07 2024

   => Loading Basis Set <=

    Name: JUN-CC-PVDZ
    Role: ORBITAL
    Keyword: BASIS
    atoms 1-2, 4-5, 10, 17-34, 41-53, 56-70, 73-89, 92-104, 109-119, 122-130 entry C          line   164 file /opt/software/pc2/EB-SW/software/PSI4/1.9-foss-2022a/share/psi4/basis/jun-cc-pvdz.gbs 
    atoms 3, 6                                                               entry N          line   198 file /opt/software/pc2/EB-SW/software/PSI4/1.9-foss-2022a/share/psi4/basis/jun-cc-pvdz.gbs 
    atoms 7-9, 11-16, 35-40, 54-55, 71-72, 90-91, 105-108, 120-121, 131-136  entry H          line    36 file /opt/software/pc2/EB-SW/software/PSI4/1.9-foss-2022a/share/psi4/basis/jun-cc-pvdz.gbs 


         ---------------------------------------------------------
                                   SCF
               by Justin Turney, Rob Parrish, Andy Simmonett
                          and Daniel G. A. Smith
                              RHF Reference
                       16 Threads,  44822 MiB Core
         ---------------------------------------------------------

  ==> Geometry <==

    Molecular point group: c1
    Full point group: C1

    Geometry (in Angstrom), charge = 1, multiplicity = 1:

       Center              X                  Y                   Z               Mass       
    ------------   -----------------  -----------------  -----------------  -----------------
         C            0.680062820275     1.308604348936    -8.236493483346    12.000000000000
         C           -0.680508179725     1.310632348936    -8.236109483346    12.000000000000
         N           -1.085639179725     1.311630348936    -6.917785483346    14.003074004430
         C            0.000103820275     1.314906348936    -6.136384483346    12.000000000000
[...]
    1579A      2.162485  1580A      2.162882  1581A      2.171172  
    1582A      2.171517  1583A      2.177086  1584A      2.179695  
    1585A      2.181170  1586A      2.181261  1587A      2.182436  
    1588A      2.188296  1589A      2.188700  1590A      2.190141  
    1591A      2.191359  1592A      2.191865  1593A      2.192851  
    1594A      2.195097  1595A      2.196949  1596A      2.198095  
    1597A      2.198949  1598A      2.200406  1599A      2.200731  
    1600A      2.200882  1601A      2.201416  1602A      2.203531  
    1603A      2.204616  1604A      2.205559  1605A      2.209236  
    1606A      2.213756  1607A      2.214054  1608A      2.216869  
    1609A      2.220149  1610A      2.222241  1611A      2.222723  
    1612A      2.224280  1613A      2.224798  1614A      2.224844  
    1615A      2.228803  1616A      2.232040  1617A      2.232309  
    1618A      2.233316  1619A      2.238748  1620A      2.238911  
    1621A      2.239523  1622A      2.240888  1623A      2.242591  
    1624A      2.247674  1625A      2.248105  1626A      2.248676  
    1627A      2.249674  1628A      2.260504  1629A      2.261488  
    1630A      2.263378  1631A      2.264927  1632A      2.266554  
    1633A      2.269617  1634A      2.270767  1635A      2.275453  
    1636A      2.280777  1637A      2.282816  1638A      2.284287  
    1639A      2.290225  1640A      2.290985  1641A      2.296352  
    1642A      2.296794  1643A      2.301969  1644A      2.303743  
    1645A      2.304168  1646A      2.309057  1647A      2.314880  
    1648A      2.323284  1649A      2.324516  1650A      2.324885  
    1651A      2.325205  1652A      2.327125  1653A      2.329382  
    1654A      2.330561  1655A      2.331081  1656A      2.333009  
    1657A      2.334349  1658A      2.335097  1659A      2.339716  
    1660A      2.341333  1661A      2.342115  1662A      2.342343  
    1663A      2.344700  1664A      2.345782  1665A      2.346307  
    1666A      2.346695  1667A      2.348424  1668A      2.349099  
    1669A      2.349417  1670A      2.368102  1671A      2.372478  
    1672A      2.372897  1673A      2.383637  1674A      2.387985  
    1675A      2.389770  1676A      2.391286  1677A      2.391706  
    1678A      2.393170  1679A      2.396987  1680A      2.418321  
    1681A      2.419511  1682A      2.423497  1683A      2.427528  
    1684A      2.431889  1685A      2.441599  1686A      2.443322  
    1687A      2.448133  1688A      2.451195  1689A      2.452758  
    1690A      2.453066  1691A      2.459941  1692A      2.464287  
    1693A      2.464359  1694A      2.467713  1695A      2.467997  
    1696A      2.471701  1697A      2.471950  1698A      2.472173  
    1699A      2.478843  1700A      2.491032  1701A      2.491426  
    1702A      2.494605  1703A      2.501746  1704A      2.506116  
    1705A      2.507028  1706A      2.511464  1707A      2.514385  
    1708A      2.516219  1709A      2.539081  1710A      2.539163  
    1711A      2.540110  1712A      2.542090  1713A      2.542755  
    1714A      2.545223  1715A      2.547638  1716A      2.548438  
    1717A      2.549195  1718A      2.551135  1719A      2.556531  
    1720A      2.556678  1721A      2.564203  1722A      2.571095  
    1723A      2.571615  1724A      2.579945  1725A      2.580368  
    1726A      2.583662  1727A      2.584222  1728A      2.585084  
    1729A      2.586230  1730A      2.588513  1731A      2.588823  
    1732A      2.593198  1733A      2.593498  1734A      2.601281  
    1735A      2.601445  1736A      2.612735  1737A      2.612932  
    1738A      2.613257  1739A      2.613714  1740A      2.617109  
    1741A      2.617508  1742A      2.632753  1743A      2.636498  
    1744A      2.640552  1745A      2.641500  1746A      2.643633  
    1747A      2.645401  1748A      2.647261  1749A      2.648534  
    1750A      2.648994  1751A      2.649358  1752A      2.652676  
    1753A      2.653534  1754A      2.655775  1755A      2.656130  
    1756A      2.661701  1757A      2.665994  1758A      2.666100  
    1759A      2.667542  1760A      2.670444  1761A      2.670582  
    1762A      2.673560  1763A      2.676591  1764A      2.677458  
    1765A      2.677592  1766A      2.684548  1767A      2.685628  
    1768A      2.687201  1769A      2.691191  1770A      2.691252  
    1771A      2.691560  1772A      2.692406  1773A      2.696047  
    1774A      2.697277  1775A      2.704192  1776A      2.720714  
    1777A      2.730707  1778A      2.730830  1779A      2.730966  
    1780A      2.731391  1781A      2.731661  1782A      2.740404  
    1783A      2.749984  1784A      2.752707  1785A      2.760250  
    1786A      2.760844  1787A      2.768859  1788A      2.772487  
    1789A      2.775915  1790A      2.779779  1791A      2.780323  
    1792A      2.799089  1793A      2.799852  1794A      2.801522  
    1795A      2.802162  1796A      2.802202  1797A      2.807390  
    1798A      2.810689  1799A      2.811760  1800A      2.815055  
    1801A      2.815383  1802A      2.816121  1803A      2.816237  
    1804A      2.828086  1805A      2.828311  1806A      2.838920  
    1807A      2.840129  1808A      2.840706  1809A      2.841796  
    1810A      2.841864  1811A      2.845729  1812A      2.860135  
    1813A      2.865143  1814A      2.865392  1815A      2.870069  
    1816A      2.871379  1817A      2.874398  1818A      2.879106  
    1819A      2.892787  1820A      2.895895  1821A      2.896781  
    1822A      2.911972  1823A      2.913154  1824A      2.917664  
    1825A      2.917841  1826A      2.925327  1827A      2.927412  
    1828A      2.929685  1829A      2.934846  1830A      2.934943  
    1831A      2.951285  1832A      2.963097  1833A      2.964771  
    1834A      2.965308  1835A      2.974883  1836A      2.976219  
    1837A      2.991973  1838A      2.992478  1839A      3.001795  
    1840A      3.014157  1841A      3.029159  1842A      3.030012  
    1843A      3.035507  1844A      3.038573  1845A      3.042083  
    1846A      3.046830  1847A      3.047555  1848A      3.048052  
    1849A      3.057485  1850A      3.057660  1851A      3.063371  
    1852A      3.072846  1853A      3.108626  1854A      3.112882  
    1855A      3.113126  1856A      3.122451  1857A      3.127165  
    1858A      3.127743  1859A      3.132526  1860A      3.134234  
    1861A      3.142007  1862A      3.142962  1863A      3.143501  
    1864A      3.148467  1865A      3.148855  1866A      3.149484  
    1867A      3.150093  1868A      3.153542  1869A      3.162177  
    1870A      3.167748  1871A      3.173156  1872A      3.174986  
    1873A      3.175161  1874A      3.193134  1875A      3.193909  
    1876A      3.220086  1877A      3.252859  1878A      3.259444  
    1879A      3.260800  1880A      3.261437  1881A      3.261986  
    1882A      3.264249  1883A      3.268108  1884A      3.271250  
    1885A      3.274655  1886A      3.275377  1887A      3.286953  
    1888A      3.292994  1889A      3.294973  1890A      3.295883  
    1891A      3.302506  1892A      3.309669  1893A      3.321354  
    1894A      3.361196  1895A      3.362187  1896A      3.370004  
    1897A      3.406436  1898A      3.415603  1899A      3.429956  
    1900A      3.432197  1901A      3.436957  1902A      3.445016  
    1903A      3.449830  1904A      3.460951  1905A      3.464471  
    1906A      3.465440  1907A      3.471127  1908A      3.473939  
    1909A      3.480746  1910A      3.486204  1911A      3.493613  
    1912A      3.509080  1913A      3.524498  1914A      3.539466  
    1915A      3.570831  1916A      3.574382  1917A      3.576061  
    1918A      3.582944  1919A      3.589939  1920A      3.638351  
    1921A      3.639295  1922A      3.645131  1923A      3.664760  
    1924A      3.666777  1925A      3.705011  1926A      3.747598  
    1927A      3.749247  1928A      3.750488  1929A      3.757804  
    1930A      3.763263  1931A      3.778629  1932A      3.779362  
    1933A      3.816181  1934A      3.841908  1935A      3.843309  
    1936A      3.868340  1937A      3.871452  1938A      3.874591  
    1939A      3.904629  1940A      3.912923  1941A      3.937744  
    1942A      3.939973  1943A      3.948203  1944A      3.949139  
    1945A      3.958421  1946A      3.961901  1947A      3.964420  
    1948A      3.970749  1949A      4.024624  1950A      4.027421  
    1951A      4.070902  1952A      4.206353  1953A      4.209956  
    1954A      4.229152  1955A      4.301730  1956A      4.348106  
    1957A      4.361099  1958A      4.393115  1959A      4.487406  
    1960A      4.737987  1961A      4.776123  1962A      4.831082  
    1963A      4.846766  1964A      4.936203  1965A      5.051444  
    1966A      5.057240  1967A      5.066508  1968A      5.111057  
    1969A      5.134167  1970A      5.392366  1971A      5.422598  
    1972A      5.732715  1973A      5.756896  1974A      6.067611  
    1975A     18.198705  1976A     18.454914  1977A     18.471985  
    1978A     18.559848  1979A     18.831477  1980A     25.339216  
    1981A     25.375183  

    Final Occupation by Irrep:
              A 
    DOCC [   300 ]
    NA   [   300 ]
    NB   [   300 ]

  @DF-RHF Final Energy: -3650.33774974283824

   => Energetics <=

    Nuclear Repulsion Energy =          15611.4211649754306563
    One-Electron Energy =              -36072.0805909120026627
    Two-Electron Energy =               16810.3216761937364936
    Total Energy =                      -3650.3377497428373317

Computation Completed


Properties will be evaluated at   0.000000,   0.000000,   0.000000 [a0]

Properties computed using the SCF density matrix


 Multipole Moments:

 ------------------------------------------------------------------------------------
     Multipole            Electronic (a.u.)      Nuclear  (a.u.)        Total (a.u.)
 ------------------------------------------------------------------------------------

 L = 1.  Multiply by 2.5417464519 to convert [e a0] to [Debye]
 Dipole X            :         -0.0009288            0.0002112           -0.0007176
 Dipole Y            :        123.2132452         -123.2131634            0.0000818
 Dipole Z            :       -656.9840559          656.9880522            0.0039963
 Magnitude           :                                                    0.0040610

 ------------------------------------------------------------------------------------

*** tstop() called on n2cn0267 at Wed Jan 24 21:56:52 2024
Module time:
	user time   =   19614.90 seconds =     326.92 minutes
	system time =    1129.34 seconds =      18.82 minutes
	total time  =       4633 seconds =      77.22 minutes
Total time:
	user time   =   51705.09 seconds =     861.75 minutes
	system time =    2866.27 seconds =      47.77 minutes
	total time  =      12462 seconds =     207.70 minutes
  Constructing Basis Sets for SAPT...

   => Loading Basis Set <=

    Name: (JUN-CC-PVDZ AUX)
    Role: RIFIT
    Keyword: DF_BASIS_SAPT
    atoms 1-2, 4-5, 10, 17-34, 41-53, 56-70, 73-89, 92-104, 109-119, 122-130 entry C          line   100 file /opt/software/pc2/EB-SW/software/PSI4/1.9-foss-2022a/share/psi4/basis/jun-cc-pvdz-ri.gbs 
    atoms 3, 6                                                               entry N          line   144 file /opt/software/pc2/EB-SW/software/PSI4/1.9-foss-2022a/share/psi4/basis/jun-cc-pvdz-ri.gbs 
    atoms 7-9, 11-16, 35-40, 54-55, 71-72, 90-91, 105-108, 120-121, 131-136  entry H          line    30 file /opt/software/pc2/EB-SW/software/PSI4/1.9-foss-2022a/share/psi4/basis/jun-cc-pvdz-ri.gbs 

   => Loading Basis Set <=

    Name: (JUN-CC-PVDZ AUX)
    Role: JKFIT
    Keyword: DF_BASIS_ELST
    atoms 1-2, 4-5, 10, 17-34, 41-53, 56-70, 73-89, 92-104, 109-119, 122-130 entry C          line   146 file /opt/software/pc2/EB-SW/software/PSI4/1.9-foss-2022a/share/psi4/basis/jun-cc-pvdz-jkfit.gbs 
    atoms 3, 6                                                               entry N          line   202 file /opt/software/pc2/EB-SW/software/PSI4/1.9-foss-2022a/share/psi4/basis/jun-cc-pvdz-jkfit.gbs 
    atoms 7-9, 11-16, 35-40, 54-55, 71-72, 90-91, 105-108, 120-121, 131-136  entry H          line    70 file /opt/software/pc2/EB-SW/software/PSI4/1.9-foss-2022a/share/psi4/basis/jun-cc-pvdz-jkfit.gbs 


  //>>>>>>>>>>>>>>>>>>>>>>>>>>>>>>>>>>>//
  //               SSAPT0              //
  //<<<<<<<<<<<<<<<<<<<<<<<<<<<<<<<<<<<//


*** tstart() called on n2cn0267
*** at Wed Jan 24 21:56:54 2024

        SAPT0  
    Ed Hohenstein
     6 June 2009

      Orbital Information
  --------------------------
    NSO        =      2019
    NMO        =      1981
    NRI        =      7157
    NRI (Elst) =      8896
    NOCC A     =        26
    NOCC B     =       300
    FOCC A     =         7
    FOCC B     =        96
    NVIR A     =      1955
    NVIR B     =      1681

    Elst10,r            =    -0.007799130786 [Eh]
    Exch10              =    -0.000000222239 [Eh]
    Exch10 (S^2)        =    -0.000000222239 [Eh]

    Iter     Energy [mEh]          dE [mEh]         Residual      Time [s]
       1      -0.01361890       0.013618904       1.104312925          1042
       2      -0.01287582      -0.000743085       0.284468199          1637
       3      -0.01414153       0.001265713       0.077633153          2071
       4      -0.01421846       0.000076929       0.034959792          2488
       5      -0.01416136      -0.000057105       0.011175687          3011
       6      -0.01416070      -0.000000660       0.003587998          3453
       7      -0.01416496       0.000004260       0.001157259          3950
       8      -0.01416565       0.000000695       0.000326414          4389
       9      -0.01416547      -0.000000184       0.000114067          4915
      10      -0.01416538      -0.000000091       0.000030761          5421
      11      -0.01416538       0.000000007       0.000008451          5908
      12      -0.01416539       0.000000006       0.000002626          6484
      13      -0.01416539       0.000000001       0.000000871          6995

    CHF Iterations converged


    Iter     Energy [mEh]          dE [mEh]         Residual      Time [s]
       1      -4.28883951       4.288839514      35.626066402           555
       2      -2.78045457      -1.508384946       4.198452039          1659
       3      -2.76887979      -0.011574776       1.451121975          2175
       4      -2.82118666       0.052306873       0.474185025          2711
       5      -2.82815025       0.006963584       0.188821612          3217
       6      -2.82693842      -0.001211834       0.127116384          3774
       7      -2.82527267      -0.001665742       0.049578859          4289
       8      -2.82540865       0.000135977       0.020928223          4834
       9      -2.82567340       0.000264751       0.007703690          5353
      10      -2.82565510      -0.000018299       0.005299570          5886
      11      -2.82561988      -0.000035221       0.002877486          6403
      12      -2.82561485      -0.000005035       0.002139504          7033
      13      -2.82562769       0.000012846       0.001255343          7552
      14      -2.82563164       0.000003951       0.000732745          8026
      15      -2.82562860      -0.000003047       0.000450679          8625
      16      -2.82562579      -0.000002809       0.000170161          9169
      17      -2.82562702       0.000001233       0.000082705          9730
      18      -2.82562747       0.000000446       0.000043588         10300
      19      -2.82562728      -0.000000187       0.000031297         10905
      20      -2.82562712      -0.000000156       0.000012843         11365
      21      -2.82562716       0.000000035       0.000006120         11930
      22      -2.82562719       0.000000030       0.000002383         12382
      23      -2.82562719      -0.000000000       0.000000826         12794

    CHF Iterations converged

    Ind20,r (A<-B)      =    -0.000014165389 [Eh]
    Ind20,r (B<-A)      =    -0.002825627189 [Eh]
    Ind20,r             =    -0.002839792578 [Eh]
    Exch-Ind20,r (A<-B) =     0.000000023866 [Eh]
    Exch-Ind20,r (B<-A) =     0.000000301011 [Eh]
    Exch-Ind20,r        =     0.000000324877 [Eh]
    Disp20              =    -0.001240825249 [Eh]
    Disp20 (SS)         =    -0.000620412625 [Eh]
    Disp20 (OS)         =    -0.000620412625 [Eh]
    Exch-Disp20         =     0.000000104441 [Eh]
    Exch-Disp20 (SS)    =     0.000000078576 [Eh]
    Exch-Disp20 (OS)    =     0.000000025865 [Eh]

    SAPT Results 
  --------------------------------------------------------------------------------------------------------
    Electrostatics                 -7.79913079 [mEh]      -4.89402846 [kcal/mol]     -20.47661506 [kJ/mol]
      Elst10,r                     -7.79913079 [mEh]      -4.89402846 [kcal/mol]     -20.47661506 [kJ/mol]

    Exchange                       -0.00022224 [mEh]      -0.00013946 [kcal/mol]      -0.00058349 [kJ/mol]
      Exch10                       -0.00022224 [mEh]      -0.00013946 [kcal/mol]      -0.00058349 [kJ/mol]
      Exch10(S^2)                  -0.00022224 [mEh]      -0.00013946 [kcal/mol]      -0.00058349 [kJ/mol]

    Induction                      -2.88581087 [mEh]      -1.81087366 [kcal/mol]      -7.57669541 [kJ/mol]
      Ind20,r                      -2.83979258 [mEh]      -1.78199675 [kcal/mol]      -7.45587439 [kJ/mol]
      Exch-Ind20,r                  0.00032488 [mEh]       0.00020386 [kcal/mol]       0.00085296 [kJ/mol]
      delta HF,r (2)               -0.04634317 [mEh]      -0.02908078 [kcal/mol]      -0.12167399 [kJ/mol]

    Dispersion                     -1.24072081 [mEh]      -0.77856406 [kcal/mol]      -3.25751203 [kJ/mol]
      Disp20                       -1.24082525 [mEh]      -0.77862960 [kcal/mol]      -3.25778624 [kJ/mol]
      Exch-Disp20                   0.00010444 [mEh]       0.00006554 [kcal/mol]       0.00027421 [kJ/mol]
      Disp20 (SS)                  -0.62041262 [mEh]      -0.38931480 [kcal/mol]      -1.62889312 [kJ/mol]
      Disp20 (OS)                  -0.62041262 [mEh]      -0.38931480 [kcal/mol]      -1.62889312 [kJ/mol]
      Exch-Disp20 (SS)              0.00007858 [mEh]       0.00004931 [kcal/mol]       0.00020630 [kJ/mol]
      Exch-Disp20 (OS)              0.00002586 [mEh]       0.00001623 [kcal/mol]       0.00006791 [kJ/mol]

  Total HF                        -10.68516390 [mEh]      -6.70504158 [kcal/mol]     -28.05389395 [kJ/mol]
  Total SAPT0                     -11.92588471 [mEh]      -7.48360564 [kcal/mol]     -31.31140598 [kJ/mol]

  Special recipe for scaled SAPT0 (see Manual):
    Electrostatics sSAPT0          -7.79913079 [mEh]      -4.89402846 [kcal/mol]     -20.47661506 [kJ/mol]
    Exchange sSAPT0                -0.00022224 [mEh]      -0.00013946 [kcal/mol]      -0.00058349 [kJ/mol]
    Induction sSAPT0               -2.88581087 [mEh]      -1.81087366 [kcal/mol]      -7.57669541 [kJ/mol]
    Dispersion sSAPT0              -1.24072081 [mEh]      -0.77856406 [kcal/mol]      -3.25751203 [kJ/mol]
  Total sSAPT0                    -11.92588471 [mEh]      -7.48360564 [kcal/mol]     -31.31140598 [kJ/mol]
  --------------------------------------------------------------------------------------------------------

*** tstop() called on n2cn0267 at Thu Jan 25 12:59:17 2024
Module time:
	user time   =   72732.74 seconds =    1212.21 minutes
	system time =    3176.61 seconds =      52.94 minutes
	total time  =      54143 seconds =     902.38 minutes
Total time:
	user time   =  124439.35 seconds =    2073.99 minutes
	system time =    6042.89 seconds =     100.71 minutes
	total time  =      66607 seconds =    1110.12 minutes

    Psi4 stopped on: Thursday, 25 January 2024 12:59PM
    Psi4 wall time for execution: 18:30:08.76

*** Psi4 exiting successfully. Buy a developer a beer!
