
    -----------------------------------------------------------------------
          Psi4: An Open-Source Ab Initio Electronic Structure Package
                               Psi4 1.9 release

                         Git: Rev {} zzzzzzz 


    D. G. A. Smith, L. A. Burns, A. C. Simmonett, R. M. Parrish,
    M. C. Schieber, R. Galvelis, P. Kraus, H. Kruse, R. Di Remigio,
    A. Alenaizan, A. M. James, S. Lehtola, J. P. Misiewicz, M. Scheurer,
    R. A. Shaw, J. B. Schriber, Y. Xie, Z. L. Glick, D. A. Sirianni,
    J. S. O'Brien, J. M. Waldrop, A. Kumar, E. G. Hohenstein,
    B. P. Pritchard, B. R. Brooks, H. F. Schaefer III, A. Yu. Sokolov,
    K. Patkowski, A. E. DePrince III, U. Bozkaya, R. A. King,
    F. A. Evangelista, J. M. Turney, T. D. Crawford, C. D. Sherrill,
    J. Chem. Phys. 152(18) 184108 (2020). https://doi.org/10.1063/5.0006002

                            Additional Code Authors
    E. T. Seidl, C. L. Janssen, E. F. Valeev, M. L. Leininger,
    J. F. Gonthier, R. M. Richard, H. R. McAlexander, M. Saitow, X. Wang,
    P. Verma, M. H. Lechner, A. Jiang, S. Behnle, A. G. Heide,
    M. F. Herbst, and D. L. Poole

             Previous Authors, Complete List of Code Contributors,
                       and Citations for Specific Modules
    https://github.com/psi4/psi4/blob/master/codemeta.json
    https://github.com/psi4/psi4/graphs/contributors
    http://psicode.org/psi4manual/master/introduction.html#citing-psifour

    -----------------------------------------------------------------------


    Psi4 started on: Monday, 22 January 2024 11:01AM

    Process ID: 1868834
    Host:       d-16-7-4
    PSIDATADIR: /home/gridsan/tfroembgen/.conda/envs/psi4test/share/psi4
    Memory:     500.0 MiB
    Threads:    12
    
  ==> Input File <==

--------------------------------------------------------------------------
memory 32 GB # how much memory is available ! Depends on the nodes/cores !

molecule dimer {
# monomer A
-1 1    # Charge and multiplicity
B -0.000046  0.000337 2.599994
F -1.153597  0.000048 3.415641
F  1.153661 -0.000581 3.415641
F -0.000019 -1.153637 1.784360
F -0.000019  1.153978 1.784360
--
# monomer B
0 1     # Charge and multiplicity
C   1.22531237526482      0.70753866091955      0.00613762728373
C   1.22532433589282     -0.70753852257020     -0.00619318228664
C   -0.00000567409046      1.41496628609039     -0.00672680580738
C   2.45644923379077      1.41832825917820      0.00902448468363
C   0.00001130712078     -1.41497612663474      0.00347275151708
C   -1.22530046906674      0.70754574598412      0.00838914760619
C   2.45643823516184     -1.41832293188077     -0.00843833914343
C   -0.00000085313587      2.83680140328112     -0.00913035594137
C   3.68182717731192      0.70931832800114     -0.00808954934571
C   2.45512052870677      2.83422403348893     -0.00819210630633
C   3.68182158506039     -0.70933346742900      0.00798293467272
C   -1.22531311884624     -0.70752714354401     -0.00512042085974
C   1.22670006104402      3.54346985599427      0.00816696660346
C   0.00000526469929     -2.83678176723568      0.00832091913869
C   -2.45643555300670      1.41831729028492      0.00842454345199
C   2.45512389762097     -2.83422965658853      0.00783102630520
C   -1.22671388474763      3.54346943575023      0.00827029982280
C   4.91451777504333      1.42717324448953     -0.00160886631602
C   3.69315067131765      3.54279566454522     -0.00155906667985
C   -2.45643712022637     -1.41831290883911     -0.00846337726810
C   1.22670532178455     -3.54347386990643     -0.00780316414624
C   -2.45512491866593      2.83421703463423     -0.00818572995999
C   4.91452486062398     -1.42718653794377      0.00136387641845
C   1.22142509354026      4.97013443726031      0.00150231067809
C   4.89300870916237      2.82518837202648     -0.00039219795739
C   -1.22669652864725     -3.54347062507680     -0.00753595973677
C   -3.68181849668397      0.70932533873199     -0.00807686886569
C   3.69314758099218     -3.54280096939050      0.00148176697923
C   -1.22143177215231      4.97012866986289      0.00168580605083
C   6.13477145276790      0.68054831910577     -0.00083909176631
C   3.65678936045204      4.97295361556775     -0.00065042889723
C   -2.45512642789169     -2.83421472106065      0.00758666850712
C   -3.68181869921921     -0.70932533146830      0.00810055625144
C   4.89301309775526     -2.82519973363176      0.00021895393805
C   -0.00000059327114      5.65044773803267      0.00045449734393
C   6.13477559217374     -0.68055448207492      0.00042622874941
C   2.47813196269732      5.65357712333155      0.00063835075260
C   1.22142288457925     -4.97012668293268     -0.00129718634452
C   -3.69316190412301      3.54279732619245     -0.00139355922051
C   -1.22142804110313     -4.97011793159564     -0.00140994817719
C   -4.91452132810043      1.42717581899491     -0.00153192130862
C   3.65678749952045     -4.97295485423912      0.00080007163680
C   -2.47813805026426      5.65357479452875      0.00092287576113
C   -3.69314125872231     -3.54278984697859      0.00136564082345
C   -4.91451200321153     -1.42718062802730      0.00139857359209
C   -0.00000552908399     -5.65043791501335      0.00005899322272
C   -4.89302000425900      2.82518897091939     -0.00040227981744
C   2.47812647313991     -5.65357317188818     -0.00029052915548
C   -3.65679823041642      4.97295655404175     -0.00047374852278
C   -4.89299899901461     -2.82519139505969      0.00006491824035
C   -2.47812801824129     -5.65356579800621     -0.00056571680280
C   -6.13477002348955      0.68054913825639     -0.00086464346868
C   -3.65678835334731     -4.97294365097028      0.00058578382008
C   -6.13476456307132     -0.68055354348201      0.00040575295444
H   5.83528897565761      3.36927626695423      0.00396712770529
H   7.07385965258860      1.22821762089947     -0.00037744837300
H   4.60066374401555      5.51238117445323     -0.00014522814529
H   5.83528386714679     -3.36930568472863     -0.00423551337640
H   -0.00001167146422      6.73853104613662     -0.00389474766392
H   7.07386165167227     -1.22822657074368     -0.00008250934481
H   2.47331421164041      6.74068466339473      0.00017162982210
H   4.60066897122302     -5.51237575717576      0.00039007446835
H   -2.47331820069565      6.74068209160650      0.00047297644710
H   -0.00000978838621     -6.73852780445195      0.00458867820736
H   -5.83530143450167      3.36927132229595      0.00410314985360
H   2.47330840367253     -6.74068500242887      0.00027980126949
H   -4.60067436136587      5.51237839860371      0.00002010017831
H   -5.83527902699321     -3.36928859177951     -0.00451481925734
H   -2.47329986759855     -6.74067870613986     -0.00016951527498
H   -7.07385728692578      1.22822084484047     -0.00046143985387
H   -4.60067330624313     -5.51236229778631      0.00021776644566
H   -7.07385645456741     -1.22822025997701     -0.00017736581114

    units angstrom      # Angstroms are the default
    no_reorient         # Geometry fixed, default
    symmetry c1         # C1 symmetry, default
}

set {
    scf_type DF         # Density fitting, faster than exact integrals
    freeze_core True    # Freeze core electrons
    basis jun-cc-pVDZ   # Jun-cc-pVDZ basis set, recommended for sSAPT0 in https://doi.org/10.1063/1.4867135
}

energy('ssapt0')        # Compute sSAPT0 energy, includes also SAPT0
--------------------------------------------------------------------------

  Memory set to  29.802 GiB by Python driver.

Scratch directory: /state/partition1/slurm_tmp/24792912.4294967291.0/
   => Loading Basis Set <=

    Name: JUN-CC-PVDZ
    Role: ORBITAL
    Keyword: BASIS
    atoms 1     entry B          line   130 file /home/gridsan/tfroembgen/.conda/envs/psi4test/share/psi4/basis/jun-cc-pvdz.gbs 
    atoms 2-5   entry F          line   266 file /home/gridsan/tfroembgen/.conda/envs/psi4test/share/psi4/basis/jun-cc-pvdz.gbs 
    atoms 6-59  entry C          line   164 file /home/gridsan/tfroembgen/.conda/envs/psi4test/share/psi4/basis/jun-cc-pvdz.gbs 
    atoms 60-77 entry H          line    36 file /home/gridsan/tfroembgen/.conda/envs/psi4test/share/psi4/basis/jun-cc-pvdz.gbs 

   => Loading Basis Set <=

    Name: JUN-CC-PVDZ
    Role: ORBITAL
    Keyword: BASIS
    atoms 1     entry B          line   130 file /home/gridsan/tfroembgen/.conda/envs/psi4test/share/psi4/basis/jun-cc-pvdz.gbs 
    atoms 2-5   entry F          line   266 file /home/gridsan/tfroembgen/.conda/envs/psi4test/share/psi4/basis/jun-cc-pvdz.gbs 
    atoms 6-59  entry C          line   164 file /home/gridsan/tfroembgen/.conda/envs/psi4test/share/psi4/basis/jun-cc-pvdz.gbs 
    atoms 60-77 entry H          line    36 file /home/gridsan/tfroembgen/.conda/envs/psi4test/share/psi4/basis/jun-cc-pvdz.gbs 


  //>>>>>>>>>>>>>>>>>>>>>>>>>>>>>>>>>>>//
  //              Dimer HF             //
  //<<<<<<<<<<<<<<<<<<<<<<<<<<<<<<<<<<<//

   => Libint2 <=

    Primary   basis highest AM E, G, H:  7, 7, 4
    Auxiliary basis highest AM E, G, H:  7, 7, 5
    Onebody   basis highest AM E, G, H:  7, 7, 5
    Solid Harmonics ordering:            gaussian

*** tstart() called on d-16-7-4
*** at Mon Jan 22 11:01:07 2024

   => Loading Basis Set <=

    Name: JUN-CC-PVDZ
    Role: ORBITAL
    Keyword: BASIS
    atoms 1     entry B          line   130 file /home/gridsan/tfroembgen/.conda/envs/psi4test/share/psi4/basis/jun-cc-pvdz.gbs 
    atoms 2-5   entry F          line   266 file /home/gridsan/tfroembgen/.conda/envs/psi4test/share/psi4/basis/jun-cc-pvdz.gbs 
    atoms 6-59  entry C          line   164 file /home/gridsan/tfroembgen/.conda/envs/psi4test/share/psi4/basis/jun-cc-pvdz.gbs 
    atoms 60-77 entry H          line    36 file /home/gridsan/tfroembgen/.conda/envs/psi4test/share/psi4/basis/jun-cc-pvdz.gbs 


         ---------------------------------------------------------
                                   SCF
               by Justin Turney, Rob Parrish, Andy Simmonett
                          and Daniel G. A. Smith
                              RHF Reference
                       12 Threads,  30517 MiB Core
         ---------------------------------------------------------

  ==> Geometry <==

    Molecular point group: c1
    Full point group: C1

    Geometry (in Angstrom), charge = -1, multiplicity = 1:

       Center              X                  Y                   Z               Mass       
    ------------   -----------------  -----------------  -----------------  -----------------
         B           -0.000046449334     0.000336519434     2.299645129694    11.009305360000
         F           -1.153597449334     0.000047519434     3.115292129694    18.998403162730
         F            1.153660550666    -0.000581480566     3.115292129694    18.998403162730
         F           -0.000019449334    -1.153637480566     1.484011129694    18.998403162730
         F           -0.000019449334     1.153977519434     1.484011129694    18.998403162730
         C            1.225311925931     0.707538180353    -0.294211243022    12.000000000000
         C            1.225323886559    -0.707539003137    -0.306542052592    12.000000000000
         C           -0.000006123424     1.414965805524    -0.307075676113    12.000000000000
         C            2.456448784457     1.418327778612    -0.291324385622    12.000000000000
         C            0.000010857787    -1.414976607201    -0.296876118789    12.000000000000
         C           -1.225300918401     0.707545265418    -0.291959722700    12.000000000000
         C            2.456437785828    -1.418323412447    -0.308787209449    12.000000000000
         C           -0.000001302470     2.836800922715    -0.309479226247    12.000000000000
         C            3.681826727978     0.709317847435    -0.308438419651    12.000000000000
         C            2.455120079373     2.834223552923    -0.308540976612    12.000000000000
         C            3.681821135726    -0.709333947995    -0.292365935633    12.000000000000
         C           -1.225313568180    -0.707527624110    -0.305469291165    12.000000000000
         C            1.226699611710     3.543469375428    -0.292181903702    12.000000000000
         C            0.000004815365    -2.836782247802    -0.292027951167    12.000000000000
         C           -2.456436002341     1.418316809719    -0.291924326854    12.000000000000
         C            2.455123448287    -2.834230137155    -0.292517844001    12.000000000000
         C           -1.226714334082     3.543468955184    -0.292078570483    12.000000000000
         C            4.914517325709     1.427172763923    -0.301957736622    12.000000000000
         C            3.693150221984     3.542795183979    -0.301907936986    12.000000000000
         C           -2.456437569560    -1.418313389406    -0.308812247574    12.000000000000
         C            1.226704872451    -3.543474350473    -0.308152034452    12.000000000000
         C           -2.455125368000     2.834216554068    -0.308534600266    12.000000000000
         C            4.914524411290    -1.427187018510    -0.298984993887    12.000000000000
         C            1.221424644206     4.970133956694    -0.298846559628    12.000000000000
         C            4.893008259828     2.825187891460    -0.300741068263    12.000000000000
         C           -1.226696977981    -3.543471105643    -0.307884830042    12.000000000000
         C           -3.681818946018     0.709324858166    -0.308425739171    12.000000000000
         C            3.693147131658    -3.542801449957    -0.298867103326    12.000000000000
         C           -1.221432221486     4.970128189296    -0.298663064255    12.000000000000
         C            6.134771003434     0.680547838539    -0.301187962072    12.000000000000
         C            3.656788911118     4.972953135001    -0.300999299203    12.000000000000
         C           -2.455126877226    -2.834215201627    -0.292762201799    12.000000000000
         C           -3.681819148553    -0.709325812035    -0.292248314054    12.000000000000
         C            4.893012648421    -2.825200214198    -0.300129916368    12.000000000000
         C           -0.000001042605     5.650447257466    -0.299894372962    12.000000000000
         C            6.134775142840    -0.680554962641    -0.299922641556    12.000000000000
         C            2.478131513363     5.653576642765    -0.299710519553    12.000000000000
         C            1.221422435245    -4.970127163499    -0.301646056650    12.000000000000
         C           -3.693162353457     3.542796845626    -0.301742429526    12.000000000000
         C           -1.221428490437    -4.970118412162    -0.301758818483    12.000000000000
         C           -4.914521777434     1.427175338429    -0.301880791614    12.000000000000
         C            3.656787050187    -4.972955334806    -0.299548798669    12.000000000000
         C           -2.478138499598     5.653574313962    -0.299425994545    12.000000000000
         C           -3.693141708056    -3.542790327545    -0.298983229482    12.000000000000
         C           -4.914512452545    -1.427181108594    -0.298950296714    12.000000000000
         C           -0.000005978418    -5.650438395580    -0.300289877083    12.000000000000
         C           -4.893020453593     2.825188490353    -0.300751150123    12.000000000000
         C            2.478126023806    -5.653573652455    -0.300639399461    12.000000000000
         C           -3.656798679750     4.972956073475    -0.300822618829    12.000000000000
         C           -4.892999448349    -2.825191875626    -0.300283952065    12.000000000000
         C           -2.478128467575    -5.653566278573    -0.300914587109    12.000000000000
         C           -6.134770472823     0.680548657690    -0.301213513774    12.000000000000
         C           -3.656788802681    -4.972944131537    -0.299763086486    12.000000000000
         C           -6.134765012405    -0.680554024048    -0.299943117351    12.000000000000
         H            5.835288526324     3.369275786388    -0.296381742600     1.007825032230
         H            7.073859203255     1.228217140333    -0.300726318679     1.007825032230
         H            4.600663294682     5.512380693887    -0.300494098451     1.007825032230
         H            5.835283417813    -3.369306165295    -0.304584383682     1.007825032230
         H           -0.000012120798     6.738530565570    -0.304243617970     1.007825032230
         H            7.073861202338    -1.228227051310    -0.300431379651     1.007825032230
         H            2.473313762307     6.740684182828    -0.300177240484     1.007825032230
         H            4.600668521889    -5.512376237742    -0.299958795837     1.007825032230
         H           -2.473318650030     6.740681611040    -0.299875893859     1.007825032230
         H           -0.000010237720    -6.738528285018    -0.295760192098     1.007825032230
         H           -5.835301883836     3.369270841730    -0.296245720452     1.007825032230
         H            2.473307954339    -6.740685482995    -0.300069069036     1.007825032230
         H           -4.600674810700     5.512377918037    -0.300328770127     1.007825032230
         H           -5.835279476327    -3.369289072346    -0.304863689563     1.007825032230
         H           -2.473300316932    -6.740679186706    -0.300518385581     1.007825032230
         H           -7.073857736260     1.228220364274    -0.300810310160     1.007825032230
         H           -4.600673755577    -5.512362778353    -0.300131103860     1.007825032230
         H           -7.073856903901    -1.228220740543    -0.300526236117     1.007825032230

  Running in c1 symmetry.

  Rotational constants: A =      0.00205  B =      0.00205  C =      0.00110 [cm^-1]
  Rotational constants: A =     61.46511  B =     61.45609  C =     33.02250 [MHz]
  Nuclear repulsion = 8124.153664005230894

  Charge       = -1
  Multiplicity = 1
  Electrons    = 384
  Nalpha       = 192
  Nbeta        = 192

  ==> Algorithm <==

  SCF Algorithm Type is DF.
  DIIS enabled.
  MOM disabled.
  Fractional occupation disabled.
  Guess Type is SAD.
  Energy threshold   = 1.00e-08
  Density threshold  = 1.00e-08
  Integral threshold = 1.00e-12

  ==> Primary Basis <==

  Basis Set: JUN-CC-PVDZ
    Blend: JUN-CC-PVDZ
    Number of shells: 526
    Number of basis functions: 1152
    Number of Cartesian functions: 1211
    Spherical Harmonics?: true
    Max angular momentum: 2

   => Loading Basis Set <=

    Name: (JUN-CC-PVDZ AUX)
    Role: JKFIT
    Keyword: DF_BASIS_SCF
    atoms 1     entry B          line    90 file /home/gridsan/tfroembgen/.conda/envs/psi4test/share/psi4/basis/jun-cc-pvdz-jkfit.gbs 
    atoms 2-5   entry F          line   314 file /home/gridsan/tfroembgen/.conda/envs/psi4test/share/psi4/basis/jun-cc-pvdz-jkfit.gbs 
    atoms 6-59  entry C          line   146 file /home/gridsan/tfroembgen/.conda/envs/psi4test/share/psi4/basis/jun-cc-pvdz-jkfit.gbs 
    atoms 60-77 entry H          line    70 file /home/gridsan/tfroembgen/.conda/envs/psi4test/share/psi4/basis/jun-cc-pvdz-jkfit.gbs 

  ==> Integral Setup <==

  ==> DiskDFJK: Density-Fitted J/K Matrices <==

    J tasked:                  Yes
    K tasked:                  Yes
    wK tasked:                  No
    OpenMP threads:             12
    Integrals threads:          12
    Memory [MiB]:            22888
    Algorithm:                Core
    Integral Cache:           SAVE
    Schwarz Cutoff:          1E-12
    Fitting Condition:       1E-10

   => Auxiliary Basis Set <=

  Basis Set: (JUN-CC-PVDZ AUX)
    Blend: JUN-CC-PVDZ-JKFIT
    Number of shells: 1755
    Number of basis functions: 5075
    Number of Cartesian functions: 5819
    Spherical Harmonics?: true
    Max angular momentum: 3

  Minimum eigenvalue in the overlap matrix is 3.2698022890E-10.
  Reciprocal condition number of the overlap matrix is 1.3234494704E-11.
    Using canonical orthogonalization.
  Overall, 14 of 1152 possible MOs eliminated.


  ==> Pre-Iterations <==

  SCF Guess: Superposition of Atomic Densities via on-the-fly atomic UHF (no occupation information).

   -------------------------
    Irrep   Nso     Nmo    
   -------------------------
     A       1152    1138 
   -------------------------
    Total    1152    1138
   -------------------------

  ==> Iterations <==

                           Total Energy        Delta E     RMS |[F,P]|

   @DF-RHF iter SAD: -2484.58189875128210   -2.48458e+03   0.00000e+00 
   @DF-RHF iter   1: -2477.38679339331475    7.19511e+00   1.10411e-03 ADIIS/DIIS
   @DF-RHF iter   2: -2478.29094884690858   -9.04155e-01   4.92499e-04 ADIIS/DIIS
   @DF-RHF iter   3: -2478.44133435915001   -1.50386e-01   1.72502e-04 ADIIS/DIIS
   @DF-RHF iter   4: -2478.46122668200269   -1.98923e-02   8.38667e-05 DIIS
   @DF-RHF iter   5: -2478.46682750782338   -5.60083e-03   1.99380e-05 DIIS
   @DF-RHF iter   6: -2478.46719226845198   -3.64761e-04   5.59547e-06 DIIS
   @DF-RHF iter   7: -2478.46727640364361   -8.41352e-05   2.99097e-06 DIIS
   @DF-RHF iter   8: -2478.46730223335544   -2.58297e-05   1.27839e-06 DIIS
   @DF-RHF iter   9: -2478.46731131033448   -9.07698e-06   3.88843e-07 DIIS
   @DF-RHF iter  10: -2478.46731185173803   -5.41404e-07   1.46155e-07 DIIS
   @DF-RHF iter  11: -2478.46731190722312   -5.54851e-08   6.93752e-08 DIIS
   @DF-RHF iter  12: -2478.46731192403968   -1.68166e-08   3.94478e-08 DIIS
   @DF-RHF iter  13: -2478.46731192940524   -5.36556e-09   2.37021e-08 DIIS
   @DF-RHF iter  14: -2478.46731193224605   -2.84081e-09   1.72691e-08 DIIS
   @DF-RHF iter  15: -2478.46731193431515   -2.06910e-09   1.06832e-08 DIIS
   @DF-RHF iter  16: -2478.46731193527467   -9.59517e-10   5.94563e-09 DIIS
  Energy and wave function converged.


  ==> Post-Iterations <==

    Orbital Energies [Eh]
    ---------------------

    Doubly Occupied:                                                      

       1A    -26.145795     2A    -26.144329     3A    -26.116219  
       4A    -26.116175     5A    -11.173405     6A    -11.170880  
       7A    -11.170731     8A    -11.170675     9A    -11.170622  
      10A    -11.170571    11A    -11.170487    12A    -11.170481  
      13A    -11.170441    14A    -11.170433    15A    -11.170371  
      16A    -11.170359    17A    -11.170292    18A    -11.170287  
      19A    -11.169624    20A    -11.169609    21A    -11.169512  
      22A    -11.169500    23A    -11.169370    24A    -11.169365  
      25A    -11.168320    26A    -11.168317    27A    -11.168242  
      28A    -11.168239    29A    -11.168091    30A    -11.168087  
      31A    -11.164848    32A    -11.164847    33A    -11.164103  
      34A    -11.164054    35A    -11.164008    36A    -11.163978  
      37A    -11.163649    38A    -11.163589    39A    -11.163575  
      40A    -11.163125    41A    -11.163121    42A    -11.162929  
      43A    -11.162918    44A    -11.162914    45A    -11.162587  
      46A    -11.162584    47A    -11.162139    48A    -11.162136  
      49A    -11.160800    50A    -11.160793    51A    -11.160532  
      52A    -11.160524    53A    -11.156627    54A    -11.156510  
      55A    -11.149721    56A    -11.149661    57A    -11.148211  
      58A    -11.148181    59A     -7.607459    60A     -1.506462  
      61A     -1.465267    62A     -1.420008    63A     -1.400059  
      64A     -1.147333    65A     -1.127184    66A     -1.126927  
      67A     -1.099264    68A     -1.098863    69A     -1.087689  
      70A     -1.069453    71A     -1.058952    72A     -1.044241  
      73A     -1.042682    74A     -1.025439    75A     -1.025211  
      76A     -0.991481    77A     -0.990558    78A     -0.988223  
      79A     -0.978903    80A     -0.978600    81A     -0.950005  
      82A     -0.933211    83A     -0.930242    84A     -0.930198  
      85A     -0.929053    86A     -0.926038    87A     -0.896883  
      88A     -0.895846    89A     -0.874870    90A     -0.873583  
      91A     -0.806721    92A     -0.806690    93A     -0.798327  
      94A     -0.797400    95A     -0.794413    96A     -0.792006  
      97A     -0.790612    98A     -0.773793    99A     -0.752463  
     100A     -0.729446   101A     -0.727724   102A     -0.724440  
     103A     -0.721915   104A     -0.712491   105A     -0.707659  
     106A     -0.691898   107A     -0.657146   108A     -0.655286  
     109A     -0.646716   110A     -0.646543   111A     -0.644999  
     112A     -0.638832   113A     -0.634267   114A     -0.630570  
     115A     -0.610874   116A     -0.610727   117A     -0.608327  
     118A     -0.604558   119A     -0.600384   120A     -0.600083  
     121A     -0.574038   122A     -0.565679   123A     -0.563775  
     124A     -0.563086   125A     -0.559568   126A     -0.557413  
     127A     -0.552306   128A     -0.551069   129A     -0.541296  
     130A     -0.538004   131A     -0.536988   132A     -0.533318  
     133A     -0.523519   134A     -0.512299   135A     -0.512230  
     136A     -0.511894   137A     -0.511267   138A     -0.503374  
     139A     -0.500537   140A     -0.499528   141A     -0.496645  
     142A     -0.493095   143A     -0.487651   144A     -0.483911  
     145A     -0.481009   146A     -0.476873   147A     -0.476347  
     148A     -0.476322   149A     -0.475658   150A     -0.474506  
     151A     -0.468376   152A     -0.466879   153A     -0.463958  
     154A     -0.462407   155A     -0.451535   156A     -0.451320  
     157A     -0.450719   158A     -0.448307   159A     -0.445366  
     160A     -0.440491   161A     -0.437914   162A     -0.433778  
     163A     -0.433046   164A     -0.413896   165A     -0.409078  
     166A     -0.405419   167A     -0.399066   168A     -0.394163  
     169A     -0.392162   170A     -0.391655   171A     -0.390765  
     172A     -0.371312   173A     -0.357946   174A     -0.357857  
     175A     -0.355642   176A     -0.352796   177A     -0.352401  
     178A     -0.312208   179A     -0.311675   180A     -0.289708  
     181A     -0.289078   182A     -0.284937   183A     -0.260817  
     184A     -0.241857   185A     -0.237345   186A     -0.224260  
     187A     -0.211374   188A     -0.203942   189A     -0.191429  
     190A     -0.188207   191A     -0.135585   192A     -0.115683  

    Virtual:                                                              

     193A      0.100579   194A      0.103896   195A      0.110794  
     196A      0.111098   197A      0.111883   198A      0.113283  
     199A      0.113420   200A      0.120020   201A      0.124213  
     202A      0.135228   203A      0.135282   204A      0.149912  
     205A      0.149929   206A      0.150002   207A      0.154804  
     208A      0.155956   209A      0.157077   210A      0.158768  
     211A      0.160011   212A      0.161750   213A      0.162218  
     214A      0.162550   215A      0.163199   216A      0.164815  
     217A      0.169757   218A      0.170050   219A      0.171675  
     220A      0.172994   221A      0.180790   222A      0.180950  
     223A      0.182297   224A      0.188258   225A      0.189222  
     226A      0.189346   227A      0.194192   228A      0.194311  
     229A      0.196570   230A      0.197877   231A      0.200655  
     232A      0.201953   233A      0.204313   234A      0.207145  
     235A      0.209677   236A      0.210655   237A      0.217195  
     238A      0.217276   239A      0.217331   240A      0.219654  
     241A      0.221635   242A      0.223490   243A      0.224331  
     244A      0.226179   245A      0.226367   246A      0.232435  
     247A      0.238955   248A      0.245498   249A      0.246290  
     250A      0.247843   251A      0.254657   252A      0.254705  
     253A      0.256173   254A      0.258073   255A      0.258100  
     256A      0.261929   257A      0.265175   258A      0.265492  
     259A      0.266204   260A      0.267636   261A      0.270110  
     262A      0.271504   263A      0.271590   264A      0.276002  
     265A      0.277051   266A      0.277896   267A      0.278252  
     268A      0.279334   269A      0.280235   270A      0.281229  
     271A      0.281368   272A      0.282753   273A      0.284516  
     274A      0.285191   275A      0.288675   276A      0.294290  
     277A      0.295688   278A      0.295931   279A      0.296083  
     280A      0.297162   281A      0.297747   282A      0.300321  
     283A      0.302318   284A      0.302386   285A      0.305695  
     286A      0.309913   287A      0.310093   288A      0.313107  
     289A      0.313622   290A      0.315203   291A      0.316366  
     292A      0.323100   293A      0.323360   294A      0.327130  
     295A      0.327162   296A      0.328191   297A      0.329628  
     298A      0.335297   299A      0.337701   300A      0.338764  
     301A      0.340145   302A      0.341627   303A      0.345009  
     304A      0.346703   305A      0.350570   306A      0.350803  
     307A      0.354647   308A      0.358589   309A      0.359308  
     310A      0.363951   311A      0.365586   312A      0.366984  
     313A      0.367739   314A      0.369297   315A      0.369664  
     316A      0.370229   317A      0.370356   318A      0.372835  
     319A      0.376601   320A      0.376630   321A      0.377926  
     322A      0.381510   323A      0.381882   324A      0.383534  
     325A      0.385315   326A      0.386503   327A      0.388035  
     328A      0.388085   329A      0.388975   330A      0.389114  
     331A      0.393551   332A      0.394074   333A      0.394377  
     334A      0.396108   335A      0.396338   336A      0.399396  
     337A      0.403796   338A      0.406534   339A      0.407425  
     340A      0.408610   341A      0.412728   342A      0.414328  
     343A      0.415380   344A      0.415527   345A      0.418238  
     346A      0.418886   347A      0.422749   348A      0.423118  
     349A      0.424291   350A      0.427823   351A      0.428129  
     352A      0.431385   353A      0.432171   354A      0.440144  
     355A      0.441997   356A      0.448851   357A      0.450281  
     358A      0.450484   359A      0.451078   360A      0.452580  
     361A      0.458381   362A      0.462015   363A      0.462690  
     364A      0.463604   365A      0.464592   366A      0.465287  
     367A      0.467006   368A      0.467661   369A      0.467677  
     370A      0.469203   371A      0.469461   372A      0.469665  
     373A      0.471913   374A      0.477624   375A      0.478037  
     376A      0.479726   377A      0.480030   378A      0.482342  
     379A      0.482629   380A      0.483540   381A      0.484319  
     382A      0.486592   383A      0.491094   384A      0.493757  
     385A      0.497121   386A      0.498745   387A      0.499923  
     388A      0.500781   389A      0.501879   390A      0.502259  
     391A      0.503348   392A      0.506757   393A      0.507178  
     394A      0.511916   395A      0.511928   396A      0.512726  
     397A      0.516313   398A      0.516626   399A      0.517765  
     400A      0.519737   401A      0.520013   402A      0.521420  
     403A      0.524130   404A      0.529087   405A      0.530209  
     406A      0.530245   407A      0.531271   408A      0.533163  
     409A      0.533437   410A      0.533833   411A      0.534563  
     412A      0.540654   413A      0.540931   414A      0.543747  
     415A      0.544882   416A      0.545042   417A      0.547424  
     418A      0.548576   419A      0.549059   420A      0.552639  
     421A      0.554749   422A      0.556223   423A      0.558959  
     424A      0.559319   425A      0.560655   426A      0.562446  
     427A      0.562913   428A      0.567859   429A      0.572560  
     430A      0.572680   431A      0.575735   432A      0.575944  
     433A      0.576485   434A      0.578431   435A      0.579928  
     436A      0.580308   437A      0.582152   438A      0.582918  
     439A      0.589455   440A      0.589501   441A      0.591648  
     442A      0.593913   443A      0.596596   444A      0.598119  
     445A      0.599951   446A      0.607144   447A      0.609873  
     448A      0.612082   449A      0.613901   450A      0.614073  
     451A      0.618296   452A      0.622584   453A      0.624455  
     454A      0.625090   455A      0.626128   456A      0.627938  
     457A      0.628708   458A      0.632101   459A      0.632988  
     460A      0.635133   461A      0.636274   462A      0.636638  
     463A      0.641186   464A      0.645454   465A      0.645771  
     466A      0.650180   467A      0.654201   468A      0.654803  
     469A      0.661377   470A      0.663130   471A      0.669355  
     472A      0.672673   473A      0.674234   474A      0.678997  
     475A      0.679305   476A      0.684552   477A      0.687439  
     478A      0.689117   479A      0.690620   480A      0.703925  
     481A      0.704136   482A      0.707057   483A      0.709192  
     484A      0.713049   485A      0.714655   486A      0.717241  
     487A      0.718596   488A      0.732361   489A      0.739478  
     490A      0.740124   491A      0.742598   492A      0.743460  
     493A      0.754139   494A      0.755326   495A      0.757151  
     496A      0.760708   497A      0.765324   498A      0.765905  
     499A      0.774810   500A      0.781104   501A      0.790341  
     502A      0.804318   503A      0.804709   504A      0.821618  
     505A      0.824742   506A      0.828400   507A      0.830447  
     508A      0.831684   509A      0.835007   510A      0.843084  
     511A      0.844377   512A      0.846370   513A      0.851760  
     514A      0.855492   515A      0.862934   516A      0.879313  
     517A      0.884072   518A      0.884777   519A      0.894199  
     520A      0.896834   521A      0.901330   522A      0.903924  
     523A      0.906252   524A      0.906651   525A      0.908198  
     526A      0.909319   527A      0.912921   528A      0.914761  
     529A      0.915079   530A      0.915202   531A      0.924153  
     532A      0.931682   533A      0.932132   534A      0.939738  
     535A      0.940774   536A      0.950718   537A      0.952844  
     538A      0.953009   539A      0.955729   540A      0.961412  
     541A      0.961957   542A      0.966540   543A      0.972760  
     544A      0.973360   545A      0.978929   546A      0.980982  
     547A      0.981054   548A      0.984950   549A      0.986597  
     550A      0.991614   551A      0.992933   552A      0.992989  
     553A      0.994635   554A      0.996283   555A      0.997994  
     556A      1.001885   557A      1.004268   558A      1.005621  
     559A      1.007664   560A      1.008086   561A      1.008488  
     562A      1.015651   563A      1.022626   564A      1.023175  
     565A      1.024392   566A      1.025857   567A      1.028228  
     568A      1.028786   569A      1.030213   570A      1.031720  
     571A      1.032090   572A      1.034309   573A      1.041875  
     574A      1.046271   575A      1.053308   576A      1.054371  
     577A      1.057160   578A      1.059733   579A      1.061208  
     580A      1.065378   581A      1.067774   582A      1.076748  
     583A      1.076947   584A      1.077334   585A      1.079230  
     586A      1.084737   587A      1.084906   588A      1.090968  
     589A      1.093054   590A      1.098227   591A      1.098236  
     592A      1.102471   593A      1.102970   594A      1.106011  
     595A      1.116512   596A      1.120137   597A      1.122341  
     598A      1.123715   599A      1.125917   600A      1.127202  
     601A      1.127555   602A      1.127950   603A      1.131066  
     604A      1.131791   605A      1.133414   606A      1.139139  
     607A      1.139239   608A      1.140951   609A      1.141663  
     610A      1.142264   611A      1.146853   612A      1.148352  
     613A      1.154868   614A      1.158126   615A      1.159237  
     616A      1.161421   617A      1.163271   618A      1.165764  
     619A      1.168257   620A      1.168732   621A      1.173612  
     622A      1.177008   623A      1.179054   624A      1.180565  
     625A      1.184569   626A      1.186832   627A      1.188918  
     628A      1.189256   629A      1.190470   630A      1.194233  
     631A      1.197207   632A      1.199242   633A      1.202814  
     634A      1.204335   635A      1.204768   636A      1.211238  
     637A      1.215196   638A      1.215766   639A      1.221865  
     640A      1.222854   641A      1.228179   642A      1.230321  
     643A      1.235576   644A      1.238151   645A      1.238791  
     646A      1.242455   647A      1.243819   648A      1.244883  
     649A      1.247718   650A      1.250071   651A      1.250923  
     652A      1.251791   653A      1.254997   654A      1.266157  
     655A      1.273472   656A      1.273586   657A      1.276559  
     658A      1.278909   659A      1.282725   660A      1.284232  
     661A      1.290234   662A      1.297771   663A      1.304852  
     664A      1.305035   665A      1.306409   666A      1.307200  
     667A      1.309144   668A      1.311071   669A      1.313760  
     670A      1.314010   671A      1.323051   672A      1.323903  
     673A      1.324240   674A      1.325860   675A      1.334697  
     676A      1.336652   677A      1.342275   678A      1.344966  
     679A      1.348361   680A      1.350773   681A      1.351367  
     682A      1.352889   683A      1.354029   684A      1.362466  
     685A      1.365905   686A      1.366786   687A      1.368681  
     688A      1.382676   689A      1.383625   690A      1.385002  
     691A      1.385912   692A      1.394330   693A      1.394606  
     694A      1.394972   695A      1.399256   696A      1.402252  
     697A      1.410379   698A      1.410955   699A      1.413386  
     700A      1.414374   701A      1.417958   702A      1.418584  
     703A      1.420679   704A      1.421177   705A      1.425384  
     706A      1.427891   707A      1.431920   708A      1.435304  
     709A      1.441568   710A      1.443444   711A      1.445016  
     712A      1.445316   713A      1.447105   714A      1.448425  
     715A      1.453323   716A      1.457992   717A      1.463123  
     718A      1.468133   719A      1.471884   720A      1.479832  
     721A      1.486025   722A      1.488252   723A      1.490466  
     724A      1.492147   725A      1.492372   726A      1.499238  
     727A      1.499956   728A      1.505307   729A      1.512827  
     730A      1.513493   731A      1.514855   732A      1.521193  
     733A      1.522286   734A      1.525089   735A      1.525240  
     736A      1.526567   737A      1.530598   738A      1.531230  
     739A      1.535471   740A      1.535732   741A      1.538175  
     742A      1.538427   743A      1.552690   744A      1.557263  
     745A      1.557827   746A      1.564235   747A      1.564354  
     748A      1.587343   749A      1.604004   750A      1.605892  
     751A      1.607340   752A      1.618525   753A      1.630167  
     754A      1.642729   755A      1.661347   756A      1.666267  
     757A      1.671618   758A      1.694053   759A      1.694883  
     760A      1.695112   761A      1.702753   762A      1.703820  
     763A      1.707585   764A      1.716363   765A      1.718144  
     766A      1.720890   767A      1.721891   768A      1.724534  
     769A      1.730557   770A      1.730879   771A      1.735416  
     772A      1.735769   773A      1.736395   774A      1.739752  
     775A      1.752406   776A      1.752716   777A      1.755525  
     778A      1.755767   779A      1.764521   780A      1.766174  
     781A      1.766731   782A      1.768090   783A      1.771450  
     784A      1.774296   785A      1.777405   786A      1.778502  
     787A      1.781373   788A      1.783932   789A      1.788301  
     790A      1.790148   791A      1.794968   792A      1.796035  
     793A      1.798382   794A      1.803253   795A      1.807936  
     796A      1.816380   797A      1.820378   798A      1.829599  
     799A      1.832965   800A      1.842777   801A      1.845458  
     802A      1.848226   803A      1.848604   804A      1.850973  
     805A      1.865658   806A      1.878481   807A      1.881808  
     808A      1.888377   809A      1.905501   810A      1.906918  
     811A      1.908210   812A      1.915139   813A      1.919032  
     814A      1.921138   815A      1.925452   816A      1.926609  
     817A      1.934301   818A      1.935657   819A      1.935979  
     820A      1.946422   821A      1.946951   822A      1.951532  
     823A      1.956619   824A      1.956922   825A      1.960807  
     826A      1.963645   827A      1.970404   828A      1.973405  
     829A      1.985892   830A      1.988086   831A      1.989019  
     832A      1.992059   833A      1.992741   834A      1.999439  
     835A      2.001265   836A      2.004707   837A      2.006697  
     838A      2.006771   839A      2.009524   840A      2.013408  
     841A      2.013899   842A      2.015729   843A      2.018552  
     844A      2.024902   845A      2.026458   846A      2.028588  
     847A      2.030854   848A      2.030922   849A      2.043197  
     850A      2.047303   851A      2.050266   852A      2.051417  
     853A      2.059587   854A      2.063031   855A      2.065086  
     856A      2.071181   857A      2.077349   858A      2.079467  
     859A      2.081108   860A      2.085513   861A      2.086026  
     862A      2.087422   863A      2.090711   864A      2.096623  
     865A      2.107477   866A      2.109135   867A      2.109929  
     868A      2.118262   869A      2.119778   870A      2.123829  
     871A      2.124815   872A      2.125073   873A      2.125802  
     874A      2.129446   875A      2.130126   876A      2.135357  
     877A      2.139954   878A      2.145657   879A      2.149562  
     880A      2.152964   881A      2.153331   882A      2.153872  
     883A      2.161946   884A      2.163763   885A      2.167997  
     886A      2.171681   887A      2.172610   888A      2.176966  
     889A      2.181268   890A      2.182322   891A      2.185626  
     892A      2.186860   893A      2.188006   894A      2.190333  
     895A      2.190916   896A      2.194051   897A      2.195527  
     898A      2.196329   899A      2.196692   900A      2.200040  
     901A      2.203633   902A      2.204872   903A      2.205512  
     904A      2.207384   905A      2.208985   906A      2.209474  
     907A      2.211545   908A      2.214670   909A      2.215791  
     910A      2.219951   911A      2.222825   912A      2.223716  
     913A      2.224744   914A      2.225946   915A      2.230953  
     916A      2.231158   917A      2.242284   918A      2.250316  
     919A      2.253996   920A      2.255762   921A      2.256438  
     922A      2.267072   923A      2.268018   924A      2.268194  
     925A      2.271654   926A      2.273739   927A      2.275639  
     928A      2.278722   929A      2.285761   930A      2.287357  
     931A      2.292873   932A      2.302659   933A      2.307418  
     934A      2.308859   935A      2.309727   936A      2.311546  
     937A      2.316963   938A      2.323698   939A      2.324371  
     940A      2.326661   941A      2.331309   942A      2.332217  
     943A      2.337653   944A      2.341355   945A      2.345508  
     946A      2.347739   947A      2.352525   948A      2.355651  
     949A      2.357524   950A      2.358949   951A      2.359131  
     952A      2.359296   953A      2.363606   954A      2.367958  
     955A      2.390297   956A      2.397277   957A      2.399276  
     958A      2.399882   959A      2.410654   960A      2.415400  
     961A      2.428157   962A      2.431487   963A      2.432129  
     964A      2.441234   965A      2.442987   966A      2.446534  
     967A      2.447573   968A      2.450701   969A      2.460144  
     970A      2.462997   971A      2.484904   972A      2.500396  
     973A      2.501681   974A      2.509891   975A      2.513013  
     976A      2.515026   977A      2.521180   978A      2.522820  
     979A      2.533910   980A      2.536268   981A      2.553728  
     982A      2.559451   983A      2.563369   984A      2.567316  
     985A      2.573964   986A      2.576885   987A      2.578731  
     988A      2.608106   989A      2.612240   990A      2.620294  
     991A      2.630641   992A      2.634670   993A      2.635502  
     994A      2.636235   995A      2.639945   996A      2.640234  
     997A      2.646795   998A      2.649540   999A      2.651678  
    1000A      2.659175  1001A      2.662868  1002A      2.663169  
    1003A      2.663998  1004A      2.672186  1005A      2.675804  
    1006A      2.676385  1007A      2.681743  1008A      2.683894  
    1009A      2.695801  1010A      2.714541  1011A      2.717280  
    1012A      2.720762  1013A      2.724161  1014A      2.724824  
    1015A      2.725135  1016A      2.728341  1017A      2.738479  
    1018A      2.741635  1019A      2.747298  1020A      2.758481  
    1021A      2.769533  1022A      2.773377  1023A      2.775696  
    1024A      2.781674  1025A      2.788513  1026A      2.803241  
    1027A      2.804275  1028A      2.804828  1029A      2.811125  
    1030A      2.813545  1031A      2.817426  1032A      2.818078  
    1033A      2.842617  1034A      2.848848  1035A      2.852231  
    1036A      2.864002  1037A      2.873234  1038A      2.890636  
    1039A      2.890945  1040A      2.918929  1041A      2.924955  
    1042A      2.925888  1043A      2.945878  1044A      2.947394  
    1045A      2.950279  1046A      2.952092  1047A      2.961574  
    1048A      2.972416  1049A      2.991008  1050A      3.004558  
    1051A      3.006325  1052A      3.021871  1053A      3.022482  
    1054A      3.029129  1055A      3.038424  1056A      3.050397  
    1057A      3.053099  1058A      3.089941  1059A      3.099911  
    1060A      3.129564  1061A      3.136544  1062A      3.147038  
    1063A      3.158137  1064A      3.159348  1065A      3.170079  
    1066A      3.171077  1067A      3.207062  1068A      3.207620  
    1069A      3.221175  1070A      3.225398  1071A      3.231561  
    1072A      3.232238  1073A      3.234911  1074A      3.236097  
    1075A      3.237735  1076A      3.239418  1077A      3.243809  
    1078A      3.249906  1079A      3.250367  1080A      3.254818  
    1081A      3.268675  1082A      3.277726  1083A      3.296499  
    1084A      3.311830  1085A      3.334441  1086A      3.362703  
    1087A      3.367952  1088A      3.378169  1089A      3.384718  
    1090A      3.386012  1091A      3.453732  1092A      3.484396  
    1093A      3.514014  1094A      3.525526  1095A      3.565935  
    1096A      3.581200  1097A      3.634361  1098A      3.664499  
    1099A      3.686425  1100A      3.698575  1101A      3.719769  
    1102A      3.729339  1103A      3.741124  1104A      3.758087  
    1105A      3.770530  1106A      3.876383  1107A      3.902208  
    1108A      3.937074  1109A      3.959079  1110A      3.960363  
    1111A      3.989263  1112A      4.001233  1113A      4.011704  
    1114A      4.076777  1115A      4.103498  1116A      4.112192  
    1117A      4.116888  1118A      4.154225  1119A      4.156266  
    1120A      4.177824  1121A      4.201352  1122A      4.202760  
    1123A      4.231586  1124A      4.264950  1125A      4.284817  
    1126A      4.318911  1127A      4.361775  1128A      4.375261  
    1129A      4.400977  1130A      4.422744  1131A      4.485514  
    1132A      4.620945  1133A      4.640647  1134A      4.643021  
    1135A      4.703867  1136A      4.739002  1137A      4.748064  
    1138A      4.817554  

    Final Occupation by Irrep:
              A 
    DOCC [   192 ]
    NA   [   192 ]
    NB   [   192 ]

  @DF-RHF Final Energy: -2478.46731193527467

   => Energetics <=

    Nuclear Repulsion Energy =           8124.1536640052308940
    One-Electron Energy =              -19607.2449051994590263
    Two-Electron Energy =                9004.6239292589525576
    Total Energy =                      -2478.4673119352755748

Computation Completed


Properties will be evaluated at   0.000000,   0.000000,   0.000000 [a0]

Properties computed using the SCF density matrix


 Multipole Moments:

 ------------------------------------------------------------------------------------
     Multipole            Electronic (a.u.)      Nuclear  (a.u.)        Total (a.u.)
 ------------------------------------------------------------------------------------

 L = 1.  Multiply by 2.5417464519 to convert [e a0] to [Debye]
 Dipole X            :         -0.0003810           -0.0000160           -0.0003970
 Dipole Y            :         -0.0083955           -0.0001716           -0.0085672
 Dipole Z            :         13.6716961          -15.9386926           -2.2669965
 Magnitude           :                                                    2.2670128

 ------------------------------------------------------------------------------------

*** tstop() called on d-16-7-4 at Mon Jan 22 11:08:21 2024
Module time:
	user time   =    4217.35 seconds =      70.29 minutes
	system time =     113.55 seconds =       1.89 minutes
	total time  =        434 seconds =       7.23 minutes
Total time:
	user time   =    4217.35 seconds =      70.29 minutes
	system time =     113.55 seconds =       1.89 minutes
	total time  =        434 seconds =       7.23 minutes

  //>>>>>>>>>>>>>>>>>>>>>>>>>>>>>>>>>>>//
  //            Monomer A HF           //
  //<<<<<<<<<<<<<<<<<<<<<<<<<<<<<<<<<<<//

   => Libint2 <=

    Primary   basis highest AM E, G, H:  7, 7, 4
    Auxiliary basis highest AM E, G, H:  7, 7, 5
    Onebody   basis highest AM E, G, H:  7, 7, 5
    Solid Harmonics ordering:            gaussian

*** tstart() called on d-16-7-4
*** at Mon Jan 22 11:08:21 2024

   => Loading Basis Set <=

    Name: JUN-CC-PVDZ
    Role: ORBITAL
    Keyword: BASIS
    atoms 1     entry B          line   130 file /home/gridsan/tfroembgen/.conda/envs/psi4test/share/psi4/basis/jun-cc-pvdz.gbs 
    atoms 2-5   entry F          line   266 file /home/gridsan/tfroembgen/.conda/envs/psi4test/share/psi4/basis/jun-cc-pvdz.gbs 
    atoms 6-59  entry C          line   164 file /home/gridsan/tfroembgen/.conda/envs/psi4test/share/psi4/basis/jun-cc-pvdz.gbs 
    atoms 60-77 entry H          line    36 file /home/gridsan/tfroembgen/.conda/envs/psi4test/share/psi4/basis/jun-cc-pvdz.gbs 


         ---------------------------------------------------------
                                   SCF
               by Justin Turney, Rob Parrish, Andy Simmonett
                          and Daniel G. A. Smith
                              RHF Reference
                       12 Threads,  30517 MiB Core
         ---------------------------------------------------------

  ==> Geometry <==

    Molecular point group: c1
    Full point group: C1

    Geometry (in Angstrom), charge = -1, multiplicity = 1:

       Center              X                  Y                   Z               Mass       
    ------------   -----------------  -----------------  -----------------  -----------------
         B           -0.000046449334     0.000336519434     2.299645129694    11.009305360000
         F           -1.153597449334     0.000047519434     3.115292129694    18.998403162730
         F            1.153660550666    -0.000581480566     3.115292129694    18.998403162730
         F           -0.000019449334    -1.153637480566     1.484011129694    18.998403162730
         F           -0.000019449334     1.153977519434     1.484011129694    18.998403162730
      Gh(C)           1.225311925931     0.707538180353    -0.294211243022    12.000000000000
      Gh(C)           1.225323886559    -0.707539003137    -0.306542052592    12.000000000000
      Gh(C)          -0.000006123424     1.414965805524    -0.307075676113    12.000000000000
      Gh(C)           2.456448784457     1.418327778612    -0.291324385622    12.000000000000
      Gh(C)           0.000010857787    -1.414976607201    -0.296876118789    12.000000000000
      Gh(C)          -1.225300918401     0.707545265418    -0.291959722700    12.000000000000
      Gh(C)           2.456437785828    -1.418323412447    -0.308787209449    12.000000000000
      Gh(C)          -0.000001302470     2.836800922715    -0.309479226247    12.000000000000
      Gh(C)           3.681826727978     0.709317847435    -0.308438419651    12.000000000000
      Gh(C)           2.455120079373     2.834223552923    -0.308540976612    12.000000000000
      Gh(C)           3.681821135726    -0.709333947995    -0.292365935633    12.000000000000
      Gh(C)          -1.225313568180    -0.707527624110    -0.305469291165    12.000000000000
      Gh(C)           1.226699611710     3.543469375428    -0.292181903702    12.000000000000
      Gh(C)           0.000004815365    -2.836782247802    -0.292027951167    12.000000000000
      Gh(C)          -2.456436002341     1.418316809719    -0.291924326854    12.000000000000
      Gh(C)           2.455123448287    -2.834230137155    -0.292517844001    12.000000000000
      Gh(C)          -1.226714334082     3.543468955184    -0.292078570483    12.000000000000
      Gh(C)           4.914517325709     1.427172763923    -0.301957736622    12.000000000000
      Gh(C)           3.693150221984     3.542795183979    -0.301907936986    12.000000000000
      Gh(C)          -2.456437569560    -1.418313389406    -0.308812247574    12.000000000000
      Gh(C)           1.226704872451    -3.543474350473    -0.308152034452    12.000000000000
      Gh(C)          -2.455125368000     2.834216554068    -0.308534600266    12.000000000000
      Gh(C)           4.914524411290    -1.427187018510    -0.298984993887    12.000000000000
      Gh(C)           1.221424644206     4.970133956694    -0.298846559628    12.000000000000
      Gh(C)           4.893008259828     2.825187891460    -0.300741068263    12.000000000000
      Gh(C)          -1.226696977981    -3.543471105643    -0.307884830042    12.000000000000
      Gh(C)          -3.681818946018     0.709324858166    -0.308425739171    12.000000000000
      Gh(C)           3.693147131658    -3.542801449957    -0.298867103326    12.000000000000
      Gh(C)          -1.221432221486     4.970128189296    -0.298663064255    12.000000000000
      Gh(C)           6.134771003434     0.680547838539    -0.301187962072    12.000000000000
      Gh(C)           3.656788911118     4.972953135001    -0.300999299203    12.000000000000
      Gh(C)          -2.455126877226    -2.834215201627    -0.292762201799    12.000000000000
      Gh(C)          -3.681819148553    -0.709325812035    -0.292248314054    12.000000000000
      Gh(C)           4.893012648421    -2.825200214198    -0.300129916368    12.000000000000
      Gh(C)          -0.000001042605     5.650447257466    -0.299894372962    12.000000000000
      Gh(C)           6.134775142840    -0.680554962641    -0.299922641556    12.000000000000
      Gh(C)           2.478131513363     5.653576642765    -0.299710519553    12.000000000000
      Gh(C)           1.221422435245    -4.970127163499    -0.301646056650    12.000000000000
      Gh(C)          -3.693162353457     3.542796845626    -0.301742429526    12.000000000000
      Gh(C)          -1.221428490437    -4.970118412162    -0.301758818483    12.000000000000
      Gh(C)          -4.914521777434     1.427175338429    -0.301880791614    12.000000000000
      Gh(C)           3.656787050187    -4.972955334806    -0.299548798669    12.000000000000
      Gh(C)          -2.478138499598     5.653574313962    -0.299425994545    12.000000000000
      Gh(C)          -3.693141708056    -3.542790327545    -0.298983229482    12.000000000000
      Gh(C)          -4.914512452545    -1.427181108594    -0.298950296714    12.000000000000
      Gh(C)          -0.000005978418    -5.650438395580    -0.300289877083    12.000000000000
      Gh(C)          -4.893020453593     2.825188490353    -0.300751150123    12.000000000000
      Gh(C)           2.478126023806    -5.653573652455    -0.300639399461    12.000000000000
      Gh(C)          -3.656798679750     4.972956073475    -0.300822618829    12.000000000000
      Gh(C)          -4.892999448349    -2.825191875626    -0.300283952065    12.000000000000
      Gh(C)          -2.478128467575    -5.653566278573    -0.300914587109    12.000000000000
      Gh(C)          -6.134770472823     0.680548657690    -0.301213513774    12.000000000000
      Gh(C)          -3.656788802681    -4.972944131537    -0.299763086486    12.000000000000
      Gh(C)          -6.134765012405    -0.680554024048    -0.299943117351    12.000000000000
      Gh(H)           5.835288526324     3.369275786388    -0.296381742600     1.007825032230
      Gh(H)           7.073859203255     1.228217140333    -0.300726318679     1.007825032230
      Gh(H)           4.600663294682     5.512380693887    -0.300494098451     1.007825032230
      Gh(H)           5.835283417813    -3.369306165295    -0.304584383682     1.007825032230
      Gh(H)          -0.000012120798     6.738530565570    -0.304243617970     1.007825032230
      Gh(H)           7.073861202338    -1.228227051310    -0.300431379651     1.007825032230
      Gh(H)           2.473313762307     6.740684182828    -0.300177240484     1.007825032230
      Gh(H)           4.600668521889    -5.512376237742    -0.299958795837     1.007825032230
      Gh(H)          -2.473318650030     6.740681611040    -0.299875893859     1.007825032230
      Gh(H)          -0.000010237720    -6.738528285018    -0.295760192098     1.007825032230
      Gh(H)          -5.835301883836     3.369270841730    -0.296245720452     1.007825032230
      Gh(H)           2.473307954339    -6.740685482995    -0.300069069036     1.007825032230
      Gh(H)          -4.600674810700     5.512377918037    -0.300328770127     1.007825032230
      Gh(H)          -5.835279476327    -3.369289072346    -0.304863689563     1.007825032230
      Gh(H)          -2.473300316932    -6.740679186706    -0.300518385581     1.007825032230
      Gh(H)          -7.073857736260     1.228220364274    -0.300810310160     1.007825032230
      Gh(H)          -4.600673755577    -5.512362778353    -0.300131103860     1.007825032230
      Gh(H)          -7.073856903901    -1.228220740543    -0.300526236117     1.007825032230

  Running in c1 symmetry.

  Rotational constants: A =      0.00205  B =      0.00205  C =      0.00110 [cm^-1]
  Rotational constants: A =     61.46511  B =     61.45609  C =     33.02250 [MHz]
  Nuclear repulsion =  178.879482610381302

  Charge       = -1
  Multiplicity = 1
  Electrons    = 42
  Nalpha       = 21
  Nbeta        = 21

  ==> Algorithm <==

  SCF Algorithm Type is DF.
  DIIS enabled.
  MOM disabled.
  Fractional occupation disabled.
  Guess Type is SAD.
  Energy threshold   = 1.00e-08
  Density threshold  = 1.00e-08
  Integral threshold = 1.00e-12

  ==> Primary Basis <==

  Basis Set: JUN-CC-PVDZ
    Blend: JUN-CC-PVDZ
    Number of shells: 526
    Number of basis functions: 1152
    Number of Cartesian functions: 1211
    Spherical Harmonics?: true
    Max angular momentum: 2

   => Loading Basis Set <=

    Name: (JUN-CC-PVDZ AUX)
    Role: JKFIT
    Keyword: DF_BASIS_SCF
    atoms 1     entry B          line    90 file /home/gridsan/tfroembgen/.conda/envs/psi4test/share/psi4/basis/jun-cc-pvdz-jkfit.gbs 
    atoms 2-5   entry F          line   314 file /home/gridsan/tfroembgen/.conda/envs/psi4test/share/psi4/basis/jun-cc-pvdz-jkfit.gbs 
    atoms 6-59  entry C          line   146 file /home/gridsan/tfroembgen/.conda/envs/psi4test/share/psi4/basis/jun-cc-pvdz-jkfit.gbs 
    atoms 60-77 entry H          line    70 file /home/gridsan/tfroembgen/.conda/envs/psi4test/share/psi4/basis/jun-cc-pvdz-jkfit.gbs 

  ==> Integral Setup <==

  ==> DiskDFJK: Density-Fitted J/K Matrices <==

    J tasked:                  Yes
    K tasked:                  Yes
    wK tasked:                  No
    OpenMP threads:             12
    Integrals threads:          12
    Memory [MiB]:            22888
    Algorithm:                Core
    Integral Cache:           LOAD
    Schwarz Cutoff:          1E-12
    Fitting Condition:       1E-10

   => Auxiliary Basis Set <=

  Basis Set: (JUN-CC-PVDZ AUX)
    Blend: JUN-CC-PVDZ-JKFIT
    Number of shells: 1755
    Number of basis functions: 5075
    Number of Cartesian functions: 5819
    Spherical Harmonics?: true
    Max angular momentum: 3

  Minimum eigenvalue in the overlap matrix is 3.2698022890E-10.
  Reciprocal condition number of the overlap matrix is 1.3234494704E-11.
    Using canonical orthogonalization.
  Overall, 14 of 1152 possible MOs eliminated.


  ==> Pre-Iterations <==

  SCF Guess: Superposition of Atomic Densities via on-the-fly atomic UHF (no occupation information).

   -------------------------
    Irrep   Nso     Nmo    
   -------------------------
     A       1152    1138 
   -------------------------
    Total    1152    1138
   -------------------------

  ==> Iterations <==

                           Total Energy        Delta E     RMS |[F,P]|

   @DF-RHF iter SAD:  -421.23047193639371   -4.21230e+02   0.00000e+00 
   @DF-RHF iter   1:  -422.65522785801852   -1.42476e+00   5.31126e-04 ADIIS/DIIS
   @DF-RHF iter   2:  -422.73816534746584   -8.29375e-02   3.24275e-04 ADIIS/DIIS
   @DF-RHF iter   3:  -422.77641478746585   -3.82494e-02   1.75999e-05 DIIS
   @DF-RHF iter   4:  -422.77677796892084   -3.63181e-04   2.86228e-06 DIIS
   @DF-RHF iter   5:  -422.77678690575073   -8.93683e-06   7.71442e-07 DIIS
   @DF-RHF iter   6:  -422.77678756966986   -6.63919e-07   1.80759e-07 DIIS
   @DF-RHF iter   7:  -422.77678759675666   -2.70868e-08   6.56309e-08 DIIS
   @DF-RHF iter   8:  -422.77678759873470   -1.97804e-09   8.11726e-09 DIIS
  Energy and wave function converged.


  ==> Post-Iterations <==

    Orbital Energies [Eh]
    ---------------------

    Doubly Occupied:                                                      

       1A    -26.067737     2A    -26.067565     3A    -26.066522  
       4A    -26.066486     5A     -7.536951     6A     -1.409691  
       7A     -1.350419     8A     -1.350170     9A     -1.349895  
      10A     -0.601015    11A     -0.527362    12A     -0.527273  
      13A     -0.527171    14A     -0.446172    15A     -0.446087  
      16A     -0.407807    17A     -0.407539    18A     -0.407521  
      19A     -0.384089    20A     -0.384031    21A     -0.383898  

    Virtual:                                                              

      22A      0.094402    23A      0.095215    24A      0.095473  
      25A      0.101372    26A      0.101380    27A      0.112323  
      28A      0.113019    29A      0.128282    30A      0.128312  
      31A      0.131850    32A      0.140004    33A      0.140801  
      34A      0.146067    35A      0.146076    36A      0.148474  
      37A      0.151418    38A      0.151748    39A      0.154666  
      40A      0.154693    41A      0.164288    42A      0.164316  
      43A      0.165738    44A      0.167226    45A      0.168758  
      46A      0.173977    47A      0.174995    48A      0.180784  
      49A      0.181824    50A      0.183730    51A      0.185256  
      52A      0.185345    53A      0.192097    54A      0.192110  
      55A      0.192980    56A      0.193155    57A      0.198266  
      58A      0.199000    59A      0.203163    60A      0.205302  
      61A      0.205449    62A      0.207538    63A      0.207599  
      64A      0.210822    65A      0.211068    66A      0.216025  
      67A      0.216306    68A      0.216439    69A      0.220495  
      70A      0.220969    71A      0.222706    72A      0.225799  
      73A      0.225869    74A      0.227695    75A      0.232390  
      76A      0.237011    77A      0.237450    78A      0.237669  
      79A      0.242038    80A      0.242297    81A      0.243688  
      82A      0.243845    83A      0.244891    84A      0.248197  
      85A      0.248485    86A      0.248808    87A      0.254830  
      88A      0.256759    89A      0.260684    90A      0.262905  
      91A      0.263129    92A      0.264012    93A      0.267550  
      94A      0.272290    95A      0.272327    96A      0.273643  
      97A      0.278459    98A      0.282662    99A      0.282717  
     100A      0.284102   101A      0.284833   102A      0.285617  
     103A      0.286062   104A      0.287476   105A      0.287603  
     106A      0.291249   107A      0.291414   108A      0.293738  
     109A      0.297064   110A      0.302176   111A      0.303822  
     112A      0.303896   113A      0.307576   114A      0.309161  
     115A      0.313619   116A      0.316031   117A      0.316154  
     118A      0.316796   119A      0.319889   120A      0.319947  
     121A      0.323023   122A      0.324353   123A      0.329600  
     124A      0.329799   125A      0.331847   126A      0.332008  
     127A      0.332965   128A      0.334374   129A      0.336357  
     130A      0.344592   131A      0.345306   132A      0.345705  
     133A      0.346309   134A      0.349312   135A      0.351092  
     136A      0.351892   137A      0.353057   138A      0.356364  
     139A      0.358000   140A      0.358298   141A      0.360015  
     142A      0.361318   143A      0.361558   144A      0.364272  
     145A      0.364917   146A      0.368135   147A      0.371618  
     148A      0.378995   149A      0.387592   150A      0.389872  
     151A      0.390090   152A      0.391197   153A      0.392549  
     154A      0.394315   155A      0.396810   156A      0.398570  
     157A      0.400698   158A      0.406384   159A      0.406491  
     160A      0.407000   161A      0.412633   162A      0.413894  
     163A      0.416081   164A      0.416336   165A      0.418360  
     166A      0.418394   167A      0.422203   168A      0.427308  
     169A      0.435308   170A      0.435664   171A      0.436531  
     172A      0.437579   173A      0.440687   174A      0.442043  
     175A      0.445578   176A      0.446042   177A      0.446981  
     178A      0.448110   179A      0.450268   180A      0.451895  
     181A      0.452052   182A      0.452194   183A      0.453566  
     184A      0.459330   185A      0.459559   186A      0.462058  
     187A      0.462504   188A      0.466067   189A      0.467602  
     190A      0.469360   191A      0.470322   192A      0.473306  
     193A      0.478520   194A      0.481058   195A      0.481144  
     196A      0.483501   197A      0.488523   198A      0.489445  
     199A      0.490536   200A      0.494927   201A      0.496219  
     202A      0.497773   203A      0.501063   204A      0.501702  
     205A      0.506771   206A      0.508311   207A      0.512136  
     208A      0.515567   209A      0.515889   210A      0.516929  
     211A      0.519466   212A      0.519666   213A      0.521870  
     214A      0.523172   215A      0.524001   216A      0.524322  
     217A      0.524660   218A      0.525703   219A      0.529003  
     220A      0.531306   221A      0.531691   222A      0.533215  
     223A      0.534034   224A      0.534211   225A      0.536516  
     226A      0.538995   227A      0.542665   228A      0.546983  
     229A      0.549424   230A      0.557396   231A      0.558886  
     232A      0.561987   233A      0.562900   234A      0.567387  
     235A      0.567688   236A      0.567924   237A      0.569133  
     238A      0.569441   239A      0.571083   240A      0.573397  
     241A      0.574818   242A      0.580069   243A      0.581490  
     244A      0.582773   245A      0.583605   246A      0.587945  
     247A      0.591977   248A      0.593053   249A      0.598599  
     250A      0.602203   251A      0.602408   252A      0.602562  
     253A      0.603795   254A      0.604706   255A      0.608814  
     256A      0.609482   257A      0.612383   258A      0.612559  
     259A      0.613320   260A      0.614104   261A      0.614442  
     262A      0.617963   263A      0.617968   264A      0.621681  
     265A      0.628787   266A      0.635984   267A      0.638952  
     268A      0.641516   269A      0.644285   270A      0.651193  
     271A      0.651762   272A      0.652057   273A      0.653351  
     274A      0.654784   275A      0.657037   276A      0.661065  
     277A      0.662181   278A      0.662364   279A      0.666075  
     280A      0.666522   281A      0.666997   282A      0.675541  
     283A      0.676158   284A      0.677260   285A      0.685124  
     286A      0.685586   287A      0.687336   288A      0.687865  
     289A      0.690010   290A      0.690642   291A      0.695409  
     292A      0.696693   293A      0.696758   294A      0.700139  
     295A      0.700197   296A      0.702914   297A      0.703871  
     298A      0.709992   299A      0.714044   300A      0.722104  
     301A      0.724700   302A      0.726679   303A      0.728454  
     304A      0.730203   305A      0.731559   306A      0.736837  
     307A      0.736908   308A      0.738237   309A      0.743892  
     310A      0.746021   311A      0.749004   312A      0.750219  
     313A      0.750768   314A      0.754307   315A      0.757589  
     316A      0.762101   317A      0.765118   318A      0.767404  
     319A      0.770046   320A      0.772030   321A      0.773395  
     322A      0.777306   323A      0.780634   324A      0.786715  
     325A      0.792129   326A      0.793406   327A      0.796379  
     328A      0.797594   329A      0.798702   330A      0.800891  
     331A      0.801521   332A      0.807823   333A      0.809828  
     334A      0.815864   335A      0.817910   336A      0.821016  
     337A      0.824615   338A      0.829148   339A      0.831332  
     340A      0.835203   341A      0.838450   342A      0.839240  
     343A      0.843145   344A      0.844115   345A      0.844469  
     346A      0.848615   347A      0.851054   348A      0.851639  
     349A      0.859825   350A      0.860601   351A      0.863140  
     352A      0.864949   353A      0.865006   354A      0.875664  
     355A      0.875943   356A      0.879613   357A      0.880793  
     358A      0.883853   359A      0.884175   360A      0.887089  
     361A      0.889039   362A      0.892182   363A      0.892620  
     364A      0.894020   365A      0.896875   366A      0.897251  
     367A      0.898170   368A      0.899327   369A      0.904423  
     370A      0.912955   371A      0.915414   372A      0.916803  
     373A      0.918226   374A      0.924299   375A      0.931764  
     376A      0.931913   377A      0.934330   378A      0.936436  
     379A      0.942186   380A      0.953129   381A      0.957068  
     382A      0.965307   383A      0.972422   384A      0.976197  
     385A      0.976623   386A      0.978443   387A      0.979640  
     388A      0.992399   389A      0.993582   390A      0.995418  
     391A      0.995767   392A      0.996767   393A      1.005567  
     394A      1.017240   395A      1.017365   396A      1.029271  
     397A      1.034851   398A      1.049562   399A      1.049868  
     400A      1.053791   401A      1.053937   402A      1.066722  
     403A      1.068086   404A      1.068479   405A      1.072774  
     406A      1.076424   407A      1.077618   408A      1.077963  
     409A      1.089481   410A      1.107534   411A      1.114437  
     412A      1.139268   413A      1.146547   414A      1.148545  
     415A      1.152184   416A      1.154850   417A      1.156023  
     418A      1.158863   419A      1.173628   420A      1.175817  
     421A      1.181001   422A      1.190192   423A      1.191027  
     424A      1.193003   425A      1.203538   426A      1.205066  
     427A      1.207591   428A      1.252900   429A      1.263256  
     430A      1.264611   431A      1.268610   432A      1.270180  
     433A      1.274745   434A      1.280578   435A      1.285738  
     436A      1.298364   437A      1.300391   438A      1.321753  
     439A      1.322116   440A      1.328016   441A      1.343688  
     442A      1.362375   443A      1.389333   444A      1.401693  
     445A      1.405997   446A      1.408214   447A      1.410049  
     448A      1.411143   449A      1.416551   450A      1.420844  
     451A      1.421980   452A      1.427296   453A      1.436746  
     454A      1.453882   455A      1.462852   456A      1.478385  
     457A      1.479464   458A      1.537922   459A      1.566066  
     460A      1.566228   461A      1.576334   462A      1.579380  
     463A      1.580488   464A      1.586680   465A      1.595519  
     466A      1.598229   467A      1.627322   468A      1.659690  
     469A      1.666266   470A      1.666727   471A      1.669891  
     472A      1.683535   473A      1.687904   474A      1.690547  
     475A      1.698263   476A      1.705795   477A      1.709814  
     478A      1.743709   479A      1.747012   480A      1.753787  
     481A      1.770359   482A      1.774197   483A      1.781159  
     484A      1.782332   485A      1.788887   486A      1.796774  
     487A      1.809693   488A      1.814013   489A      1.820377  
     490A      1.825882   491A      1.840704   492A      1.843791  
     493A      1.845073   494A      1.845589   495A      1.847562  
     496A      1.849904   497A      1.855243   498A      1.855623  
     499A      1.868356   500A      1.875862   501A      1.880714  
     502A      1.881878   503A      1.888457   504A      1.890316  
     505A      1.890417   506A      1.896622   507A      1.899328  
     508A      1.920538   509A      1.920643   510A      1.925401  
     511A      1.925598   512A      1.927008   513A      1.929573  
     514A      1.932202   515A      1.935073   516A      1.938971  
     517A      1.940665   518A      1.942725   519A      1.943250  
     520A      1.946925   521A      1.951157   522A      1.953713  
     523A      1.957245   524A      1.959149   525A      1.970068  
     526A      1.981622   527A      1.983457   528A      1.985046  
     529A      1.988765   530A      1.989465   531A      1.990538  
     532A      1.993383   533A      2.000081   534A      2.002421  
     535A      2.008630   536A      2.009969   537A      2.016139  
     538A      2.018484   539A      2.020885   540A      2.021825  
     541A      2.022885   542A      2.024076   543A      2.030215  
     544A      2.031392   545A      2.035828   546A      2.042838  
     547A      2.045884   548A      2.048719   549A      2.051040  
     550A      2.057311   551A      2.062516   552A      2.067059  
     553A      2.069558   554A      2.070141   555A      2.074991  
     556A      2.075851   557A      2.085725   558A      2.089446  
     559A      2.090292   560A      2.092264   561A      2.093654  
     562A      2.095331   563A      2.095686   564A      2.095888  
     565A      2.104149   566A      2.112204   567A      2.116248  
     568A      2.124637   569A      2.126653   570A      2.129387  
     571A      2.133997   572A      2.137142   573A      2.146881  
     574A      2.162841   575A      2.168713   576A      2.170007  
     577A      2.176026   578A      2.178944   579A      2.184538  
     580A      2.184994   581A      2.188611   582A      2.190700  
     583A      2.197311   584A      2.199251   585A      2.203759  
     586A      2.206289   587A      2.211020   588A      2.211473  
     589A      2.217804   590A      2.223415   591A      2.227170  
     592A      2.229786   593A      2.231121   594A      2.233849  
     595A      2.235644   596A      2.237388   597A      2.237620  
     598A      2.238010   599A      2.240163   600A      2.240717  
     601A      2.245023   602A      2.245843   603A      2.245942  
     604A      2.250940   605A      2.251282   606A      2.252590  
     607A      2.253495   608A      2.254829   609A      2.254954  
     610A      2.256748   611A      2.257970   612A      2.261010  
     613A      2.268048   614A      2.268422   615A      2.268707  
     616A      2.271988   617A      2.272256   618A      2.273055  
     619A      2.275619   620A      2.276252   621A      2.277287  
     622A      2.280371   623A      2.290307   624A      2.290983  
     625A      2.292057   626A      2.294393   627A      2.296140  
     628A      2.296993   629A      2.302385   630A      2.309673  
     631A      2.315704   632A      2.319553   633A      2.325716  
     634A      2.330186   635A      2.333886   636A      2.337134  
     637A      2.339745   638A      2.344854   639A      2.347649  
     640A      2.352133   641A      2.356291   642A      2.358180  
     643A      2.361482   644A      2.362489   645A      2.368600  
     646A      2.368924   647A      2.370421   648A      2.376182  
     649A      2.378100   650A      2.378796   651A      2.379494  
     652A      2.384009   653A      2.386382   654A      2.393429  
     655A      2.397316   656A      2.397769   657A      2.400100  
     658A      2.404519   659A      2.407828   660A      2.409034  
     661A      2.412256   662A      2.416109   663A      2.426984  
     664A      2.429439   665A      2.432816   666A      2.433776  
     667A      2.449568   668A      2.451873   669A      2.455994  
     670A      2.459826   671A      2.462806   672A      2.464915  
     673A      2.464940   674A      2.468180   675A      2.469455  
     676A      2.473840   677A      2.476249   678A      2.476390  
     679A      2.478232   680A      2.479878   681A      2.480245  
     682A      2.483371   683A      2.486102   684A      2.491605  
     685A      2.500392   686A      2.502195   687A      2.504736  
     688A      2.507654   689A      2.510032   690A      2.510523  
     691A      2.518874   692A      2.523787   693A      2.524808  
     694A      2.534091   695A      2.538798   696A      2.544591  
     697A      2.545251   698A      2.551117   699A      2.560449  
     700A      2.563181   701A      2.568115   702A      2.568191  
     703A      2.571955   704A      2.572158   705A      2.572835  
     706A      2.578897   707A      2.582194   708A      2.589343  
     709A      2.590743   710A      2.591183   711A      2.600720  
     712A      2.602335   713A      2.604027   714A      2.607947  
     715A      2.611690   716A      2.623546   717A      2.631841  
     718A      2.632612   719A      2.637219   720A      2.638928  
     721A      2.643084   722A      2.644471   723A      2.647190  
     724A      2.654401   725A      2.656727   726A      2.658074  
     727A      2.660591   728A      2.664696   729A      2.669963  
     730A      2.670429   731A      2.672539   732A      2.675145  
     733A      2.683917   734A      2.687756   735A      2.689474  
     736A      2.690875   737A      2.704850   738A      2.715011  
     739A      2.724352   740A      2.725008   741A      2.726037  
     742A      2.726709   743A      2.729904   744A      2.732254  
     745A      2.733901   746A      2.739732   747A      2.744487  
     748A      2.747136   749A      2.750231   750A      2.752010  
     751A      2.754063   752A      2.759068   753A      2.761876  
     754A      2.768603   755A      2.771149   756A      2.778241  
     757A      2.778634   758A      2.781364   759A      2.787260  
     760A      2.794079   761A      2.798610   762A      2.799500  
     763A      2.799838   764A      2.800715   765A      2.808334  
     766A      2.812216   767A      2.814925   768A      2.818859  
     769A      2.828395   770A      2.834412   771A      2.837603  
     772A      2.837889   773A      2.844078   774A      2.851115  
     775A      2.851717   776A      2.855767   777A      2.855913  
[...]
     736A      1.534590   737A      1.538820   738A      1.540546  
     739A      1.552470   740A      1.552985   741A      1.563960  
     742A      1.586576   743A      1.597868   744A      1.604684  
     745A      1.605394   746A      1.605534   747A      1.614936  
     748A      1.618086   749A      1.619386   750A      1.622719  
     751A      1.625316   752A      1.628650   753A      1.632712  
     754A      1.634025   755A      1.637559   756A      1.643854  
     757A      1.644965   758A      1.646308   759A      1.650157  
     760A      1.653480   761A      1.656258   762A      1.660011  
     763A      1.662565   764A      1.664256   765A      1.668639  
     766A      1.676869   767A      1.681472   768A      1.682009  
     769A      1.686183   770A      1.689656   771A      1.690209  
     772A      1.695887   773A      1.697295   774A      1.697478  
     775A      1.698909   776A      1.701559   777A      1.703137  
     778A      1.713416   779A      1.714058   780A      1.717508  
     781A      1.718958   782A      1.745795   783A      1.748655  
     784A      1.752088   785A      1.757865   786A      1.759862  
     787A      1.761164   788A      1.763312   789A      1.763515  
     790A      1.772366   791A      1.782337   792A      1.785276  
     793A      1.796457   794A      1.798011   795A      1.805056  
     796A      1.811325   797A      1.818663   798A      1.826275  
     799A      1.831122   800A      1.831675   801A      1.835506  
     802A      1.837657   803A      1.843991   804A      1.849835  
     805A      1.850269   806A      1.853878   807A      1.854216  
     808A      1.854569   809A      1.868614   810A      1.870775  
     811A      1.871266   812A      1.876892   813A      1.878412  
     814A      1.890365   815A      1.892299   816A      1.899144  
     817A      1.900455   818A      1.901953   819A      1.906169  
     820A      1.908388   821A      1.908698   822A      1.913625  
     823A      1.916274   824A      1.918689   825A      1.918855  
     826A      1.922641   827A      1.924694   828A      1.925941  
     829A      1.929381   830A      1.930361   831A      1.936458  
     832A      1.941893   833A      1.941988   834A      1.946446  
     835A      1.950408   836A      1.956908   837A      1.957493  
     838A      1.959098   839A      1.967388   840A      1.968019  
     841A      1.981726   842A      1.982124   843A      1.984848  
     844A      1.985235   845A      1.989589   846A      1.992245  
     847A      1.997567   848A      1.997684   849A      2.003054  
     850A      2.004199   851A      2.018269   852A      2.022749  
     853A      2.024422   854A      2.029183   855A      2.032206  
     856A      2.032287   857A      2.034507   858A      2.036909  
     859A      2.039421   860A      2.042890   861A      2.043007  
     862A      2.049275   863A      2.057573   864A      2.060749  
     865A      2.062085   866A      2.066037   867A      2.067745  
     868A      2.071093   869A      2.074503   870A      2.080837  
     871A      2.081773   872A      2.088959   873A      2.090779  
     874A      2.093035   875A      2.096550   876A      2.099218  
     877A      2.099403   878A      2.100031   879A      2.101535  
     880A      2.101662   881A      2.104020   882A      2.109486  
     883A      2.110310   884A      2.112213   885A      2.114229  
     886A      2.114460   887A      2.119642   888A      2.120499  
     889A      2.121121   890A      2.124299   891A      2.125201  
     892A      2.126554   893A      2.126589   894A      2.132317  
     895A      2.134128   896A      2.135007   897A      2.136207  
     898A      2.139194   899A      2.141230   900A      2.143905  
     901A      2.145920   902A      2.161006   903A      2.167183  
     904A      2.167639   905A      2.173915   906A      2.177415  
     907A      2.178428   908A      2.182125   909A      2.182444  
     910A      2.185852   911A      2.194838   912A      2.196250  
     913A      2.201722   914A      2.202391   915A      2.205225  
     916A      2.212205   917A      2.212478   918A      2.219997  
     919A      2.227430   920A      2.237320   921A      2.242191  
     922A      2.242720   923A      2.245200   924A      2.245654  
     925A      2.246753   926A      2.248916   927A      2.251654  
     928A      2.256061   929A      2.256604   930A      2.263356  
     931A      2.269478   932A      2.271598   933A      2.272505  
     934A      2.273236   935A      2.277096   936A      2.281669  
     937A      2.301463   938A      2.308584   939A      2.308858  
     940A      2.319859   941A      2.321055   942A      2.327886  
     943A      2.338675   944A      2.342077   945A      2.344780  
     946A      2.346401   947A      2.347736   948A      2.354502  
     949A      2.355594   950A      2.356948   951A      2.373887  
     952A      2.375800   953A      2.387114   954A      2.387733  
     955A      2.399610   956A      2.401742   957A      2.416766  
     958A      2.424722   959A      2.425587   960A      2.429555  
     961A      2.436749   962A      2.449004   963A      2.459120  
     964A      2.473398   965A      2.479741   966A      2.489394  
     967A      2.490851   968A      2.494436   969A      2.513389  
     970A      2.524599   971A      2.531917   972A      2.547548  
     973A      2.548968   974A      2.552524   975A      2.553994  
     976A      2.555485   977A      2.556083   978A      2.557835  
     979A      2.560893   980A      2.561888   981A      2.572349  
     982A      2.573564   983A      2.577705   984A      2.578241  
     985A      2.582968   986A      2.588821   987A      2.592599  
     988A      2.594635   989A      2.601000   990A      2.611100  
     991A      2.621682   992A      2.627971   993A      2.636411  
     994A      2.636668   995A      2.642677   996A      2.643006  
     997A      2.644048   998A      2.655331   999A      2.657690  
    1000A      2.671699  1001A      2.682540  1002A      2.685041  
    1003A      2.687893  1004A      2.690203  1005A      2.698927  
    1006A      2.713432  1007A      2.713747  1008A      2.716331  
    1009A      2.717493  1010A      2.719893  1011A      2.722122  
    1012A      2.734733  1013A      2.749187  1014A      2.755605  
    1015A      2.761165  1016A      2.776121  1017A      2.781992  
    1018A      2.798289  1019A      2.803659  1020A      2.828509  
    1021A      2.832713  1022A      2.834688  1023A      2.855967  
    1024A      2.856054  1025A      2.858658  1026A      2.862514  
    1027A      2.865595  1028A      2.871092  1029A      2.886855  
    1030A      2.907431  1031A      2.919372  1032A      2.920519  
    1033A      2.935874  1034A      2.936777  1035A      2.939832  
    1036A      2.961505  1037A      2.963629  1038A      2.972487  
    1039A      3.011167  1040A      3.012210  1041A      3.018828  
    1042A      3.052951  1043A      3.064393  1044A      3.064910  
    1045A      3.075162  1046A      3.080747  1047A      3.098367  
    1048A      3.111931  1049A      3.120268  1050A      3.124888  
    1051A      3.133895  1052A      3.143798  1053A      3.144700  
    1054A      3.148758  1055A      3.149401  1056A      3.149742  
    1057A      3.150906  1058A      3.163986  1059A      3.165371  
    1060A      3.168222  1061A      3.168518  1062A      3.191482  
    1063A      3.192208  1064A      3.211880  1065A      3.212850  
    1066A      3.234684  1067A      3.251052  1068A      3.279663  
    1069A      3.284528  1070A      3.292308  1071A      3.296658  
    1072A      3.305026  1073A      3.421085  1074A      3.429540  
    1075A      3.487408  1076A      3.493005  1077A      3.552100  
    1078A      3.590895  1079A      3.610041  1080A      3.630502  
    1081A      3.635922  1082A      3.648964  1083A      3.669867  
    1084A      3.683692  1085A      3.789260  1086A      3.814318  
    1087A      3.851685  1088A      3.871624  1089A      3.872633  
    1090A      3.908808  1091A      3.914840  1092A      3.948980  
    1093A      3.984813  1094A      4.012661  1095A      4.068846  
    1096A      4.185876  1097A      4.265774  1098A      4.373796  
    1099A      4.581777  1100A      4.764155  1101A      4.797359  
    1102A      5.764766  1103A      5.774430  1104A      5.785899  
    1105A      5.810133  1106A      5.814152  1107A      5.818503  
    1108A      5.865819  1109A      5.891459  1110A      5.896007  
    1111A      5.948731  1112A      5.971002  1113A      6.055576  
    1114A      6.085142  1115A      6.168304  1116A      6.233069  
    1117A      6.346520  1118A      6.352139  1119A      6.407837  
    1120A      6.411895  1121A      6.423718  1122A      7.346676  
    1123A      7.364672  1124A      7.410768  1125A      7.420062  
    1126A      7.619482  1127A      7.636735  1128A      7.678954  
    1129A      7.710989  1130A      7.750544  1131A      7.855551  
    1132A      8.080494  1133A      8.122037  1134A     12.977375  
    1135A     42.947870  1136A     42.976487  1137A     43.006060  
    1138A     43.007739  

    Final Occupation by Irrep:
              A 
    DOCC [   171 ]
    NA   [   171 ]
    NB   [   171 ]

  @DF-RHF Final Energy: -2055.89477288344006

   => Energetics <=

    Nuclear Repulsion Energy =           6452.5568002797781446
    One-Electron Energy =              -15636.5037776873959956
    Two-Electron Energy =                7128.0522045241768865
    Total Energy =                      -2055.8947728834400550

Computation Completed


Properties will be evaluated at   0.000000,   0.000000,   0.000000 [a0]

Properties computed using the SCF density matrix


 Multipole Moments:

 ------------------------------------------------------------------------------------
     Multipole            Electronic (a.u.)      Nuclear  (a.u.)        Total (a.u.)
 ------------------------------------------------------------------------------------

 L = 1.  Multiply by 2.5417464519 to convert [e a0] to [Debye]
 Dipole X            :          0.0000446            0.0000112            0.0000558
 Dipole Y            :          0.0001502           -0.0000531            0.0000971
 Dipole Z            :        194.1168266         -194.1128136            0.0040131
 Magnitude           :                                                    0.0040146

 ------------------------------------------------------------------------------------

*** tstop() called on d-16-7-4 at Mon Jan 22 11:15:07 2024
Module time:
	user time   =    2527.35 seconds =      42.12 minutes
	system time =      45.89 seconds =       0.76 minutes
	total time  =        264 seconds =       4.40 minutes
Total time:
	user time   =    8103.86 seconds =     135.06 minutes
	system time =     188.07 seconds =       3.13 minutes
	total time  =        840 seconds =      14.00 minutes
  Constructing Basis Sets for SAPT...

   => Loading Basis Set <=

    Name: (JUN-CC-PVDZ AUX)
    Role: RIFIT
    Keyword: DF_BASIS_SAPT
    atoms 1     entry B          line    56 file /home/gridsan/tfroembgen/.conda/envs/psi4test/share/psi4/basis/jun-cc-pvdz-ri.gbs 
    atoms 2-5   entry F          line   232 file /home/gridsan/tfroembgen/.conda/envs/psi4test/share/psi4/basis/jun-cc-pvdz-ri.gbs 
    atoms 6-59  entry C          line   100 file /home/gridsan/tfroembgen/.conda/envs/psi4test/share/psi4/basis/jun-cc-pvdz-ri.gbs 
    atoms 60-77 entry H          line    30 file /home/gridsan/tfroembgen/.conda/envs/psi4test/share/psi4/basis/jun-cc-pvdz-ri.gbs 

   => Loading Basis Set <=

    Name: (JUN-CC-PVDZ AUX)
    Role: JKFIT
    Keyword: DF_BASIS_ELST
    atoms 1     entry B          line    90 file /home/gridsan/tfroembgen/.conda/envs/psi4test/share/psi4/basis/jun-cc-pvdz-jkfit.gbs 
    atoms 2-5   entry F          line   314 file /home/gridsan/tfroembgen/.conda/envs/psi4test/share/psi4/basis/jun-cc-pvdz-jkfit.gbs 
    atoms 6-59  entry C          line   146 file /home/gridsan/tfroembgen/.conda/envs/psi4test/share/psi4/basis/jun-cc-pvdz-jkfit.gbs 
    atoms 60-77 entry H          line    70 file /home/gridsan/tfroembgen/.conda/envs/psi4test/share/psi4/basis/jun-cc-pvdz-jkfit.gbs 


  //>>>>>>>>>>>>>>>>>>>>>>>>>>>>>>>>>>>//
  //               SSAPT0              //
  //<<<<<<<<<<<<<<<<<<<<<<<<<<<<<<<<<<<//


*** tstart() called on d-16-7-4
*** at Mon Jan 22 11:15:08 2024

        SAPT0  
    Ed Hohenstein
     6 June 2009

      Orbital Information
  --------------------------
    NSO        =      1152
    NMO        =      1138
    NRI        =      4087
    NRI (Elst) =      5075
    NOCC A     =        21
    NOCC B     =       171
    FOCC A     =         5
    FOCC B     =        54
    NVIR A     =      1117
    NVIR B     =       967

    Elst10,r            =    -0.192421467720 [Eh]
    Exch10              =     0.464387172005 [Eh]
    Exch10 (S^2)        =     0.435528607385 [Eh]

    Iter     Energy [mEh]          dE [mEh]         Residual      Time [s]
       1     -77.41021978      77.410219780      68.791521074           343
       2     -93.02281163      15.612591846      31.438661074           422
       3     -99.08042529       6.057613664       5.306378232           453
       4     -98.84173490      -0.238690387       1.628011462           468
       5     -98.72471280      -0.117022099       0.362243035           483
       6     -98.72490903       0.000196231       0.107574129           499
       7     -98.73232129       0.007412256       0.019519117           515
       8     -98.73160083      -0.000720465       0.004481658           531
       9     -98.73156893      -0.000031899       0.000684530           546
      10     -98.73159352       0.000024597       0.000123703           561
      11     -98.73159004      -0.000003487       0.000028996           576
      12     -98.73159004      -0.000000001       0.000010429           590
      13     -98.73159022       0.000000186       0.000002176           606
      14     -98.73159023       0.000000006       0.000000366           620

    CHF Iterations converged


    Iter     Energy [mEh]          dE [mEh]         Residual      Time [s]
       1    -191.29567827     191.295678269     127.605357100            88
       2    -188.58136940      -2.714308864      38.667938719           141
       3    -209.47148545      20.890116042      11.947469618           158
       4    -210.89269424       1.421208797       3.900466020           172
       5    -210.11198501      -0.780709231       1.312382375           187
       6    -210.02582061      -0.086164405       0.621957271           202
       7    -210.10961316       0.083792557       0.316956553           218
       8    -210.12938078       0.019767620       0.149621507           233
       9    -210.11513943      -0.014241352       0.085643804           253
      10    -210.10920865      -0.005930780       0.044700866           273
      11    -210.11395265       0.004744001       0.023816743           291
      12    -210.11451234       0.000559691       0.014151550           308
      13    -210.11324619      -0.001266153       0.008170084           326
      14    -210.11330596       0.000059769       0.004540082           346
      15    -210.11358375       0.000277790       0.001794101           365
      16    -210.11356152      -0.000022236       0.000852354           385
      17    -210.11352331      -0.000038201       0.000335456           405
      18    -210.11352281      -0.000000503       0.000128167           425
      19    -210.11352836       0.000005552       0.000050812           444
      20    -210.11352859       0.000000222       0.000025829           462
      21    -210.11352757      -0.000001015       0.000009927           481
      22    -210.11352753      -0.000000037       0.000004268           499
      23    -210.11352766       0.000000126       0.000001999           517
      24    -210.11352768       0.000000018       0.000000831           536

    CHF Iterations converged

    Ind20,r (A<-B)      =    -0.098731590227 [Eh]
    Ind20,r (B<-A)      =    -0.210113527677 [Eh]
    Ind20,r             =    -0.308845117905 [Eh]
    Exch-Ind20,r (A<-B) =     0.075061501187 [Eh]
    Exch-Ind20,r (B<-A) =     0.163663343935 [Eh]
    Exch-Ind20,r        =     0.238724845121 [Eh]
    Disp20              =    -0.085073418736 [Eh]
    Disp20 (SS)         =    -0.042536709368 [Eh]
    Disp20 (OS)         =    -0.042536709368 [Eh]
    Exch-Disp20         =     0.030000948342 [Eh]
    Exch-Disp20 (SS)    =     0.014756635406 [Eh]
    Exch-Disp20 (OS)    =     0.015244312936 [Eh]

    SAPT Results 
  --------------------------------------------------------------------------------------------------------
    Electrostatics               -192.42146772 [mEh]    -120.74629395 [kcal/mol]    -505.20249390 [kJ/mol]
      Elst10,r                   -192.42146772 [mEh]    -120.74629395 [kcal/mol]    -505.20249390 [kJ/mol]

    Exchange                      464.38717201 [mEh]     291.40734993 [kcal/mol]    1219.24835212 [kJ/mol]
      Exch10                      464.38717201 [mEh]     291.40734993 [kcal/mol]    1219.24835212 [kJ/mol]
      Exch10(S^2)                 435.52860738 [mEh]     273.29832724 [kcal/mol]    1143.48020115 [kJ/mol]

    Induction                     -67.71715739 [mEh]     -42.49315780 [kcal/mol]    -177.79137222 [kJ/mol]
      Ind20,r                    -308.84511790 [mEh]    -193.80323742 [kcal/mol]    -810.87274534 [kJ/mol]
      Exch-Ind20,r                238.72484512 [mEh]     149.80210194 [kcal/mol]     626.77199452 [kJ/mol]
      delta HF,r (2)                2.40311540 [mEh]       1.50797768 [kcal/mol]       6.30937861 [kJ/mol]

    Dispersion                    -55.07247039 [mEh]     -34.55849692 [kcal/mol]    -144.59275110 [kJ/mol]
      Disp20                      -85.07341874 [mEh]     -53.38437622 [kcal/mol]    -223.36023012 [kJ/mol]
      Exch-Disp20                  30.00094834 [mEh]      18.82587931 [kcal/mol]      78.76747902 [kJ/mol]
      Disp20 (SS)                 -42.53670937 [mEh]     -26.69218811 [kcal/mol]    -111.68011506 [kJ/mol]
      Disp20 (OS)                 -42.53670937 [mEh]     -26.69218811 [kcal/mol]    -111.68011506 [kJ/mol]
      Exch-Disp20 (SS)             14.75663541 [mEh]       9.25992852 [kcal/mol]      38.74354092 [kJ/mol]
      Exch-Disp20 (OS)             15.24431294 [mEh]       9.56595079 [kcal/mol]      40.02393810 [kJ/mol]

  Total HF                        204.24854690 [mEh]     128.16789819 [kcal/mol]     536.25448601 [kJ/mol]
  Total SAPT0                     149.17607651 [mEh]      93.60940127 [kcal/mol]     391.66173491 [kJ/mol]

  Special recipe for scaled SAPT0 (see Manual):
    Electrostatics sSAPT0        -192.42146772 [mEh]    -120.74629395 [kcal/mol]    -505.20249390 [kJ/mol]
    Exchange sSAPT0               464.38717201 [mEh]     291.40734993 [kcal/mol]    1219.24835212 [kJ/mol]
    Induction sSAPT0              -17.04888123 [mEh]     -10.69833449 [kcal/mol]     -44.76183150 [kJ/mol]
    Dispersion sSAPT0             -48.70490386 [mEh]     -30.56278859 [kcal/mol]    -127.87470746 [kJ/mol]
  Total sSAPT0                    206.21191920 [mEh]     129.39993290 [kcal/mol]     541.40931927 [kJ/mol]
  --------------------------------------------------------------------------------------------------------

*** tstop() called on d-16-7-4 at Mon Jan 22 12:20:01 2024
Module time:
	user time   =    7567.31 seconds =     126.12 minutes
	system time =     867.59 seconds =      14.46 minutes
	total time  =       3893 seconds =      64.88 minutes
Total time:
	user time   =   15672.08 seconds =     261.20 minutes
	system time =    1055.69 seconds =      17.59 minutes
	total time  =       4734 seconds =      78.90 minutes

    Psi4 stopped on: Monday, 22 January 2024 12:20PM
    Psi4 wall time for execution: 1:18:55.17

*** Psi4 exiting successfully. Buy a developer a beer!
