
    -----------------------------------------------------------------------
          Psi4: An Open-Source Ab Initio Electronic Structure Package
                               Psi4 1.9 release

                         Git: Rev {} zzzzzzz 


    D. G. A. Smith, L. A. Burns, A. C. Simmonett, R. M. Parrish,
    M. C. Schieber, R. Galvelis, P. Kraus, H. Kruse, R. Di Remigio,
    A. Alenaizan, A. M. James, S. Lehtola, J. P. Misiewicz, M. Scheurer,
    R. A. Shaw, J. B. Schriber, Y. Xie, Z. L. Glick, D. A. Sirianni,
    J. S. O'Brien, J. M. Waldrop, A. Kumar, E. G. Hohenstein,
    B. P. Pritchard, B. R. Brooks, H. F. Schaefer III, A. Yu. Sokolov,
    K. Patkowski, A. E. DePrince III, U. Bozkaya, R. A. King,
    F. A. Evangelista, J. M. Turney, T. D. Crawford, C. D. Sherrill,
    J. Chem. Phys. 152(18) 184108 (2020). https://doi.org/10.1063/5.0006002

                            Additional Code Authors
    E. T. Seidl, C. L. Janssen, E. F. Valeev, M. L. Leininger,
    J. F. Gonthier, R. M. Richard, H. R. McAlexander, M. Saitow, X. Wang,
    P. Verma, M. H. Lechner, A. Jiang, S. Behnle, A. G. Heide,
    M. F. Herbst, and D. L. Poole

             Previous Authors, Complete List of Code Contributors,
                       and Citations for Specific Modules
    https://github.com/psi4/psi4/blob/master/codemeta.json
    https://github.com/psi4/psi4/graphs/contributors
    http://psicode.org/psi4manual/master/introduction.html#citing-psifour

    -----------------------------------------------------------------------


    Psi4 started on: Saturday, 20 January 2024 10:14PM

    Process ID: 434333
    Host:       d-6-7-1
    PSIDATADIR: /home/gridsan/tfroembgen/.conda/envs/psi4test/share/psi4
    Memory:     500.0 MiB
    Threads:    12
    
  ==> Input File <==

--------------------------------------------------------------------------
memory 32 GB # how much memory is available ! Depends on the nodes/cores !

molecule dimer {
# monomer A
-1 1    # Charge and multiplicity
B -1.977592e-04  2.742729e-04 -4.599966
F  1.123153e-16  1.430594e-17 -3.187181
F  1.147860e+00  6.757812e-01 -5.071107
F  1.191806e-02 -1.332011e+00 -5.070905
F -1.159666e+00  6.560735e-01 -5.070826
--
# monomer B
0 1     # Charge and multiplicity
C   1.22531237526482      0.70753866091955      0.00613762728373
C   1.22532433589282     -0.70753852257020     -0.00619318228664
C   -0.00000567409046      1.41496628609039     -0.00672680580738
C   2.45644923379077      1.41832825917820      0.00902448468363
C   0.00001130712078     -1.41497612663474      0.00347275151708
C   -1.22530046906674      0.70754574598412      0.00838914760619
C   2.45643823516184     -1.41832293188077     -0.00843833914343
C   -0.00000085313587      2.83680140328112     -0.00913035594137
C   3.68182717731192      0.70931832800114     -0.00808954934571
C   2.45512052870677      2.83422403348893     -0.00819210630633
C   3.68182158506039     -0.70933346742900      0.00798293467272
C   -1.22531311884624     -0.70752714354401     -0.00512042085974
C   1.22670006104402      3.54346985599427      0.00816696660346
C   0.00000526469929     -2.83678176723568      0.00832091913869
C   -2.45643555300670      1.41831729028492      0.00842454345199
C   2.45512389762097     -2.83422965658853      0.00783102630520
C   -1.22671388474763      3.54346943575023      0.00827029982280
C   4.91451777504333      1.42717324448953     -0.00160886631602
C   3.69315067131765      3.54279566454522     -0.00155906667985
C   -2.45643712022637     -1.41831290883911     -0.00846337726810
C   1.22670532178455     -3.54347386990643     -0.00780316414624
C   -2.45512491866593      2.83421703463423     -0.00818572995999
C   4.91452486062398     -1.42718653794377      0.00136387641845
C   1.22142509354026      4.97013443726031      0.00150231067809
C   4.89300870916237      2.82518837202648     -0.00039219795739
C   -1.22669652864725     -3.54347062507680     -0.00753595973677
C   -3.68181849668397      0.70932533873199     -0.00807686886569
C   3.69314758099218     -3.54280096939050      0.00148176697923
C   -1.22143177215231      4.97012866986289      0.00168580605083
C   6.13477145276790      0.68054831910577     -0.00083909176631
C   3.65678936045204      4.97295361556775     -0.00065042889723
C   -2.45512642789169     -2.83421472106065      0.00758666850712
C   -3.68181869921921     -0.70932533146830      0.00810055625144
C   4.89301309775526     -2.82519973363176      0.00021895393805
C   -0.00000059327114      5.65044773803267      0.00045449734393
C   6.13477559217374     -0.68055448207492      0.00042622874941
C   2.47813196269732      5.65357712333155      0.00063835075260
C   1.22142288457925     -4.97012668293268     -0.00129718634452
C   -3.69316190412301      3.54279732619245     -0.00139355922051
C   -1.22142804110313     -4.97011793159564     -0.00140994817719
C   -4.91452132810043      1.42717581899491     -0.00153192130862
C   3.65678749952045     -4.97295485423912      0.00080007163680
C   -2.47813805026426      5.65357479452875      0.00092287576113
C   -3.69314125872231     -3.54278984697859      0.00136564082345
C   -4.91451200321153     -1.42718062802730      0.00139857359209
C   -0.00000552908399     -5.65043791501335      0.00005899322272
C   -4.89302000425900      2.82518897091939     -0.00040227981744
C   2.47812647313991     -5.65357317188818     -0.00029052915548
C   -3.65679823041642      4.97295655404175     -0.00047374852278
C   -4.89299899901461     -2.82519139505969      0.00006491824035
C   -2.47812801824129     -5.65356579800621     -0.00056571680280
C   -6.13477002348955      0.68054913825639     -0.00086464346868
C   -3.65678835334731     -4.97294365097028      0.00058578382008
C   -6.13476456307132     -0.68055354348201      0.00040575295444
H   5.83528897565761      3.36927626695423      0.00396712770529
H   7.07385965258860      1.22821762089947     -0.00037744837300
H   4.60066374401555      5.51238117445323     -0.00014522814529
H   5.83528386714679     -3.36930568472863     -0.00423551337640
H   -0.00001167146422      6.73853104613662     -0.00389474766392
H   7.07386165167227     -1.22822657074368     -0.00008250934481
H   2.47331421164041      6.74068466339473      0.00017162982210
H   4.60066897122302     -5.51237575717576      0.00039007446835
H   -2.47331820069565      6.74068209160650      0.00047297644710
H   -0.00000978838621     -6.73852780445195      0.00458867820736
H   -5.83530143450167      3.36927132229595      0.00410314985360
H   2.47330840367253     -6.74068500242887      0.00027980126949
H   -4.60067436136587      5.51237839860371      0.00002010017831
H   -5.83527902699321     -3.36928859177951     -0.00451481925734
H   -2.47329986759855     -6.74067870613986     -0.00016951527498
H   -7.07385728692578      1.22822084484047     -0.00046143985387
H   -4.60067330624313     -5.51236229778631      0.00021776644566
H   -7.07385645456741     -1.22822025997701     -0.00017736581114

    units angstrom      # Angstroms are the default
    no_reorient         # Geometry fixed, default
    symmetry c1         # C1 symmetry, default
}

set {
    scf_type DF         # Density fitting, faster than exact integrals
    freeze_core True    # Freeze core electrons
    basis jun-cc-pVDZ   # Jun-cc-pVDZ basis set, recommended for sSAPT0 in https://doi.org/10.1063/1.4867135
}

energy('ssapt0')        # Compute sSAPT0 energy, includes also SAPT0
--------------------------------------------------------------------------

  Memory set to  29.802 GiB by Python driver.

Scratch directory: /state/partition1/slurm_tmp/24778930.4294967291.0/
   => Loading Basis Set <=

    Name: JUN-CC-PVDZ
    Role: ORBITAL
    Keyword: BASIS
    atoms 1     entry B          line   130 file /home/gridsan/tfroembgen/.conda/envs/psi4test/share/psi4/basis/jun-cc-pvdz.gbs 
    atoms 2-5   entry F          line   266 file /home/gridsan/tfroembgen/.conda/envs/psi4test/share/psi4/basis/jun-cc-pvdz.gbs 
    atoms 6-59  entry C          line   164 file /home/gridsan/tfroembgen/.conda/envs/psi4test/share/psi4/basis/jun-cc-pvdz.gbs 
    atoms 60-77 entry H          line    36 file /home/gridsan/tfroembgen/.conda/envs/psi4test/share/psi4/basis/jun-cc-pvdz.gbs 

   => Loading Basis Set <=

    Name: JUN-CC-PVDZ
    Role: ORBITAL
    Keyword: BASIS
    atoms 1     entry B          line   130 file /home/gridsan/tfroembgen/.conda/envs/psi4test/share/psi4/basis/jun-cc-pvdz.gbs 
    atoms 2-5   entry F          line   266 file /home/gridsan/tfroembgen/.conda/envs/psi4test/share/psi4/basis/jun-cc-pvdz.gbs 
    atoms 6-59  entry C          line   164 file /home/gridsan/tfroembgen/.conda/envs/psi4test/share/psi4/basis/jun-cc-pvdz.gbs 
    atoms 60-77 entry H          line    36 file /home/gridsan/tfroembgen/.conda/envs/psi4test/share/psi4/basis/jun-cc-pvdz.gbs 


  //>>>>>>>>>>>>>>>>>>>>>>>>>>>>>>>>>>>//
  //              Dimer HF             //
  //<<<<<<<<<<<<<<<<<<<<<<<<<<<<<<<<<<<//

   => Libint2 <=

    Primary   basis highest AM E, G, H:  7, 7, 4
    Auxiliary basis highest AM E, G, H:  7, 7, 5
    Onebody   basis highest AM E, G, H:  7, 7, 5
    Solid Harmonics ordering:            gaussian

*** tstart() called on d-6-7-1
*** at Sat Jan 20 22:14:34 2024

   => Loading Basis Set <=

    Name: JUN-CC-PVDZ
    Role: ORBITAL
    Keyword: BASIS
    atoms 1     entry B          line   130 file /home/gridsan/tfroembgen/.conda/envs/psi4test/share/psi4/basis/jun-cc-pvdz.gbs 
    atoms 2-5   entry F          line   266 file /home/gridsan/tfroembgen/.conda/envs/psi4test/share/psi4/basis/jun-cc-pvdz.gbs 
    atoms 6-59  entry C          line   164 file /home/gridsan/tfroembgen/.conda/envs/psi4test/share/psi4/basis/jun-cc-pvdz.gbs 
    atoms 60-77 entry H          line    36 file /home/gridsan/tfroembgen/.conda/envs/psi4test/share/psi4/basis/jun-cc-pvdz.gbs 


         ---------------------------------------------------------
                                   SCF
               by Justin Turney, Rob Parrish, Andy Simmonett
                          and Daniel G. A. Smith
                              RHF Reference
                       12 Threads,  30517 MiB Core
         ---------------------------------------------------------

  ==> Geometry <==

    Molecular point group: c1
    Full point group: C1

    Geometry (in Angstrom), charge = -1, multiplicity = 1:

       Center              X                  Y                   Z               Mass       
    ------------   -----------------  -----------------  -----------------  -----------------
         B           -0.000198161052     0.000273808717    -4.068573316572    11.009305360000
         F           -0.000000401852    -0.000000464183    -2.655788316572    18.998403162730
         F            1.147859598148     0.675780735817    -4.539714316572    18.998403162730
         F            0.011917658148    -1.332011464183    -4.539512316572    18.998403162730
         F           -1.159666401852     0.656073035817    -4.539433316572    18.998403162730
         C            1.225311973413     0.707538196736     0.537530310712    12.000000000000
         C            1.225323934041    -0.707538986754     0.525199501141    12.000000000000
         C           -0.000006075942     1.414965821907     0.524665877621    12.000000000000
         C            2.456448831939     1.418327794995     0.540417168112    12.000000000000
         C            0.000010905269    -1.414976590818     0.534865434945    12.000000000000
         C           -1.225300870919     0.707545281801     0.539781831034    12.000000000000
         C            2.456437833310    -1.418323396064     0.522954344285    12.000000000000
         C           -0.000001254988     2.836800939098     0.522262327487    12.000000000000
         C            3.681826775460     0.709317863818     0.523303134082    12.000000000000
         C            2.455120126855     2.834223569306     0.523200577122    12.000000000000
         C            3.681821183209    -0.709333931612     0.539375618101    12.000000000000
         C           -1.225313520698    -0.707527607727     0.526272262568    12.000000000000
         C            1.226699659192     3.543469391811     0.539559650032    12.000000000000
         C            0.000004862847    -2.836782231419     0.539713602567    12.000000000000
         C           -2.456435954859     1.418316826102     0.539817226880    12.000000000000
         C            2.455123495769    -2.834230120772     0.539223709733    12.000000000000
         C           -1.226714286599     3.543468971567     0.539662983251    12.000000000000
         C            4.914517373191     1.427172780306     0.529783817112    12.000000000000
         C            3.693150269466     3.542795200362     0.529833616748    12.000000000000
         C           -2.456437522078    -1.418313373022     0.522929306160    12.000000000000
         C            1.226704919933    -3.543474334090     0.523589519282    12.000000000000
         C           -2.455125320518     2.834216570451     0.523206953468    12.000000000000
         C            4.914524458772    -1.427187002127     0.532756559847    12.000000000000
         C            1.221424691688     4.970133973077     0.532894994106    12.000000000000
         C            4.893008307311     2.825187907843     0.531000485471    12.000000000000
         C           -1.226696930499    -3.543471089260     0.523856723691    12.000000000000
         C           -3.681818898536     0.709324874549     0.523315814562    12.000000000000
         C            3.693147179140    -3.542801433574     0.532874450407    12.000000000000
         C           -1.221432174004     4.970128205680     0.533078489479    12.000000000000
         C            6.134771050916     0.680547854922     0.530553591662    12.000000000000
         C            3.656788958600     4.972953151384     0.530742254531    12.000000000000
         C           -2.455126829744    -2.834215185244     0.538979351935    12.000000000000
         C           -3.681819101071    -0.709325795652     0.539493239680    12.000000000000
         C            4.893012695903    -2.825200197815     0.531611637366    12.000000000000
         C           -0.000000995123     5.650447273849     0.531847180772    12.000000000000
         C            6.134775190322    -0.680554946258     0.531818912178    12.000000000000
         C            2.478131560845     5.653576659148     0.532031034181    12.000000000000
         C            1.221422482727    -4.970127147116     0.530095497084    12.000000000000
         C           -3.693162305975     3.542796862009     0.529999124208    12.000000000000
         C           -1.221428442955    -4.970118395779     0.529982735251    12.000000000000
         C           -4.914521729952     1.427175354812     0.529860762119    12.000000000000
         C            3.656787097669    -4.972955318422     0.532192755065    12.000000000000
         C           -2.478138452116     5.653574330345     0.532315559189    12.000000000000
         C           -3.693141660574    -3.542790311162     0.532758324252    12.000000000000
         C           -4.914512405063    -1.427181092211     0.532791257020    12.000000000000
         C           -0.000005930936    -5.650438379197     0.531451676651    12.000000000000
         C           -4.893020406111     2.825188506736     0.530990403611    12.000000000000
         C            2.478126071288    -5.653573636072     0.531102154273    12.000000000000
         C           -3.656798632268     4.972956089858     0.530918934905    12.000000000000
         C           -4.892999400866    -2.825191859243     0.531457601668    12.000000000000
         C           -2.478128420093    -5.653566262190     0.530826966625    12.000000000000
         C           -6.134770425341     0.680548674073     0.530528039959    12.000000000000
         C           -3.656788755199    -4.972944115154     0.531978467248    12.000000000000
         C           -6.134764964923    -0.680554007665     0.531798436383    12.000000000000
         H            5.835288573806     3.369275802771     0.535359811133     1.007825032230
         H            7.073859250737     1.228217156716     0.531015235055     1.007825032230
         H            4.600663342164     5.512380710270     0.531247455283     1.007825032230
         H            5.835283465295    -3.369306148912     0.527157170052     1.007825032230
         H           -0.000012073316     6.738530581953     0.527497935764     1.007825032230
         H            7.073861249820    -1.228227034927     0.531310174083     1.007825032230
         H            2.473313809789     6.740684199211     0.531564313250     1.007825032230
         H            4.600668569371    -5.512376221359     0.531782757896     1.007825032230
         H           -2.473318602548     6.740681627423     0.531865659875     1.007825032230
         H           -0.000010190238    -6.738528268635     0.535981361635     1.007825032230
         H           -5.835301836354     3.369270858113     0.535495833282     1.007825032230
         H            2.473308001821    -6.740685466612     0.531672484698     1.007825032230
         H           -4.600674763218     5.512377934420     0.531412783606     1.007825032230
         H           -5.835279428845    -3.369289055963     0.526877864171     1.007825032230
         H           -2.473300269450    -6.740679170323     0.531223168153     1.007825032230
         H           -7.073857688778     1.228220380657     0.530931243574     1.007825032230
         H           -4.600673708095    -5.512362761970     0.531610449874     1.007825032230
         H           -7.073856856419    -1.228220724160     0.531215317617     1.007825032230

  Running in c1 symmetry.

  Rotational constants: A =      0.00181  B =      0.00181  C =      0.00110 [cm^-1]
  Rotational constants: A =     54.16510  B =     54.15832  C =     33.02251 [MHz]
  Nuclear repulsion = 7786.327725042707243

  Charge       = -1
  Multiplicity = 1
  Electrons    = 384
  Nalpha       = 192
  Nbeta        = 192

  ==> Algorithm <==

  SCF Algorithm Type is DF.
  DIIS enabled.
  MOM disabled.
  Fractional occupation disabled.
  Guess Type is SAD.
  Energy threshold   = 1.00e-08
  Density threshold  = 1.00e-08
  Integral threshold = 1.00e-12

  ==> Primary Basis <==

  Basis Set: JUN-CC-PVDZ
    Blend: JUN-CC-PVDZ
    Number of shells: 526
    Number of basis functions: 1152
    Number of Cartesian functions: 1211
    Spherical Harmonics?: true
    Max angular momentum: 2

   => Loading Basis Set <=

    Name: (JUN-CC-PVDZ AUX)
    Role: JKFIT
    Keyword: DF_BASIS_SCF
    atoms 1     entry B          line    90 file /home/gridsan/tfroembgen/.conda/envs/psi4test/share/psi4/basis/jun-cc-pvdz-jkfit.gbs 
    atoms 2-5   entry F          line   314 file /home/gridsan/tfroembgen/.conda/envs/psi4test/share/psi4/basis/jun-cc-pvdz-jkfit.gbs 
    atoms 6-59  entry C          line   146 file /home/gridsan/tfroembgen/.conda/envs/psi4test/share/psi4/basis/jun-cc-pvdz-jkfit.gbs 
    atoms 60-77 entry H          line    70 file /home/gridsan/tfroembgen/.conda/envs/psi4test/share/psi4/basis/jun-cc-pvdz-jkfit.gbs 

  ==> Integral Setup <==

  ==> DiskDFJK: Density-Fitted J/K Matrices <==

    J tasked:                  Yes
    K tasked:                  Yes
    wK tasked:                  No
    OpenMP threads:             12
    Integrals threads:          12
    Memory [MiB]:            22888
    Algorithm:                Core
    Integral Cache:           SAVE
    Schwarz Cutoff:          1E-12
    Fitting Condition:       1E-10

   => Auxiliary Basis Set <=

  Basis Set: (JUN-CC-PVDZ AUX)
    Blend: JUN-CC-PVDZ-JKFIT
    Number of shells: 1755
    Number of basis functions: 5075
    Number of Cartesian functions: 5819
    Spherical Harmonics?: true
    Max angular momentum: 3

  Minimum eigenvalue in the overlap matrix is 8.3517297249E-10.
  Reciprocal condition number of the overlap matrix is 3.6479385387E-11.
    Using canonical orthogonalization.
  Overall, 14 of 1152 possible MOs eliminated.


  ==> Pre-Iterations <==

  SCF Guess: Superposition of Atomic Densities via on-the-fly atomic UHF (no occupation information).

   -------------------------
    Irrep   Nso     Nmo    
   -------------------------
     A       1152    1138 
   -------------------------
    Total    1152    1138
   -------------------------

  ==> Iterations <==

                           Total Energy        Delta E     RMS |[F,P]|

   @DF-RHF iter SAD: -2483.29892785003722   -2.48330e+03   0.00000e+00 
   @DF-RHF iter   1: -2477.60772064951834    5.69121e+00   1.10564e-03 ADIIS/DIIS
   @DF-RHF iter   2: -2478.50327883655063   -8.95558e-01   4.86978e-04 ADIIS/DIIS
   @DF-RHF iter   3: -2478.64327732354332   -1.39998e-01   1.39525e-04 ADIIS/DIIS
   @DF-RHF iter   4: -2478.65740343133666   -1.41261e-02   6.32939e-05 DIIS
   @DF-RHF iter   5: -2478.66071375100364   -3.31032e-03   1.74045e-05 DIIS
   @DF-RHF iter   6: -2478.66103456997189   -3.20819e-04   5.37282e-06 DIIS
   @DF-RHF iter   7: -2478.66111663108450   -8.20611e-05   2.65568e-06 DIIS
   @DF-RHF iter   8: -2478.66113927661172   -2.26455e-05   1.21137e-06 DIIS
   @DF-RHF iter   9: -2478.66114604099948   -6.76439e-06   2.65494e-07 DIIS
   @DF-RHF iter  10: -2478.66114628361856   -2.42619e-07   9.38785e-08 DIIS
   @DF-RHF iter  11: -2478.66114630204356   -1.84250e-08   3.64377e-08 DIIS
   @DF-RHF iter  12: -2478.66114630585207   -3.80851e-09   1.27648e-08 DIIS
   @DF-RHF iter  13: -2478.66114630631955   -4.67480e-10   5.13731e-09 DIIS
  Energy and wave function converged.


  ==> Post-Iterations <==

    Orbital Energies [Eh]
    ---------------------

    Doubly Occupied:                                                      

       1A    -26.076751     2A    -26.071032     3A    -26.070938  
       4A    -26.070854     5A    -11.186002     6A    -11.185988  
       7A    -11.185986     8A    -11.185918     9A    -11.185904  
      10A    -11.185902    11A    -11.185877    12A    -11.185870  
      13A    -11.185869    14A    -11.185793    15A    -11.185784  
      16A    -11.185783    17A    -11.183070    18A    -11.183067  
      19A    -11.183066    20A    -11.183062    21A    -11.183059  
      22A    -11.183057    23A    -11.182724    24A    -11.182668  
      25A    -11.182667    26A    -11.182491    27A    -11.182490  
      28A    -11.182264    29A    -11.182183    30A    -11.181891  
      31A    -11.181889    32A    -11.181650    33A    -11.181648  
      34A    -11.181642    35A    -11.181640    36A    -11.181638  
      37A    -11.181635    38A    -11.181519    39A    -11.181517  
      40A    -11.181220    41A    -11.181162    42A    -11.180906  
      43A    -11.180905    44A    -11.180708    45A    -11.180707  
      46A    -11.180642    47A    -11.179243    48A    -11.179239  
      49A    -11.179239    50A    -11.179218    51A    -11.179217  
      52A    -11.179213    53A    -11.179194    54A    -11.178715  
      55A    -11.178702    56A    -11.177644    57A    -11.177633  
      58A    -11.177110    59A     -7.544570    60A     -1.416404  
      61A     -1.359553    62A     -1.355112    63A     -1.354949  
      64A     -1.166150    65A     -1.144558    66A     -1.144558  
      67A     -1.115704    68A     -1.115697    69A     -1.104179  
      70A     -1.085102    71A     -1.075464    72A     -1.059865  
      73A     -1.059857    74A     -1.040872    75A     -1.040867  
      76A     -1.007837    77A     -1.007829    78A     -1.003466  
      79A     -0.993981    80A     -0.993977    81A     -0.966361  
      82A     -0.948676    83A     -0.945619    84A     -0.945594  
      85A     -0.945551    86A     -0.941036    87A     -0.912841  
      88A     -0.912797    89A     -0.889189    90A     -0.889140  
      91A     -0.822014    92A     -0.821984    93A     -0.812195  
      94A     -0.810146    95A     -0.810091    96A     -0.807177  
      97A     -0.807128    98A     -0.789482    99A     -0.766853  
     100A     -0.745539   101A     -0.741778   102A     -0.738044  
     103A     -0.738037   104A     -0.722942   105A     -0.722932  
     106A     -0.671997   107A     -0.670738   108A     -0.660286  
     109A     -0.660263   110A     -0.658978   111A     -0.658970  
     112A     -0.642897   113A     -0.626585   114A     -0.626573  
     115A     -0.620500   116A     -0.620482   117A     -0.608062  
     118A     -0.589598   119A     -0.579279   120A     -0.578892  
     121A     -0.578886   122A     -0.576589   123A     -0.567311  
     124A     -0.567308   125A     -0.556069   126A     -0.554044  
     127A     -0.554029   128A     -0.536873   129A     -0.536593  
     130A     -0.533265   131A     -0.533182   132A     -0.527641  
     133A     -0.527636   134A     -0.527609   135A     -0.525889  
     136A     -0.520215   137A     -0.516102   138A     -0.516090  
     139A     -0.515080   140A     -0.500597   141A     -0.500592  
     142A     -0.496066   143A     -0.496051   144A     -0.492249  
     145A     -0.492238   146A     -0.484617   147A     -0.483106  
     148A     -0.483096   149A     -0.467013   150A     -0.467010  
     151A     -0.464281   152A     -0.464276   153A     -0.457032  
     154A     -0.452791   155A     -0.452752   156A     -0.450171  
     157A     -0.450161   158A     -0.450104   159A     -0.429214  
     160A     -0.423489   161A     -0.421338   162A     -0.414532  
     163A     -0.414106   164A     -0.413766   165A     -0.413685  
     166A     -0.411399   167A     -0.408741   168A     -0.408732  
     169A     -0.394363   170A     -0.394356   171A     -0.390280  
     172A     -0.390224   173A     -0.388713   174A     -0.375794  
     175A     -0.375715   176A     -0.367244   177A     -0.367235  
     178A     -0.329688   179A     -0.329665   180A     -0.326915  
     181A     -0.304097   182A     -0.304093   183A     -0.275925  
     184A     -0.259928   185A     -0.257757   186A     -0.257713  
     187A     -0.238903   188A     -0.227494   189A     -0.208787  
     190A     -0.208733   191A     -0.151279   192A     -0.151220  

    Virtual:                                                              

     193A      0.086905   194A      0.086971   195A      0.105109  
     196A      0.105114   197A      0.106728   198A      0.107542  
     199A      0.107548   200A      0.114151   201A      0.118464  
     202A      0.129443   203A      0.129445   204A      0.139100  
     205A      0.139145   206A      0.144194   207A      0.144197  
     208A      0.145147   209A      0.151718   210A      0.151725  
     211A      0.151953   212A      0.151969   213A      0.152624  
     214A      0.157650   215A      0.158110   216A      0.158113  
     217A      0.160020   218A      0.163931   219A      0.166165  
     220A      0.173212   221A      0.173220   222A      0.174956  
     223A      0.177358   224A      0.178812   225A      0.184847  
     226A      0.184884   227A      0.187721   228A      0.187739  
     229A      0.188484   230A      0.188499   231A      0.189831  
     232A      0.192113   233A      0.192768   234A      0.195740  
     235A      0.197108   236A      0.197122   237A      0.203423  
     238A      0.211297   239A      0.211299   240A      0.213595  
     241A      0.213606   242A      0.215952   243A      0.215955  
     244A      0.218671   245A      0.220480   246A      0.220483  
     247A      0.232117   248A      0.236071   249A      0.236090  
     250A      0.241235   251A      0.245939   252A      0.247658  
     253A      0.247679   254A      0.249145   255A      0.249167  
     256A      0.252314   257A      0.255287   258A      0.255301  
     259A      0.257502   260A      0.257531   261A      0.260473  
     262A      0.264795   263A      0.264804   264A      0.264965  
     265A      0.264968   266A      0.267360   267A      0.270824  
     268A      0.271582   269A      0.271614   270A      0.273949  
     271A      0.274667   272A      0.274680   273A      0.275586  
     274A      0.278344   275A      0.279726   276A      0.287234  
     277A      0.287255   278A      0.287409   279A      0.288667  
     280A      0.288686   281A      0.291780   282A      0.293542  
     283A      0.293552   284A      0.298340   285A      0.299501  
     286A      0.300744   287A      0.300760   288A      0.303641  
     289A      0.306137   290A      0.306140   291A      0.309098  
     292A      0.311691   293A      0.318047   294A      0.318060  
     295A      0.320227   296A      0.320239   297A      0.322808  
     298A      0.322819   299A      0.325714   300A      0.325743  
     301A      0.330054   302A      0.330067   303A      0.337567  
     304A      0.337572   305A      0.338599   306A      0.338602  
     307A      0.344509   308A      0.348044   309A      0.348074  
     310A      0.352227   311A      0.352264   312A      0.354917  
     313A      0.355744   314A      0.355796   315A      0.357810  
     316A      0.357828   317A      0.363116   318A      0.365782  
     319A      0.367410   320A      0.367424   321A      0.369271  
     322A      0.374402   323A      0.375770   324A      0.375799  
     325A      0.376176   326A      0.376244   327A      0.377637  
     328A      0.381024   329A      0.382021   330A      0.382026  
     331A      0.385869   332A      0.386571   333A      0.386588  
     334A      0.386965   335A      0.387875   336A      0.392873  
     337A      0.393863   338A      0.397768   339A      0.397898  
     340A      0.401634   341A      0.403055   342A      0.404783  
     343A      0.404822   344A      0.408317   345A      0.408331  
     346A      0.410454   347A      0.415149   348A      0.415175  
     349A      0.416424   350A      0.418833   351A      0.420556  
     352A      0.420594   353A      0.425483   354A      0.428685  
     355A      0.428699   356A      0.429798   357A      0.435040  
     358A      0.435061   359A      0.440202   360A      0.440236  
     361A      0.443344   362A      0.445645   363A      0.451949  
     364A      0.451994   365A      0.454633   366A      0.454752  
     367A      0.457473   368A      0.457506   369A      0.458804  
     370A      0.459985   371A      0.460041   372A      0.460220  
     373A      0.461108   374A      0.464181   375A      0.464444  
     376A      0.464507   377A      0.467169   378A      0.467201  
     379A      0.471827   380A      0.471888   381A      0.473503  
     382A      0.475439   383A      0.478010   384A      0.478051  
     385A      0.482463   386A      0.483990   387A      0.484072  
     388A      0.485219   389A      0.486004   390A      0.486102  
     391A      0.489964   392A      0.490015   393A      0.493509  
     394A      0.495936   395A      0.495949   396A      0.496414  
     397A      0.498735   398A      0.498812   399A      0.500872  
     400A      0.503034   401A      0.503144   402A      0.507731  
     403A      0.508319   404A      0.508543   405A      0.508629  
     406A      0.510275   407A      0.516407   408A      0.517091  
     409A      0.517133   410A      0.521137   411A      0.521184  
     412A      0.521615   413A      0.521628   414A      0.529208  
     415A      0.529360   416A      0.533777   417A      0.535564  
     418A      0.535587   419A      0.538805   420A      0.540809  
     421A      0.541499   422A      0.543739   423A      0.544526  
     424A      0.544536   425A      0.546657   426A      0.546740  
     427A      0.553068   428A      0.553078   429A      0.558422  
     430A      0.558514   431A      0.560435   432A      0.561784  
     433A      0.561832   434A      0.565469   435A      0.565488  
     436A      0.569335   437A      0.571442   438A      0.571456  
     439A      0.571857   440A      0.575379   441A      0.577319  
     442A      0.577348   443A      0.578753   444A      0.584257  
     445A      0.584297   446A      0.587689   447A      0.594216  
     448A      0.594254   449A      0.600829   450A      0.601932  
     451A      0.601991   452A      0.605390   453A      0.606065  
     454A      0.608118   455A      0.611312   456A      0.614121  
     457A      0.616459   458A      0.616480   459A      0.621543  
     460A      0.621580   461A      0.621970   462A      0.624107  
     463A      0.631623   464A      0.634210   465A      0.635658  
     466A      0.635687   467A      0.636634   468A      0.636654  
     469A      0.640288   470A      0.641862   471A      0.646254  
     472A      0.646305   473A      0.649640   474A      0.656642  
     475A      0.656768   476A      0.667193   477A      0.672550  
     478A      0.672579   479A      0.675123   480A      0.690610  
     481A      0.690719   482A      0.696176   483A      0.696400  
     484A      0.701037   485A      0.701224   486A      0.706563  
     487A      0.707119   488A      0.707304   489A      0.715932  
     490A      0.723633   491A      0.726500   492A      0.726517  
     493A      0.729954   494A      0.741975   495A      0.743292  
     496A      0.743349   497A      0.750162   498A      0.750189  
     499A      0.761247   500A      0.767035   501A      0.767305  
     502A      0.788933   503A      0.788973   504A      0.796282  
     505A      0.796372   506A      0.798281   507A      0.807837  
     508A      0.811904   509A      0.817167   510A      0.817226  
     511A      0.818694   512A      0.818763   513A      0.828953  
     514A      0.828982   515A      0.830514   516A      0.846889  
     517A      0.859430   518A      0.863353   519A      0.872001  
     520A      0.872058   521A      0.878135   522A      0.885688  
     523A      0.889030   524A      0.890829   525A      0.890853  
     526A      0.893953   527A      0.894241   528A      0.899131  
     529A      0.899443   530A      0.899912   531A      0.899937  
     532A      0.909187   533A      0.925990   534A      0.926006  
     535A      0.933831   536A      0.936146   537A      0.936195  
     538A      0.936273   539A      0.942383   540A      0.942569  
     541A      0.946611   542A      0.946703   543A      0.953773  
     544A      0.953870   545A      0.959623   546A      0.959676  
     547A      0.965997   548A      0.968899   549A      0.969004  
     550A      0.969488   551A      0.969536   552A      0.972405  
     553A      0.972573   554A      0.974721   555A      0.975696  
     556A      0.981093   557A      0.983064   558A      0.983151  
     559A      0.983332   560A      0.991455   561A      0.991515  
     562A      0.993659   563A      0.996253   564A      1.000652  
     565A      1.004102   566A      1.007804   567A      1.007843  
     568A      1.009383   569A      1.009635   570A      1.010353  
     571A      1.017053   572A      1.017125   573A      1.019815  
     574A      1.019975   575A      1.037545   576A      1.037559  
     577A      1.037888   578A      1.039126   579A      1.043979  
     580A      1.044352   581A      1.050978   582A      1.051912  
     583A      1.052510   584A      1.052752   585A      1.060088  
     586A      1.063490   587A      1.065387   588A      1.065445  
     589A      1.070024   590A      1.070058   591A      1.071827  
     592A      1.078495   593A      1.085448   594A      1.085465  
     595A      1.088241   596A      1.088269   597A      1.089702  
     598A      1.105198   599A      1.105247   600A      1.108858  
     601A      1.111392   602A      1.111520   603A      1.115674  
     604A      1.115691   605A      1.117667   606A      1.117729  
     607A      1.117821   608A      1.121614   609A      1.121864  
     610A      1.122435   611A      1.122464   612A      1.126943  
     613A      1.126950   614A      1.127299   615A      1.129342  
     616A      1.129404   617A      1.137347   618A      1.143055  
     619A      1.143122   620A      1.145254   621A      1.145934  
     622A      1.146067   623A      1.155918   624A      1.159593  
     625A      1.160380   626A      1.160427   627A      1.168297  
     628A      1.168326   629A      1.170611   630A      1.170645  
     631A      1.172436   632A      1.175291   633A      1.175366  
     634A      1.182624   635A      1.182748   636A      1.186126  
     637A      1.186205   638A      1.187273   639A      1.199625  
     640A      1.201110   641A      1.201342   642A      1.201984  
     643A      1.202857   644A      1.202920   645A      1.203236  
     646A      1.215222   647A      1.215432   648A      1.216408  
     649A      1.216447   650A      1.221351   651A      1.221374  
     652A      1.223068   653A      1.223253   654A      1.224775  
     655A      1.227805   656A      1.235718   657A      1.249506  
     658A      1.251395   659A      1.258536   660A      1.259632  
     661A      1.259700   662A      1.264295   663A      1.264316  
     664A      1.273005   665A      1.273130   666A      1.274977  
     667A      1.275060   668A      1.277973   669A      1.284408  
     670A      1.291477   671A      1.291520   672A      1.294406  
     673A      1.295240   674A      1.295274   675A      1.308355  
     676A      1.308396   677A      1.309844   678A      1.330852  
     679A      1.330951   680A      1.334091   681A      1.334168  
     682A      1.336020   683A      1.336168   684A      1.337694  
     685A      1.337778   686A      1.347921   687A      1.348310  
     688A      1.365200   689A      1.365268   690A      1.365601  
     691A      1.366612   692A      1.369559   693A      1.370314  
     694A      1.375306   695A      1.379231   696A      1.379297  
     697A      1.380291   698A      1.382328   699A      1.382393  
     700A      1.395998   701A      1.396030   702A      1.401812  
     703A      1.401846   704A      1.402247   705A      1.403906  
     706A      1.404003   707A      1.412234   708A      1.413090  
     709A      1.421271   710A      1.427326   711A      1.428374  
     712A      1.428380   713A      1.430335   714A      1.430373  
     715A      1.432573   716A      1.432591   717A      1.442781  
     718A      1.442861   719A      1.448981   720A      1.449026  
     721A      1.449788   722A      1.461782   723A      1.465591  
     724A      1.476404   725A      1.476426   726A      1.484093  
     727A      1.484119   728A      1.485889   729A      1.485928  
     730A      1.492090   731A      1.495492   732A      1.504868  
     733A      1.508085   734A      1.508114   735A      1.510138  
     736A      1.510232   737A      1.512067   738A      1.512089  
     739A      1.520852   740A      1.520890   741A      1.523195  
     742A      1.523549   743A      1.523588   744A      1.528176  
     745A      1.541908   746A      1.541961   747A      1.560644  
     748A      1.560691   749A      1.563432   750A      1.589812  
     751A      1.589862   752A      1.596844   753A      1.596868  
     754A      1.602907   755A      1.626831   756A      1.649663  
     757A      1.649739   758A      1.652014   759A      1.660287  
     760A      1.676326   761A      1.676799   762A      1.684760  
     763A      1.690536   764A      1.690692   765A      1.691791  
     766A      1.692609   767A      1.692682   768A      1.700551  
     769A      1.702565   770A      1.702656   771A      1.711293  
     772A      1.711517   773A      1.716363   774A      1.716384  
     775A      1.718603   776A      1.719743   777A      1.720581  
     778A      1.720850   779A      1.734476   780A      1.734603  
     781A      1.734645   782A      1.740646   783A      1.749117  
     784A      1.749150   785A      1.751938   786A      1.754877  
     787A      1.754904   788A      1.757122   789A      1.761970  
     790A      1.762017   791A      1.768754   792A      1.771506  
     793A      1.771536   794A      1.771601   795A      1.778680  
     796A      1.781594   797A      1.781654   798A      1.788494  
     799A      1.788505   800A      1.815457   801A      1.826535  
     802A      1.830516   803A      1.832510   804A      1.832522  
     805A      1.835055   806A      1.850029   807A      1.850059  
     808A      1.864775   809A      1.864789   810A      1.888140  
     811A      1.888397   812A      1.888436   813A      1.900382  
     814A      1.900475   815A      1.904079   816A      1.904172  
     817A      1.905810   818A      1.913039   819A      1.917080  
     820A      1.918915   821A      1.932072   822A      1.932099  
     823A      1.936043   824A      1.936068   825A      1.936706  
     826A      1.943821   827A      1.946306   828A      1.954849  
     829A      1.954895   830A      1.970053   831A      1.970170  
     832A      1.974112   833A      1.975212   834A      1.975400  
     835A      1.982738   836A      1.982873   837A      1.986296  
     838A      1.986483   839A      1.991624   840A      1.991788  
     841A      1.992977   842A      1.995643   843A      1.995684  
     844A      2.009248   845A      2.012936   846A      2.013068  
     847A      2.015362   848A      2.015399   849A      2.016386  
     850A      2.020041   851A      2.020134   852A      2.030535  
     853A      2.030617   854A      2.031403   855A      2.039097  
     856A      2.039179   857A      2.043363   858A      2.046487  
     859A      2.048021   860A      2.058383   861A      2.058455  
     862A      2.070127   863A      2.070751   864A      2.070858  
     865A      2.078136   866A      2.078415   867A      2.079273  
     868A      2.079443   869A      2.081156   870A      2.093109  
     871A      2.093393   872A      2.102856   873A      2.103563  
     874A      2.105514   875A      2.105884   876A      2.106030  
     877A      2.106285   878A      2.109000   879A      2.123025  
     880A      2.125194   881A      2.125307   882A      2.129533  
     883A      2.129654   884A      2.136048   885A      2.136675  
     886A      2.140626   887A      2.140657   888A      2.144456  
     889A      2.151479   890A      2.151643   891A      2.151657  
     892A      2.158200   893A      2.158783   894A      2.159051  
     895A      2.165150   896A      2.165850   897A      2.166168  
     898A      2.166202   899A      2.168545   900A      2.173275  
     901A      2.174050   902A      2.174194   903A      2.181177  
     904A      2.182464   905A      2.182566   906A      2.184209  
     907A      2.187954   908A      2.188041   909A      2.191827  
     910A      2.194289   911A      2.194686   912A      2.196069  
     913A      2.196159   914A      2.202092   915A      2.202337  
     916A      2.207425   917A      2.207616   918A      2.208348  
     919A      2.208392   920A      2.212392   921A      2.212448  
     922A      2.220995   923A      2.221031   924A      2.223347  
     925A      2.230981   926A      2.237497   927A      2.237510  
     928A      2.238152   929A      2.238194   930A      2.248623  
     931A      2.251759   932A      2.251881   933A      2.262650  
     934A      2.262814   935A      2.264852   936A      2.267184  
     937A      2.273984   938A      2.274072   939A      2.281382  
     940A      2.293182   941A      2.296698   942A      2.296740  
     943A      2.299217   944A      2.308388   945A      2.309367  
     946A      2.309562   947A      2.313022   948A      2.313263  
     949A      2.316606   950A      2.316753   951A      2.317637  
     952A      2.331118   953A      2.331231   954A      2.342762  
     955A      2.342791   956A      2.343931   957A      2.343961  
     958A      2.350502   959A      2.371925   960A      2.378686  
     961A      2.382125   962A      2.388306   963A      2.389341  
     964A      2.409706   965A      2.409799   966A      2.412304  
     967A      2.413051   968A      2.415960   969A      2.425881  
     970A      2.426549   971A      2.427339   972A      2.427656  
     973A      2.443493   974A      2.443685   975A      2.452417  
     976A      2.457408   977A      2.475725   978A      2.487881  
     979A      2.497417   980A      2.498032   981A      2.498066  
     982A      2.508179   983A      2.516129   984A      2.516199  
     985A      2.543977   986A      2.546599   987A      2.546741  
     988A      2.559639   989A      2.559684   990A      2.575714  
     991A      2.595743   992A      2.604463   993A      2.611899  
     994A      2.618535   995A      2.618871   996A      2.618911  
     997A      2.624497   998A      2.624560   999A      2.631419  
    1000A      2.633016  1001A      2.633028  1002A      2.646239  
    1003A      2.646462  1004A      2.646527  1005A      2.646723  
    1006A      2.658444  1007A      2.658593  1008A      2.661350  
    1009A      2.663801  1010A      2.664852  1011A      2.678714  
    1012A      2.696068  1013A      2.696152  1014A      2.706445  
    1015A      2.706850  1016A      2.706905  1017A      2.712935  
    1018A      2.712999  1019A      2.723626  1020A      2.723916  
    1021A      2.728492  1022A      2.756270  1023A      2.757715  
    1024A      2.758826  1025A      2.764163  1026A      2.779396  
    1027A      2.779675  1028A      2.787869  1029A      2.787884  
    1030A      2.793110  1031A      2.793129  1032A      2.797193  
    1033A      2.797381  1034A      2.825920  1035A      2.826370  
    1036A      2.832978  1037A      2.852907  1038A      2.870510  
    1039A      2.870600  1040A      2.895244  1041A      2.902598  
    1042A      2.902982  1043A      2.927415  1044A      2.927564  
    1045A      2.933495  1046A      2.935288  1047A      2.935323  
    1048A      2.935689  1049A      2.952309  1050A      2.987676  
    1051A      2.987722  1052A      2.994627  1053A      3.003781  
    1054A      3.003873  1055A      3.009274  1056A      3.009386  
    1057A      3.026106  1058A      3.026257  1059A      3.035110  
    1060A      3.081515  1061A      3.081803  1062A      3.085587  
    1063A      3.085803  1064A      3.121824  1065A      3.140363  
    1066A      3.140379  1067A      3.146514  1068A      3.146582  
    1069A      3.186694  1070A      3.187321  1071A      3.200582  
    1072A      3.203872  1073A      3.204127  1074A      3.209493  
    1075A      3.219604  1076A      3.219644  1077A      3.219739  
    1078A      3.221449  1079A      3.221485  1080A      3.232542  
    1081A      3.232900  1082A      3.238132  1083A      3.238686  
    1084A      3.262529  1085A      3.281634  1086A      3.294002  
    1087A      3.312512  1088A      3.336992  1089A      3.350352  
    1090A      3.350592  1091A      3.359001  1092A      3.359969  
    1093A      3.360215  1094A      3.493578  1095A      3.493986  
    1096A      3.533482  1097A      3.559369  1098A      3.561883  
    1099A      3.629033  1100A      3.660768  1101A      3.662790  
    1102A      3.670406  1103A      3.700896  1104A      3.702845  
    1105A      3.737888  1106A      3.748277  1107A      3.843713  
    1108A      3.862607  1109A      3.863708  1110A      3.943033  
    1111A      3.943042  1112A      3.987085  1113A      3.987148  
    1114A      4.052694  1115A      4.086997  1116A      4.114984  
    1117A      4.125491  1118A      4.169994  1119A      4.173059  
    1120A      4.174333  1121A      4.175933  1122A      4.197248  
    1123A      4.199958  1124A      4.200099  1125A      4.204119  
    1126A      4.204226  1127A      4.235449  1128A      4.235462  
    1129A      4.255021  1130A      4.444642  1131A      4.445014  
    1132A      4.445964  1133A      4.646603  1134A      4.655453  
    1135A      4.655507  1136A      4.749066  1137A      4.783764  
    1138A      4.784108  

    Final Occupation by Irrep:
              A 
    DOCC [   192 ]
    NA   [   192 ]
    NB   [   192 ]

  @DF-RHF Final Energy: -2478.66114630631955

   => Energetics <=

    Nuclear Repulsion Energy =           7786.3277250427072431
    One-Electron Energy =              -18929.0758656766738568
    Two-Electron Energy =                8664.0869943276466074
    Total Energy =                      -2478.6611463063200063

Computation Completed


Properties will be evaluated at   0.000000,   0.000000,   0.000000 [a0]

Properties computed using the SCF density matrix


 Multipole Moments:

 ------------------------------------------------------------------------------------
     Multipole            Electronic (a.u.)      Nuclear  (a.u.)        Total (a.u.)
 ------------------------------------------------------------------------------------

 L = 1.  Multiply by 2.5417464519 to convert [e a0] to [Debye]
 Dipole X            :         -0.0004334            0.0000481           -0.0003853
 Dipole Y            :          0.0008994           -0.0001453            0.0007541
 Dipole Z            :        -21.6851614           28.1996898            6.5145284
 Magnitude           :                                                    6.5145284

 ------------------------------------------------------------------------------------

*** tstop() called on d-6-7-1 at Sat Jan 20 22:20:32 2024
Module time:
	user time   =    3353.17 seconds =      55.89 minutes
	system time =      75.30 seconds =       1.26 minutes
	total time  =        358 seconds =       5.97 minutes
Total time:
	user time   =    3353.17 seconds =      55.89 minutes
	system time =      75.30 seconds =       1.26 minutes
	total time  =        358 seconds =       5.97 minutes

  //>>>>>>>>>>>>>>>>>>>>>>>>>>>>>>>>>>>//
  //            Monomer A HF           //
  //<<<<<<<<<<<<<<<<<<<<<<<<<<<<<<<<<<<//

   => Libint2 <=

    Primary   basis highest AM E, G, H:  7, 7, 4
    Auxiliary basis highest AM E, G, H:  7, 7, 5
    Onebody   basis highest AM E, G, H:  7, 7, 5
    Solid Harmonics ordering:            gaussian

*** tstart() called on d-6-7-1
*** at Sat Jan 20 22:20:32 2024

   => Loading Basis Set <=

    Name: JUN-CC-PVDZ
    Role: ORBITAL
    Keyword: BASIS
    atoms 1     entry B          line   130 file /home/gridsan/tfroembgen/.conda/envs/psi4test/share/psi4/basis/jun-cc-pvdz.gbs 
    atoms 2-5   entry F          line   266 file /home/gridsan/tfroembgen/.conda/envs/psi4test/share/psi4/basis/jun-cc-pvdz.gbs 
    atoms 6-59  entry C          line   164 file /home/gridsan/tfroembgen/.conda/envs/psi4test/share/psi4/basis/jun-cc-pvdz.gbs 
    atoms 60-77 entry H          line    36 file /home/gridsan/tfroembgen/.conda/envs/psi4test/share/psi4/basis/jun-cc-pvdz.gbs 


         ---------------------------------------------------------
                                   SCF
               by Justin Turney, Rob Parrish, Andy Simmonett
                          and Daniel G. A. Smith
                              RHF Reference
                       12 Threads,  30517 MiB Core
         ---------------------------------------------------------

  ==> Geometry <==

    Molecular point group: c1
    Full point group: C1

    Geometry (in Angstrom), charge = -1, multiplicity = 1:

       Center              X                  Y                   Z               Mass       
    ------------   -----------------  -----------------  -----------------  -----------------
         B           -0.000198161052     0.000273808717    -4.068573316572    11.009305360000
         F           -0.000000401852    -0.000000464183    -2.655788316572    18.998403162730
         F            1.147859598148     0.675780735817    -4.539714316572    18.998403162730
         F            0.011917658148    -1.332011464183    -4.539512316572    18.998403162730
         F           -1.159666401852     0.656073035817    -4.539433316572    18.998403162730
      Gh(C)           1.225311973413     0.707538196736     0.537530310712    12.000000000000
      Gh(C)           1.225323934041    -0.707538986754     0.525199501141    12.000000000000
      Gh(C)          -0.000006075942     1.414965821907     0.524665877621    12.000000000000
      Gh(C)           2.456448831939     1.418327794995     0.540417168112    12.000000000000
      Gh(C)           0.000010905269    -1.414976590818     0.534865434945    12.000000000000
      Gh(C)          -1.225300870919     0.707545281801     0.539781831034    12.000000000000
      Gh(C)           2.456437833310    -1.418323396064     0.522954344285    12.000000000000
      Gh(C)          -0.000001254988     2.836800939098     0.522262327487    12.000000000000
      Gh(C)           3.681826775460     0.709317863818     0.523303134082    12.000000000000
      Gh(C)           2.455120126855     2.834223569306     0.523200577122    12.000000000000
      Gh(C)           3.681821183209    -0.709333931612     0.539375618101    12.000000000000
      Gh(C)          -1.225313520698    -0.707527607727     0.526272262568    12.000000000000
      Gh(C)           1.226699659192     3.543469391811     0.539559650032    12.000000000000
      Gh(C)           0.000004862847    -2.836782231419     0.539713602567    12.000000000000
      Gh(C)          -2.456435954859     1.418316826102     0.539817226880    12.000000000000
      Gh(C)           2.455123495769    -2.834230120772     0.539223709733    12.000000000000
      Gh(C)          -1.226714286599     3.543468971567     0.539662983251    12.000000000000
      Gh(C)           4.914517373191     1.427172780306     0.529783817112    12.000000000000
      Gh(C)           3.693150269466     3.542795200362     0.529833616748    12.000000000000
      Gh(C)          -2.456437522078    -1.418313373022     0.522929306160    12.000000000000
      Gh(C)           1.226704919933    -3.543474334090     0.523589519282    12.000000000000
      Gh(C)          -2.455125320518     2.834216570451     0.523206953468    12.000000000000
      Gh(C)           4.914524458772    -1.427187002127     0.532756559847    12.000000000000
      Gh(C)           1.221424691688     4.970133973077     0.532894994106    12.000000000000
      Gh(C)           4.893008307311     2.825187907843     0.531000485471    12.000000000000
      Gh(C)          -1.226696930499    -3.543471089260     0.523856723691    12.000000000000
      Gh(C)          -3.681818898536     0.709324874549     0.523315814562    12.000000000000
      Gh(C)           3.693147179140    -3.542801433574     0.532874450407    12.000000000000
      Gh(C)          -1.221432174004     4.970128205680     0.533078489479    12.000000000000
      Gh(C)           6.134771050916     0.680547854922     0.530553591662    12.000000000000
      Gh(C)           3.656788958600     4.972953151384     0.530742254531    12.000000000000
      Gh(C)          -2.455126829744    -2.834215185244     0.538979351935    12.000000000000
      Gh(C)          -3.681819101071    -0.709325795652     0.539493239680    12.000000000000
      Gh(C)           4.893012695903    -2.825200197815     0.531611637366    12.000000000000
      Gh(C)          -0.000000995123     5.650447273849     0.531847180772    12.000000000000
      Gh(C)           6.134775190322    -0.680554946258     0.531818912178    12.000000000000
      Gh(C)           2.478131560845     5.653576659148     0.532031034181    12.000000000000
      Gh(C)           1.221422482727    -4.970127147116     0.530095497084    12.000000000000
      Gh(C)          -3.693162305975     3.542796862009     0.529999124208    12.000000000000
      Gh(C)          -1.221428442955    -4.970118395779     0.529982735251    12.000000000000
      Gh(C)          -4.914521729952     1.427175354812     0.529860762119    12.000000000000
      Gh(C)           3.656787097669    -4.972955318422     0.532192755065    12.000000000000
      Gh(C)          -2.478138452116     5.653574330345     0.532315559189    12.000000000000
      Gh(C)          -3.693141660574    -3.542790311162     0.532758324252    12.000000000000
      Gh(C)          -4.914512405063    -1.427181092211     0.532791257020    12.000000000000
      Gh(C)          -0.000005930936    -5.650438379197     0.531451676651    12.000000000000
      Gh(C)          -4.893020406111     2.825188506736     0.530990403611    12.000000000000
      Gh(C)           2.478126071288    -5.653573636072     0.531102154273    12.000000000000
      Gh(C)          -3.656798632268     4.972956089858     0.530918934905    12.000000000000
      Gh(C)          -4.892999400866    -2.825191859243     0.531457601668    12.000000000000
      Gh(C)          -2.478128420093    -5.653566262190     0.530826966625    12.000000000000
      Gh(C)          -6.134770425341     0.680548674073     0.530528039959    12.000000000000
      Gh(C)          -3.656788755199    -4.972944115154     0.531978467248    12.000000000000
      Gh(C)          -6.134764964923    -0.680554007665     0.531798436383    12.000000000000
      Gh(H)           5.835288573806     3.369275802771     0.535359811133     1.007825032230
      Gh(H)           7.073859250737     1.228217156716     0.531015235055     1.007825032230
      Gh(H)           4.600663342164     5.512380710270     0.531247455283     1.007825032230
      Gh(H)           5.835283465295    -3.369306148912     0.527157170052     1.007825032230
      Gh(H)          -0.000012073316     6.738530581953     0.527497935764     1.007825032230
      Gh(H)           7.073861249820    -1.228227034927     0.531310174083     1.007825032230
      Gh(H)           2.473313809789     6.740684199211     0.531564313250     1.007825032230
      Gh(H)           4.600668569371    -5.512376221359     0.531782757896     1.007825032230
      Gh(H)          -2.473318602548     6.740681627423     0.531865659875     1.007825032230
      Gh(H)          -0.000010190238    -6.738528268635     0.535981361635     1.007825032230
      Gh(H)          -5.835301836354     3.369270858113     0.535495833282     1.007825032230
      Gh(H)           2.473308001821    -6.740685466612     0.531672484698     1.007825032230
      Gh(H)          -4.600674763218     5.512377934420     0.531412783606     1.007825032230
      Gh(H)          -5.835279428845    -3.369289055963     0.526877864171     1.007825032230
      Gh(H)          -2.473300269450    -6.740679170323     0.531223168153     1.007825032230
      Gh(H)          -7.073857688778     1.228220380657     0.530931243574     1.007825032230
      Gh(H)          -4.600673708095    -5.512362761970     0.531610449874     1.007825032230
      Gh(H)          -7.073856856419    -1.228220724160     0.531215317617     1.007825032230

  Running in c1 symmetry.

  Rotational constants: A =      0.00181  B =      0.00181  C =      0.00110 [cm^-1]
  Rotational constants: A =     54.16510  B =     54.15832  C =     33.02251 [MHz]
  Nuclear repulsion =  178.879455044809077

  Charge       = -1
  Multiplicity = 1
  Electrons    = 42
  Nalpha       = 21
  Nbeta        = 21

  ==> Algorithm <==

  SCF Algorithm Type is DF.
  DIIS enabled.
  MOM disabled.
  Fractional occupation disabled.
  Guess Type is SAD.
  Energy threshold   = 1.00e-08
  Density threshold  = 1.00e-08
  Integral threshold = 1.00e-12

  ==> Primary Basis <==

  Basis Set: JUN-CC-PVDZ
    Blend: JUN-CC-PVDZ
    Number of shells: 526
    Number of basis functions: 1152
    Number of Cartesian functions: 1211
    Spherical Harmonics?: true
    Max angular momentum: 2

   => Loading Basis Set <=

    Name: (JUN-CC-PVDZ AUX)
    Role: JKFIT
    Keyword: DF_BASIS_SCF
    atoms 1     entry B          line    90 file /home/gridsan/tfroembgen/.conda/envs/psi4test/share/psi4/basis/jun-cc-pvdz-jkfit.gbs 
    atoms 2-5   entry F          line   314 file /home/gridsan/tfroembgen/.conda/envs/psi4test/share/psi4/basis/jun-cc-pvdz-jkfit.gbs 
    atoms 6-59  entry C          line   146 file /home/gridsan/tfroembgen/.conda/envs/psi4test/share/psi4/basis/jun-cc-pvdz-jkfit.gbs 
    atoms 60-77 entry H          line    70 file /home/gridsan/tfroembgen/.conda/envs/psi4test/share/psi4/basis/jun-cc-pvdz-jkfit.gbs 

  ==> Integral Setup <==

  ==> DiskDFJK: Density-Fitted J/K Matrices <==

    J tasked:                  Yes
    K tasked:                  Yes
    wK tasked:                  No
    OpenMP threads:             12
    Integrals threads:          12
    Memory [MiB]:            22888
    Algorithm:                Core
    Integral Cache:           LOAD
    Schwarz Cutoff:          1E-12
    Fitting Condition:       1E-10

   => Auxiliary Basis Set <=

  Basis Set: (JUN-CC-PVDZ AUX)
    Blend: JUN-CC-PVDZ-JKFIT
    Number of shells: 1755
    Number of basis functions: 5075
    Number of Cartesian functions: 5819
    Spherical Harmonics?: true
    Max angular momentum: 3

  Minimum eigenvalue in the overlap matrix is 8.3517297249E-10.
  Reciprocal condition number of the overlap matrix is 3.6479385387E-11.
    Using canonical orthogonalization.
  Overall, 14 of 1152 possible MOs eliminated.


  ==> Pre-Iterations <==

  SCF Guess: Superposition of Atomic Densities via on-the-fly atomic UHF (no occupation information).

   -------------------------
    Irrep   Nso     Nmo    
   -------------------------
     A       1152    1138 
   -------------------------
    Total    1152    1138
   -------------------------

  ==> Iterations <==

                           Total Energy        Delta E     RMS |[F,P]|

   @DF-RHF iter SAD:  -421.23044643232481   -4.21230e+02   0.00000e+00 
   @DF-RHF iter   1:  -422.65032630472302   -1.41988e+00   5.30354e-04 ADIIS/DIIS
   @DF-RHF iter   2:  -422.73323992283758   -8.29136e-02   3.23521e-04 ADIIS/DIIS
   @DF-RHF iter   3:  -422.77180225355926   -3.85623e-02   1.74469e-05 DIIS
   @DF-RHF iter   4:  -422.77216422128532   -3.61968e-04   2.76541e-06 DIIS
   @DF-RHF iter   5:  -422.77217291009202   -8.68881e-06   7.11457e-07 DIIS
   @DF-RHF iter   6:  -422.77217348337905   -5.73287e-07   1.46490e-07 DIIS
   @DF-RHF iter   7:  -422.77217350499785   -2.16188e-08   1.72746e-08 DIIS
   @DF-RHF iter   8:  -422.77217350524143   -2.43574e-10   7.54545e-09 DIIS
  Energy and wave function converged.


  ==> Post-Iterations <==

    Orbital Energies [Eh]
    ---------------------

    Doubly Occupied:                                                      

       1A    -26.067106     2A    -26.067011     3A    -26.066962  
       4A    -26.066925     5A     -7.539049     6A     -1.410791  
       7A     -1.351202     8A     -1.351043     9A     -1.350867  
      10A     -0.602083    11A     -0.528302    12A     -0.528226  
      13A     -0.528197    14A     -0.447137    15A     -0.447095  
      16A     -0.408362    17A     -0.408336    18A     -0.408256  
      19A     -0.384946    20A     -0.384776    21A     -0.384712  

    Virtual:                                                              

      22A      0.087980    23A      0.088761    24A      0.088765  
      25A      0.095738    26A      0.095744    27A      0.107191  
      28A      0.107900    29A      0.115851    30A      0.123583  
      31A      0.123584    32A      0.129197    33A      0.129202  
      34A      0.141556    35A      0.141564    36A      0.141593  
      37A      0.144374    38A      0.144385    39A      0.145554  
      40A      0.145570    41A      0.155617    42A      0.156971  
      43A      0.156977    44A      0.163008    45A      0.163107  
      46A      0.166020    47A      0.172551    48A      0.175629  
      49A      0.177195    50A      0.177994    51A      0.177995  
      52A      0.179553    53A      0.185955    54A      0.185968  
      55A      0.186262    56A      0.186274    57A      0.189226  
      58A      0.192677    59A      0.192719    60A      0.198370  
      61A      0.198375    62A      0.199430    63A      0.199432  
      64A      0.201528    65A      0.201547    66A      0.202596  
      67A      0.210027    68A      0.210047    69A      0.211155  
      70A      0.211156    71A      0.217285    72A      0.218008  
      73A      0.221085    74A      0.221091    75A      0.222081  
      76A      0.225945    77A      0.225965    78A      0.228977  
      79A      0.228992    80A      0.231554    81A      0.231558  
      82A      0.232176    83A      0.234528    84A      0.239988  
      85A      0.242805    86A      0.242808    87A      0.244724  
      88A      0.245259    89A      0.250134    90A      0.250160  
      91A      0.255425    92A      0.258265    93A      0.261232  
      94A      0.262783    95A      0.264615    96A      0.264627  
      97A      0.266214    98A      0.267177    99A      0.267178  
     100A      0.267837   101A      0.273845   102A      0.273853  
     103A      0.277019   104A      0.277032   105A      0.281476  
     106A      0.281489   107A      0.286147   108A      0.286151  
     109A      0.288798   110A      0.292183   111A      0.292254  
     112A      0.292270   113A      0.298051   114A      0.298062  
     115A      0.300179   116A      0.300216   117A      0.302060  
     118A      0.304767   119A      0.304898   120A      0.304962  
     121A      0.308888   122A      0.313406   123A      0.315592  
     124A      0.321088   125A      0.321099   126A      0.325258  
     127A      0.325268   128A      0.325680   129A      0.325693  
     130A      0.327846   131A      0.327855   132A      0.329851  
     133A      0.337522   134A      0.337532   135A      0.342761  
     136A      0.342784   137A      0.346118   138A      0.347568  
     139A      0.349742   140A      0.349761   141A      0.350245  
     142A      0.352918   143A      0.352921   144A      0.355007  
     145A      0.355016   146A      0.356542   147A      0.360781  
     148A      0.365721   149A      0.373076   150A      0.377587  
     151A      0.377597   152A      0.377869   153A      0.379892  
     154A      0.379947   155A      0.387189   156A      0.389681  
     157A      0.389699   158A      0.392559   159A      0.396842  
     160A      0.396857   161A      0.397866   162A      0.401367  
     163A      0.401389   164A      0.404563   165A      0.404600  
     166A      0.407450   167A      0.408354   168A      0.409089  
     169A      0.409214   170A      0.417772   171A      0.420023  
     172A      0.420137   173A      0.425744   174A      0.427419  
     175A      0.427489   176A      0.432661   177A      0.433080  
     178A      0.433367   179A      0.436331   180A      0.436442  
     181A      0.436978   182A      0.437604   183A      0.437948  
     184A      0.437971   185A      0.443077   186A      0.443309  
     187A      0.443697   188A      0.448116   189A      0.451757  
     190A      0.451793   191A      0.454995   192A      0.456619  
     193A      0.456657   194A      0.461297   195A      0.461332  
     196A      0.463487   197A      0.463538   198A      0.473076  
     199A      0.474596   200A      0.474637   201A      0.483501  
     202A      0.483563   203A      0.486690   204A      0.487206  
     205A      0.487258   206A      0.488885   207A      0.493280  
     208A      0.493300   209A      0.497642   210A      0.497944  
     211A      0.499828   212A      0.505341   213A      0.505349  
     214A      0.509985   215A      0.510926   216A      0.511031  
     217A      0.512343   218A      0.514999   219A      0.515015  
     220A      0.516720   221A      0.517637   222A      0.517694  
     223A      0.521418   224A      0.521493   225A      0.522120  
     226A      0.522287   227A      0.529198   228A      0.529480  
     229A      0.530254   230A      0.536623   231A      0.537040  
     232A      0.537207   233A      0.540066   234A      0.540525  
     235A      0.545603   236A      0.545650   237A      0.548417  
     238A      0.551454   239A      0.554999   240A      0.556546  
     241A      0.556575   242A      0.560255   243A      0.560305  
     244A      0.560595   245A      0.560597   246A      0.563742  
     247A      0.574204   248A      0.576743   249A      0.576839  
     250A      0.580040   251A      0.580165   252A      0.580301  
     253A      0.585220   254A      0.585521   255A      0.587432  
     256A      0.593045   257A      0.593132   258A      0.594661  
     259A      0.594685   260A      0.597252   261A      0.600360  
     262A      0.602864   263A      0.602907   264A      0.603700  
     265A      0.608419   266A      0.608956   267A      0.609062  
     268A      0.609912   269A      0.618669   270A      0.622834  
     271A      0.622898   272A      0.629738   273A      0.629773  
     274A      0.632890   275A      0.637379   276A      0.640933  
     277A      0.640994   278A      0.641745   279A      0.641786  
     280A      0.643682   281A      0.647997   282A      0.648045  
     283A      0.651637   284A      0.655844   285A      0.655880  
     286A      0.656668   287A      0.661776   288A      0.661800  
     289A      0.663348   290A      0.664207   291A      0.670009  
     292A      0.672292   293A      0.672318   294A      0.676781  
     295A      0.676881   296A      0.683125   297A      0.686733  
     298A      0.686798   299A      0.689851   300A      0.689875  
     301A      0.691689   302A      0.691722   303A      0.698165  
     304A      0.698223   305A      0.699906   306A      0.703997  
     307A      0.716489   308A      0.716574   309A      0.717568  
     310A      0.718138   311A      0.718175   312A      0.720620  
     313A      0.720643   314A      0.723406   315A      0.724300  
     316A      0.724310   317A      0.738668   318A      0.743969  
     319A      0.745949   320A      0.751868   321A      0.751920  
     322A      0.754047   323A      0.754083   324A      0.757833  
     325A      0.758562   326A      0.762675   327A      0.762703  
     328A      0.766866   329A      0.766975   330A      0.769304  
     331A      0.776310   332A      0.776341   333A      0.777581  
     334A      0.780632   335A      0.785869   336A      0.785944  
     337A      0.790740   338A      0.790784   339A      0.807197  
     340A      0.807233   341A      0.809356   342A      0.809422  
     343A      0.813094   344A      0.816976   345A      0.817007  
     346A      0.817538   347A      0.817633   348A      0.817691  
     349A      0.824484   350A      0.832375   351A      0.833802  
     352A      0.833835   353A      0.837721   354A      0.837799  
     355A      0.843230   356A      0.848740   357A      0.848759  
     358A      0.857186   359A      0.861325   360A      0.861431  
     361A      0.861496   362A      0.863500   363A      0.863622  
     364A      0.867445   365A      0.871083   366A      0.871382  
     367A      0.873001   368A      0.876451   369A      0.876477  
     370A      0.878942   371A      0.880226   372A      0.880249  
     373A      0.882282   374A      0.883854   375A      0.883919  
     376A      0.884817   377A      0.890693   378A      0.901276  
     379A      0.908404   380A      0.908411   381A      0.913977  
     382A      0.914059   383A      0.924523   384A      0.924543  
     385A      0.954877   386A      0.955274   387A      0.958661  
     388A      0.958684   389A      0.960266   390A      0.967653  
     391A      0.967882   392A      0.971619   393A      0.971718  
     394A      0.972111   395A      0.975002   396A      0.975046  
     397A      0.978918   398A      0.994642   399A      0.999174  
     400A      0.999391   401A      1.021847   402A      1.021859  
     403A      1.028847   404A      1.030264   405A      1.034366  
     406A      1.034403   407A      1.045984   408A      1.046016  
     409A      1.053982   410A      1.056605   411A      1.065182  
     412A      1.065194   413A      1.090646   414A      1.090918  
     415A      1.118211   416A      1.118244   417A      1.137194  
     418A      1.137218   419A      1.138123   420A      1.139879  
     421A      1.139904   422A      1.152372   423A      1.152400  
     424A      1.174733   425A      1.174946   426A      1.174965  
     427A      1.185121   428A      1.241573   429A      1.241747  
     430A      1.241803   431A      1.242736   432A      1.242876  
     433A      1.255965   434A      1.255974   435A      1.258619  
     436A      1.277939   437A      1.277982   438A      1.300323  
     439A      1.300327   440A      1.303293   441A      1.310187  
     442A      1.316468   443A      1.372838   444A      1.373049  
     445A      1.373234   446A      1.381251   447A      1.381295  
     448A      1.387270   449A      1.387315   450A      1.390200  
     451A      1.400218   452A      1.400296   453A      1.411524  
     454A      1.415916   455A      1.438865   456A      1.454134  
     457A      1.454200   458A      1.479379   459A      1.514162  
     460A      1.535015   461A      1.535340   462A      1.548948  
     463A      1.548971   464A      1.555840   465A      1.556123  
     466A      1.558414   467A      1.567403   468A      1.568258  
     469A      1.591208   470A      1.634751   471A      1.640079  
     472A      1.640117   473A      1.651029   474A      1.651082  
     475A      1.653788   476A      1.654433   477A      1.655504  
     478A      1.661562   479A      1.717854   480A      1.722571  
     481A      1.724089   482A      1.742199   483A      1.744206  
     484A      1.745849   485A      1.761041   486A      1.761646  
     487A      1.769637   488A      1.777273   489A      1.778106  
     490A      1.782981   491A      1.792098   492A      1.823004  
     493A      1.824072   494A      1.824829   495A      1.825262  
     496A      1.828315   497A      1.830232   498A      1.835639  
     499A      1.835875   500A      1.851822   501A      1.855823  
     502A      1.855898   503A      1.856229   504A      1.870671  
     505A      1.871743   506A      1.875712   507A      1.876434  
     508A      1.894901   509A      1.897633   510A      1.907400  
     511A      1.907855   512A      1.908321   513A      1.909747  
     514A      1.909975   515A      1.910561   516A      1.911746  
     517A      1.916553   518A      1.919971   519A      1.920058  
     520A      1.928874   521A      1.930738   522A      1.930794  
     523A      1.939393   524A      1.940263   525A      1.943158  
     526A      1.957206   527A      1.963289   528A      1.964223  
     529A      1.964346   530A      1.967099   531A      1.968950  
     532A      1.969741   533A      1.973199   534A      1.973433  
     535A      1.989326   536A      1.989629   537A      1.992602  
     538A      1.994533   539A      1.995269   540A      1.996849  
     541A      1.999404   542A      2.000064   543A      2.006147  
     544A      2.006440   545A      2.010731   546A      2.012017  
     547A      2.012509   548A      2.019378   549A      2.025053  
     550A      2.025143   551A      2.032730   552A      2.032854  
     553A      2.037920   554A      2.050519   555A      2.051693  
     556A      2.051866   557A      2.052150   558A      2.059583  
     559A      2.059819   560A      2.062547   561A      2.070600  
     562A      2.070683   563A      2.074882   564A      2.075033  
     565A      2.075854   566A      2.080764   567A      2.080861  
     568A      2.080893   569A      2.082837   570A      2.084932  
     571A      2.087969   572A      2.088028   573A      2.107625  
     574A      2.107737   575A      2.116719   576A      2.116854  
     577A      2.125207   578A      2.125334   579A      2.153585  
     580A      2.157653   581A      2.157675   582A      2.157760  
     583A      2.163147   584A      2.167790   585A      2.167825  
     586A      2.175015   587A      2.175322   588A      2.175572  
     589A      2.180036   590A      2.187753   591A      2.187924  
     592A      2.189439   593A      2.197021   594A      2.199196  
     595A      2.200368   596A      2.200381   597A      2.206709  
     598A      2.216492   599A      2.216539   600A      2.217243  
     601A      2.217278   602A      2.219553   603A      2.220664  
     604A      2.220701   605A      2.227249   606A      2.229397  
     607A      2.229416   608A      2.229602   609A      2.234004  
     610A      2.234050   611A      2.236434   612A      2.239683  
     613A      2.239750   614A      2.243030   615A      2.243059  
     616A      2.243565   617A      2.244335   618A      2.244628  
     619A      2.244701   620A      2.248840   621A      2.249795  
     622A      2.249799   623A      2.256778   624A      2.256783  
     625A      2.258448   626A      2.261073   627A      2.261282  
     628A      2.264343   629A      2.270880   630A      2.271093  
     631A      2.271984   632A      2.273425   633A      2.273448  
     634A      2.274497   635A      2.274580   636A      2.278223  
     637A      2.285355   638A      2.300915   639A      2.301066  
     640A      2.312271   641A      2.313853   642A      2.313967  
     643A      2.315442   644A      2.319169   645A      2.327627  
     646A      2.327673   647A      2.330735   648A      2.330776  
     649A      2.331609   650A      2.331712   651A      2.344072  
     652A      2.352283   653A      2.353870   654A      2.353910  
     655A      2.356274   656A      2.356376   657A      2.356471  
     658A      2.366428   659A      2.366474   660A      2.373863  
     661A      2.373938   662A      2.375638   663A      2.389214  
     664A      2.389266   665A      2.389531   666A      2.410171  
     667A      2.410292   668A      2.411378   669A      2.413352  
     670A      2.413394   671A      2.418261   672A      2.421076  
     673A      2.429224   674A      2.429228   675A      2.437021  
     676A      2.441709   677A      2.442128   678A      2.450654  
     679A      2.450682   680A      2.453792   681A      2.453822  
     682A      2.456200   683A      2.460019   684A      2.460030  
     685A      2.460820   686A      2.467162   687A      2.467292  
     688A      2.467377   689A      2.471714   690A      2.474648  
     691A      2.477958   692A      2.478027   693A      2.486986  
     694A      2.490022   695A      2.490095   696A      2.498684  
     697A      2.502796   698A      2.502855   699A      2.509082  
     700A      2.513341   701A      2.513417   702A      2.527472  
     703A      2.527510   704A      2.532949   705A      2.532997  
     706A      2.537908   707A      2.537956   708A      2.550500  
     709A      2.553420   710A      2.555643   711A      2.555709  
     712A      2.556681   713A      2.562596   714A      2.564612  
     715A      2.564900   716A      2.568240   717A      2.584783  
     718A      2.584819   719A      2.587180   720A      2.587215  
     721A      2.594655   722A      2.604041   723A      2.606933  
     724A      2.616100   725A      2.616186   726A      2.622705  
     727A      2.624382   728A      2.624711   729A      2.630336  
     730A      2.633322   731A      2.633433   732A      2.635753  
     733A      2.638460   734A      2.638843   735A      2.642844  
     736A      2.642968   737A      2.643291   738A      2.648314  
     739A      2.655580   740A      2.661771   741A      2.661827  
     742A      2.685920   743A      2.685985   744A      2.705167  
     745A      2.705834   746A      2.705891   747A      2.711911  
     748A      2.711934   749A      2.712956   750A      2.714569  
     751A      2.718458   752A      2.718719   753A      2.732504  
     754A      2.733603   755A      2.734002   756A      2.734328  
     757A      2.738606   758A      2.738815   759A      2.743364  
     760A      2.743460   761A      2.758549   762A      2.758625  
     763A      2.772473   764A      2.772494   765A      2.780835  
     766A      2.781011   767A      2.788676   768A      2.790244  
     769A      2.796137   770A      2.797705   771A      2.797840  
     772A      2.798904   773A      2.798972   774A      2.805237  
     775A      2.805291   776A      2.823554   777A      2.826699  
     778A      2.826822   779A      2.829242   780A      2.835683  
     781A      2.835941   782A      2.838824   783A      2.840639  
     784A      2.840716   785A      2.849829   786A      2.867195  
[...]
     712A      1.405576   713A      1.405601   714A      1.411377  
     715A      1.414343   716A      1.414369   717A      1.417603  
     718A      1.417646   719A      1.420165   720A      1.423334  
     721A      1.429648   722A      1.437028   723A      1.437063  
     724A      1.437545   725A      1.439885   726A      1.439930  
     727A      1.442650   728A      1.443513   729A      1.443523  
     730A      1.450587   731A      1.452097   732A      1.452099  
     733A      1.458889   734A      1.467602   735A      1.467677  
     736A      1.480033   737A      1.480109   738A      1.517768  
     739A      1.517790   740A      1.522078   741A      1.522106  
     742A      1.534004   743A      1.552413   744A      1.580297  
     745A      1.602002   746A      1.602527   747A      1.607756  
     748A      1.611334   749A      1.611529   750A      1.613153  
     751A      1.613485   752A      1.613710   753A      1.619469  
     754A      1.625449   755A      1.625509   756A      1.634781  
     757A      1.635043   758A      1.640909   759A      1.643139  
     760A      1.643157   761A      1.643638   762A      1.645455  
     763A      1.645667   764A      1.648408   765A      1.661535  
     766A      1.661581   767A      1.667828   768A      1.673581  
     769A      1.673629   770A      1.677134   771A      1.677537  
     772A      1.677579   773A      1.681150   774A      1.681217  
     775A      1.683651   776A      1.687034   777A      1.688177  
     778A      1.688219   779A      1.696159   780A      1.699208  
     781A      1.699235   782A      1.700622   783A      1.703390  
     784A      1.704932   785A      1.705000   786A      1.715942  
     787A      1.715961   788A      1.741778   789A      1.751609  
     790A      1.760779   791A      1.760835   792A      1.761136  
     793A      1.761784   794A      1.774876   795A      1.774979  
     796A      1.778757   797A      1.778869   798A      1.779074  
     799A      1.793048   800A      1.793073   801A      1.816925  
     802A      1.816967   803A      1.817987   804A      1.824957  
     805A      1.825054   806A      1.831771   807A      1.831845  
     808A      1.838854   809A      1.842481   810A      1.844208  
     811A      1.850184   812A      1.861558   813A      1.861578  
     814A      1.864358   815A      1.868389   816A      1.869085  
     817A      1.869117   818A      1.873601   819A      1.880947  
     820A      1.880977   821A      1.897193   822A      1.897272  
     823A      1.903534   824A      1.905323   825A      1.905499  
     826A      1.909031   827A      1.909130   828A      1.917466  
     829A      1.917588   830A      1.918143   831A      1.918215  
     832A      1.919339   833A      1.922888   834A      1.922964  
     835A      1.940316   836A      1.940546   837A      1.942618  
     838A      1.943361   839A      1.943526   840A      1.946939  
     841A      1.946953   842A      1.955435   843A      1.955546  
     844A      1.957868   845A      1.957923   846A      1.958134  
     847A      1.979672   848A      1.984388   849A      1.984515  
     850A      1.997207   851A      1.998785   852A      1.998806  
     853A      2.006216   854A      2.008580   855A      2.009729  
     856A      2.013045   857A      2.013237   858A      2.027996  
     859A      2.030668   860A      2.030848   861A      2.031247  
     862A      2.033338   863A      2.033435   864A      2.040770  
     865A      2.048425   866A      2.052955   867A      2.053202  
     868A      2.059113   869A      2.060021   870A      2.063753  
     871A      2.063782   872A      2.069209   873A      2.073924  
     874A      2.074202   875A      2.078336   876A      2.078474  
     877A      2.078547   878A      2.088481   879A      2.090254  
     880A      2.090372   881A      2.093634   882A      2.096042  
     883A      2.096941   884A      2.099958   885A      2.101204  
     886A      2.101268   887A      2.108969   888A      2.108983  
     889A      2.111101   890A      2.112515   891A      2.112567  
     892A      2.118119   893A      2.120035   894A      2.120174  
     895A      2.122222   896A      2.122287   897A      2.128350  
     898A      2.128497   899A      2.128900   900A      2.134685  
     901A      2.136195   902A      2.136267   903A      2.139439  
     904A      2.143507   905A      2.143546   906A      2.157699  
     907A      2.161110   908A      2.161178   909A      2.163963  
     910A      2.164018   911A      2.172394   912A      2.178658  
     913A      2.178741   914A      2.192085   915A      2.192309  
     916A      2.192623   917A      2.195441   918A      2.196049  
     919A      2.196163   920A      2.201895   921A      2.219804  
     922A      2.220524   923A      2.220557   924A      2.228214  
     925A      2.229868   926A      2.233665   927A      2.233737  
     928A      2.243603   929A      2.243889   930A      2.245731  
     931A      2.245916   932A      2.247571   933A      2.260458  
     934A      2.260570   935A      2.270374   936A      2.270385  
     937A      2.272574   938A      2.272609   939A      2.281118  
     940A      2.300285   941A      2.306755   942A      2.314352  
     943A      2.315602   944A      2.325256   945A      2.331697  
     946A      2.331795   947A      2.335982   948A      2.338190  
     949A      2.346410   950A      2.351114   951A      2.351761  
     952A      2.353589   953A      2.353944   954A      2.369072  
     955A      2.369304   956A      2.374860   957A      2.388825  
     958A      2.416294   959A      2.424101   960A      2.424536  
     961A      2.424561   962A      2.436541   963A      2.441590  
     964A      2.441645   965A      2.470148   966A      2.474183  
     967A      2.474330   968A      2.487114   969A      2.487171  
     970A      2.502397   971A      2.522812   972A      2.530340  
     973A      2.538172   974A      2.546427   975A      2.546612  
     976A      2.546642   977A      2.554464   978A      2.554529  
     979A      2.555003   980A      2.560275   981A      2.560284  
     982A      2.573101   983A      2.573136   984A      2.576181  
     985A      2.576628   986A      2.586419   987A      2.586535  
     988A      2.588394   989A      2.590279   990A      2.591478  
     991A      2.607172   992A      2.624465   993A      2.624541  
     994A      2.628286   995A      2.632222   996A      2.632686  
     997A      2.641873   998A      2.641937   999A      2.652639  
    1000A      2.652948  1001A      2.656924  1002A      2.683432  
    1003A      2.684096  1004A      2.684587  1005A      2.694073  
    1006A      2.702527  1007A      2.702823  1008A      2.713198  
    1009A      2.713208  1010A      2.718987  1011A      2.719004  
    1012A      2.723514  1013A      2.723713  1014A      2.733391  
    1015A      2.753934  1016A      2.754360  1017A      2.777893  
    1018A      2.795271  1019A      2.795383  1020A      2.822675  
    1021A      2.827229  1022A      2.828755  1023A      2.834290  
    1024A      2.834837  1025A      2.854196  1026A      2.854334  
    1027A      2.856035  1028A      2.858514  1029A      2.859761  
    1030A      2.860437  1031A      2.860493  1032A      2.918120  
    1033A      2.918153  1034A      2.919179  1035A      2.931621  
    1036A      2.935290  1037A      2.935340  1038A      2.952709  
    1039A      2.952812  1040A      2.963432  1041A      3.010794  
    1042A      3.010865  1043A      3.011981  1044A      3.042891  
    1045A      3.064601  1046A      3.064620  1047A      3.072048  
    1048A      3.072129  1049A      3.114473  1050A      3.115134  
    1051A      3.130375  1052A      3.131242  1053A      3.131497  
    1054A      3.137552  1055A      3.147466  1056A      3.147527  
    1057A      3.147563  1058A      3.149873  1059A      3.149895  
    1060A      3.160288  1061A      3.160627  1062A      3.166292  
    1063A      3.166841  1064A      3.191913  1065A      3.211204  
    1066A      3.219801  1067A      3.244868  1068A      3.277215  
    1069A      3.277402  1070A      3.278668  1071A      3.286258  
    1072A      3.286464  1073A      3.418125  1074A      3.418554  
    1075A      3.447670  1076A      3.482706  1077A      3.485277  
    1078A      3.551198  1079A      3.583262  1080A      3.585313  
    1081A      3.594077  1082A      3.627190  1083A      3.629131  
    1084A      3.664245  1085A      3.673846  1086A      3.769367  
    1087A      3.786284  1088A      3.787314  1089A      3.871000  
    1090A      3.871010  1091A      3.914092  1092A      3.914159  
    1093A      3.977076  1094A      4.011242  1095A      4.039352  
    1096A      4.050983  1097A      4.093718  1098A      4.238045  
    1099A      4.238119  1100A      4.309656  1101A      4.423826  
    1102A      5.751348  1103A      5.755584  1104A      5.755604  
    1105A      5.761975  1106A      5.761985  1107A      5.762132  
    1108A      5.767524  1109A      5.767531  1110A      5.790781  
    1111A      5.790807  1112A      5.806502  1113A      6.023098  
    1114A      6.025699  1115A      6.026030  1116A      6.200012  
    1117A      6.331760  1118A      6.332090  1119A      6.383029  
    1120A      6.383325  1121A      6.383417  1122A      7.241194  
    1123A      7.241284  1124A      7.262713  1125A      7.273549  
    1126A      7.305592  1127A      7.305752  1128A      7.392018  
    1129A      7.392130  1130A      7.508269  1131A      7.508562  
    1132A      7.609432  1133A      7.779957  1134A     12.637187  
    1135A     42.920643  1136A     42.920717  1137A     42.935539  
    1138A     42.959824  

    Final Occupation by Irrep:
              A 
    DOCC [   171 ]
    NA   [   171 ]
    NB   [   171 ]

  @DF-RHF Final Energy: -2055.89296434216294

   => Energetics <=

    Nuclear Repulsion Energy =           6452.5568002797772351
    One-Electron Energy =              -15636.4633784914985881
    Two-Electron Energy =                7128.0136138695579575
    Total Energy =                      -2055.8929643421633955

Computation Completed


Properties will be evaluated at   0.000000,   0.000000,   0.000000 [a0]

Properties computed using the SCF density matrix


 Multipole Moments:

 ------------------------------------------------------------------------------------
     Multipole            Electronic (a.u.)      Nuclear  (a.u.)        Total (a.u.)
 ------------------------------------------------------------------------------------

 L = 1.  Multiply by 2.5417464519 to convert [e a0] to [Debye]
 Dipole X            :          0.0000311            0.0000419            0.0000730
 Dipole Y            :          0.0000467           -0.0000426            0.0000041
 Dipole Z            :       -343.4282552          343.4303868            0.0021316
 Magnitude           :                                                    0.0021328

 ------------------------------------------------------------------------------------

*** tstop() called on d-6-7-1 at Sat Jan 20 22:27:36 2024
Module time:
	user time   =    2690.20 seconds =      44.84 minutes
	system time =     105.14 seconds =       1.75 minutes
	total time  =        307 seconds =       5.12 minutes
Total time:
	user time   =    7076.58 seconds =     117.94 minutes
	system time =     197.26 seconds =       3.29 minutes
	total time  =        782 seconds =      13.03 minutes
  Constructing Basis Sets for SAPT...

   => Loading Basis Set <=

    Name: (JUN-CC-PVDZ AUX)
    Role: RIFIT
    Keyword: DF_BASIS_SAPT
    atoms 1     entry B          line    56 file /home/gridsan/tfroembgen/.conda/envs/psi4test/share/psi4/basis/jun-cc-pvdz-ri.gbs 
    atoms 2-5   entry F          line   232 file /home/gridsan/tfroembgen/.conda/envs/psi4test/share/psi4/basis/jun-cc-pvdz-ri.gbs 
    atoms 6-59  entry C          line   100 file /home/gridsan/tfroembgen/.conda/envs/psi4test/share/psi4/basis/jun-cc-pvdz-ri.gbs 
    atoms 60-77 entry H          line    30 file /home/gridsan/tfroembgen/.conda/envs/psi4test/share/psi4/basis/jun-cc-pvdz-ri.gbs 

   => Loading Basis Set <=

    Name: (JUN-CC-PVDZ AUX)
    Role: JKFIT
    Keyword: DF_BASIS_ELST
    atoms 1     entry B          line    90 file /home/gridsan/tfroembgen/.conda/envs/psi4test/share/psi4/basis/jun-cc-pvdz-jkfit.gbs 
    atoms 2-5   entry F          line   314 file /home/gridsan/tfroembgen/.conda/envs/psi4test/share/psi4/basis/jun-cc-pvdz-jkfit.gbs 
    atoms 6-59  entry C          line   146 file /home/gridsan/tfroembgen/.conda/envs/psi4test/share/psi4/basis/jun-cc-pvdz-jkfit.gbs 
    atoms 60-77 entry H          line    70 file /home/gridsan/tfroembgen/.conda/envs/psi4test/share/psi4/basis/jun-cc-pvdz-jkfit.gbs 


  //>>>>>>>>>>>>>>>>>>>>>>>>>>>>>>>>>>>//
  //               SSAPT0              //
  //<<<<<<<<<<<<<<<<<<<<<<<<<<<<<<<<<<<//


*** tstart() called on d-6-7-1
*** at Sat Jan 20 22:27:37 2024

        SAPT0  
    Ed Hohenstein
     6 June 2009

      Orbital Information
  --------------------------
    NSO        =      1152
    NMO        =      1138
    NRI        =      4087
    NRI (Elst) =      5075
    NOCC A     =        21
    NOCC B     =       171
    FOCC A     =         5
    FOCC B     =        54
    NVIR A     =      1117
    NVIR B     =       967

    Elst10,r            =     0.011223661860 [Eh]
    Exch10              =     0.001845874781 [Eh]
    Exch10 (S^2)        =     0.001846114830 [Eh]

    Iter     Energy [mEh]          dE [mEh]         Residual      Time [s]
       1      -0.14927741       0.149277412       1.792256646           457
       2      -0.17836035       0.029082933       0.733265599           948
       3      -0.18197458       0.003614233       0.096724825          1040
       4      -0.18164232      -0.000332261       0.027372230          1054
       5      -0.18162777      -0.000014548       0.007318319          1069
       6      -0.18163933       0.000011559       0.002171249          1084
       7      -0.18164233       0.000002998       0.000450633          1098
       8      -0.18164165      -0.000000672       0.000120818          1113
       9      -0.18164155      -0.000000109       0.000020785          1126
      10      -0.18164159       0.000000043       0.000002957          1211
      11      -0.18164158      -0.000000003       0.000000685          1233

    CHF Iterations converged


    Iter     Energy [mEh]          dE [mEh]         Residual      Time [s]
       1     -13.37427197      13.374271966      61.106071035           335
       2      -9.03143879      -4.342833177       7.952730075           485
       3      -9.01117740      -0.020261392       2.659338725           509
       4      -9.20690733       0.195729935       0.666324273           529
       5      -9.21965020       0.012742865       0.203572472           549
       6      -9.21324605      -0.006404148       0.093396051           568
       7      -9.21228450      -0.000961545       0.040861610           588
       8      -9.21319813       0.000913623       0.018127456           608
       9      -9.21339686       0.000198736       0.011348462           626
      10      -9.21321853      -0.000178333       0.008389529           644
      11      -9.21318319      -0.000035340       0.003550956           662
      12      -9.21321703       0.000033838       0.001568487           680
      13      -9.21323100       0.000013977       0.000582189           697
      14      -9.21322876      -0.000002246       0.000216291           713
      15      -9.21322575      -0.000003006       0.000076365           729
      16      -9.21322645       0.000000695       0.000036464           744
      17      -9.21322671       0.000000267       0.000015547           760
      18      -9.21322668      -0.000000034       0.000005916           779
      19      -9.21322661      -0.000000071       0.000002067           798
      20      -9.21322661      -0.000000001       0.000000814           818

    CHF Iterations converged

    Ind20,r (A<-B)      =    -0.000181641585 [Eh]
    Ind20,r (B<-A)      =    -0.009213226608 [Eh]
    Ind20,r             =    -0.009394868193 [Eh]
    Exch-Ind20,r (A<-B) =     0.000158251398 [Eh]
    Exch-Ind20,r (B<-A) =     0.000193236447 [Eh]
    Exch-Ind20,r        =     0.000351487845 [Eh]
    Disp20              =    -0.004438697481 [Eh]
    Disp20 (SS)         =    -0.002219348740 [Eh]
    Disp20 (OS)         =    -0.002219348740 [Eh]
    Exch-Disp20         =     0.000290982558 [Eh]
    Exch-Disp20 (SS)    =     0.000175198550 [Eh]
    Exch-Disp20 (OS)    =     0.000115784008 [Eh]

    SAPT Results 
  --------------------------------------------------------------------------------------------------------
    Electrostatics                 11.22366186 [mEh]       7.04295415 [kcal/mol]      29.46772015 [kJ/mol]
      Elst10,r                     11.22366186 [mEh]       7.04295415 [kcal/mol]      29.46772015 [kJ/mol]

    Exchange                        1.84587478 [mEh]       1.15830391 [kcal/mol]       4.84634357 [kJ/mol]
      Exch10                        1.84587478 [mEh]       1.15830391 [kcal/mol]       4.84634357 [kJ/mol]
      Exch10(S^2)                   1.84611483 [mEh]       1.15845455 [kcal/mol]       4.84697382 [kJ/mol]

    Induction                      -9.07799556 [mEh]      -5.69652821 [kcal/mol]     -23.83427405 [kJ/mol]
      Ind20,r                      -9.39486819 [mEh]      -5.89536880 [kcal/mol]     -24.66622304 [kJ/mol]
      Exch-Ind20,r                  0.35148785 [mEh]       0.22056195 [kcal/mol]       0.92283121 [kJ/mol]
      delta HF,r (2)               -0.03461521 [mEh]      -0.02172137 [kcal/mol]      -0.09088222 [kJ/mol]

    Dispersion                     -4.14771492 [mEh]      -2.60273041 [kcal/mol]     -10.88982403 [kJ/mol]
      Disp20                       -4.43869748 [mEh]      -2.78532472 [kcal/mol]     -11.65379863 [kJ/mol]
      Exch-Disp20                   0.29098256 [mEh]       0.18259431 [kcal/mol]       0.76397460 [kJ/mol]
      Disp20 (SS)                  -2.21934874 [mEh]      -1.39266236 [kcal/mol]      -5.82689932 [kJ/mol]
      Disp20 (OS)                  -2.21934874 [mEh]      -1.39266236 [kcal/mol]      -5.82689932 [kJ/mol]
      Exch-Disp20 (SS)              0.17519855 [mEh]       0.10993875 [kcal/mol]       0.45998373 [kJ/mol]
      Exch-Disp20 (OS)              0.11578401 [mEh]       0.07265556 [kcal/mol]       0.30399087 [kJ/mol]

  Total HF                          3.99154108 [mEh]       2.50472985 [kcal/mol]      10.47978967 [kJ/mol]
  Total SAPT0                      -0.15617384 [mEh]      -0.09800056 [kcal/mol]      -0.41003435 [kJ/mol]

  Special recipe for scaled SAPT0 (see Manual):
    Electrostatics sSAPT0          11.22366186 [mEh]       7.04295415 [kcal/mol]      29.46772015 [kJ/mol]
    Exchange sSAPT0                 1.84587478 [mEh]       1.15830391 [kcal/mol]       4.84634357 [kJ/mol]
    Induction sSAPT0               -9.07813265 [mEh]      -5.69661424 [kcal/mol]     -23.83463399 [kJ/mol]
    Dispersion sSAPT0              -4.14782842 [mEh]      -2.60280163 [kcal/mol]     -10.89012201 [kJ/mol]
  Total sSAPT0                     -0.15642443 [mEh]      -0.09815781 [kcal/mol]      -0.41069227 [kJ/mol]
  --------------------------------------------------------------------------------------------------------

*** tstop() called on d-6-7-1 at Sat Jan 20 23:34:36 2024
Module time:
	user time   =    6798.13 seconds =     113.30 minutes
	system time =     725.37 seconds =      12.09 minutes
	total time  =       4019 seconds =      66.98 minutes
Total time:
	user time   =   13876.36 seconds =     231.27 minutes
	system time =     922.66 seconds =      15.38 minutes
	total time  =       4802 seconds =      80.03 minutes

    Psi4 stopped on: Saturday, 20 January 2024 11:34PM
    Psi4 wall time for execution: 1:20:03.69

*** Psi4 exiting successfully. Buy a developer a beer!
