LAMMPS data file via write_data, version 2 Aug 2023, timestep = 3010000, units = real

6893 atoms
17 atom types
7872 bonds
15 bond types
11373 angles
12 angle types
18657 dihedrals
17 dihedral types
2240 impropers
1 improper types

0 34.08 xlo xhi
0 34.433 ylo yhi
0 200 zlo zhi

Masses

1 12.011
2 12.011
3 10.411
4 18.598
5 13.607
6 11.611
7 11.611
8 11.611
9 1.008
10 1.008
11 1.008
12 0.4
13 0.4
14 0.4
15 0.4
16 0.4
17 0.4

Bond Coeffs # harmonic

1 350 1.42
2 386.592 1.394
3 477.055 1.315
4 427.103 1.378
5 520.076 1.341
6 336.998 1.466
7 339.986 1.08
8 339.986 1.08
9 339.986 1.09
10 500 0
11 500 0
12 500 0
13 500 0
14 500 0
15 500 0

Angle Coeffs

   1    cosine/squared 66.665   120.000000  # C-C-C
   2    harmonic       80.007170   109.500000  # F-B-F
   3    harmonic       70.004780   126.400000  # CR-NA-CT
   4    harmonic       70.004780   108.000000  # CW-NA-CR
   5    harmonic       70.004780   125.600000  # CW-NA-CT
   6    harmonic       70.004780   109.800000  # NA-CR-NA
   7    harmonic       35.002390   125.100000  # NA-CR-HA
   8    harmonic       70.004780   107.100000  # NA-CW-CW
   9    harmonic       35.002390   122.000000  # NA-CW-HA
  10    harmonic       35.002390   130.900000  # CW-CW-HA
  11    harmonic       37.500000   110.700000  # NA-CT-HC
  12    harmonic       32.994742   107.800000  # HC-CT-HC

Dihedral Coeffs

   1    harmonic      3.125000    -1            2                      # C-C-C-C
   2    opls          0.000000     4.651052     0.000000     0.000000  # CT-NA-CR-NA
   3    opls          0.000000     4.651052     0.000000     0.000000  # CW-NA-CR-NA
   4    opls          0.000000     4.651052     0.000000     0.000000  # CT-NA-CR-HA
   5    opls          0.000000     4.651052     0.000000     0.000000  # CW-NA-CR-HA
   6    opls          0.000000     3.000000     0.000000     0.000000  # CR-NA-CW-CW
   7    opls          0.000000     3.000000     0.000000     0.000000  # CT-NA-CW-CW
   8    opls          0.000000     3.000000     0.000000     0.000000  # CR-NA-CW-HA
   9    opls          0.000000     3.000000     0.000000     0.000000  # CT-NA-CW-HA
  10    opls          0.000000    10.750478     0.000000     0.000000  # NA-CW-CW-HA
  11    opls          0.000000    10.750478     0.000000     0.000000  # HA-CW-CW-HA
  12    opls          0.000000    10.750478     0.000000     0.000000  # NA-CW-CW-NA
  13    opls          0.000000     0.000000     0.000000     0.000000  # CR-NA-CT-HC
  14    opls          0.000000     0.000000     0.124044     0.000000  # CW-NA-CT-HC
  15    opls          0.000000     2.000000     0.000000     0.000000  # CR-CW-NA-CT
  16    opls          0.000000     2.200000     0.000000     0.000000  # NA-NA-CR-HA
  17    opls          0.000000     2.200000     0.000000     0.000000  # NA-CW-CW-HA

Improper Coeffs # umbrella

1 40 0

Atoms # full

1 1 1 0 0.71 0 0 0 0 0
2 1 1 0 2.13 0 0 0 0 0
3 1 1 0 0 1.23 0 0 0 0
4 1 1 0 2.84 1.23 0 0 0 0
5 1 1 0 4.97 0 0 0 0 0
6 1 1 0 6.39 0 0 0 0 0
7 1 1 0 4.26 1.23 0 0 0 0
8 1 1 0 7.1 1.23 0 0 0 0
33 1 1 0 0.71 2.46 0 0 0 0
34 1 1 0 2.13 2.46 0 0 0 0
35 1 1 0 0 3.689 0 0 0 0
36 1 1 0 2.84 3.689 0 0 0 0
37 1 1 0 4.97 2.46 0 0 0 0
38 1 1 0 6.39 2.46 0 0 0 0
39 1 1 0 4.26 3.689 0 0 0 0
40 1 1 0 7.1 3.689 0 0 0 0
65 1 1 0 0.71 4.919 0 0 0 0
66 1 1 0 2.13 4.919 0 0 0 0
67 1 1 0 0 6.149 0 0 0 0
68 1 1 0 2.84 6.149 0 0 0 0
69 1 1 0 4.97 4.919 0 0 0 0
70 1 1 0 6.39 4.919 0 0 0 0
71 1 1 0 4.26 6.149 0 0 0 0
72 1 1 0 7.1 6.149 0 0 0 0
97 1 1 0 0.71 7.379 0 0 0 0
98 1 1 0 2.13 7.379 0 0 0 0
99 1 1 0 0 8.608 0 0 0 0
100 1 1 0 2.84 8.608 0 0 0 0
101 1 1 0 4.97 7.379 0 0 0 0
102 1 1 0 6.39 7.379 0 0 0 0
103 1 1 0 4.26 8.608 0 0 0 0
104 1 1 0 7.1 8.608 0 0 0 0
449 1 1 0 2.13 0 3.35 0 0 0
450 1 1 0 3.55 0 3.35 0 0 0
451 1 1 0 1.42 1.23 3.35 0 0 0
452 1 1 0 4.26 1.23 3.35 0 0 0
453 1 1 0 6.39 0 3.35 0 0 0
454 1 1 0 7.81 0 3.35 0 0 0
455 1 1 0 5.68 1.23 3.35 0 0 0
480 1 1 0 0 1.23 3.35 1 0 0
481 1 1 0 2.13 2.46 3.35 0 0 0
482 1 1 0 3.55 2.46 3.35 0 0 0
483 1 1 0 1.42 3.689 3.35 0 0 0
484 1 1 0 4.26 3.689 3.35 0 0 0
485 1 1 0 6.39 2.46 3.35 0 0 0
486 1 1 0 7.81 2.46 3.35 0 0 0
487 1 1 0 5.68 3.689 3.35 0 0 0
512 1 1 0 0 3.689 3.35 1 0 0
513 1 1 0 2.13 4.919 3.35 0 0 0
514 1 1 0 3.55 4.919 3.35 0 0 0
515 1 1 0 1.42 6.149 3.35 0 0 0
516 1 1 0 4.26 6.149 3.35 0 0 0
517 1 1 0 6.39 4.919 3.35 0 0 0
518 1 1 0 7.81 4.919 3.35 0 0 0
519 1 1 0 5.68 6.149 3.35 0 0 0
544 1 1 0 0 6.149 3.35 1 0 0
545 1 1 0 2.13 7.379 3.35 0 0 0
546 1 1 0 3.55 7.379 3.35 0 0 0
547 1 1 0 1.42 8.608 3.35 0 0 0
548 1 1 0 4.26 8.608 3.35 0 0 0
549 1 1 0 6.39 7.379 3.35 0 0 0
550 1 1 0 7.81 7.379 3.35 0 0 0
551 1 1 0 5.68 8.608 3.35 0 0 0
576 1 1 0 0 8.608 3.35 1 0 0
900 1 2 0 2.8927948346999655 1.1601642281139037 6.6773121792556935 0 0 0
903 1 2 0 4.303817182862087 1.162791272526557 6.5535707917624455 0 0 0
904 1 2 0 7.078556711385175 1.2165152249680211 6.787471963455326 0 0 0
929 1 2 0 0.7166903449723996 2.459128539892879 6.7358004223593655 0 0 0
930 1 2 0 2.1401198157854044 2.4069872858229395 6.70675386342747 0 0 0
932 1 2 0 2.8565332880782974 3.604305820099515 6.787241486206709 0 0 0
933 1 2 0 4.983942798437262 2.383334572992454 6.654709811080143 0 0 0
934 1 2 0 6.440138727964339 2.4076654254600616 6.725351401340956 0 0 0
935 1 2 0 4.223621616206093 3.620179894507302 6.722858233585724 0 0 0
936 1 2 0 7.130565475625556 3.708438536419803 6.7771957070457525 0 0 0
961 1 2 0 0.7571122991669514 4.919741989852138 6.748288569487215 0 0 0
962 1 2 0 2.172393902768933 4.862612589072968 6.80004179296588 0 0 0
964 1 2 0 2.861236916074302 6.105103198632353 6.821638251854846 0 0 0
965 1 2 0 4.983119990959724 4.842125379990238 6.749536985978495 0 0 0
966 1 2 0 6.363615974871138 4.8996315320019965 6.858814645266187 0 0 0
967 1 2 0 4.243918602723535 6.1099055978589965 6.759076692218095 0 0 0
968 1 2 0 7.009811725741502 6.098369430158665 6.817698252624624 0 0 0
993 1 2 0 0.6753500558004815 7.352375659297754 6.778822853876093 0 0 0
994 1 2 0 2.147741525047977 7.328117283573773 6.755481743092141 0 0 0
997 1 2 0 4.913236789126837 7.336732299794528 6.6852508336223675 0 0 0
998 1 2 0 6.327912185642757 7.3284944259397005 6.709101002379202 0 0 0
1347 1 2 0 1.2903955144343093 1.1220599813647414 9.938224848812634 0 0 0
1348 1 2 0 4.093713090294063 1.1620413976646653 10.0076610305939 0 0 0
1351 1 2 0 5.5009384500742335 1.1876084486479712 10.022916582122063 0 0 0
1377 1 2 0 1.9662970371117239 2.328211760064653 9.979160979138289 0 0 0
1378 1 2 0 3.374877901461273 2.3545913935298914 9.931016598979928 0 0 0
1379 1 2 0 1.3177012625152176 3.59765163077167 10.10135567494716 0 0 0
1380 1 2 0 4.128606695072703 3.5877985579274143 10.02998326419065 0 0 0
1381 1 2 0 6.215511022371422 2.384968542706866 10.07023309173246 0 0 0
1383 1 2 0 5.56404070740291 3.58769400766295 10.077141938157153 0 0 0
1409 1 2 0 2.057487181359569 4.881470582437345 10.174142469402458 0 0 0
1410 1 2 0 3.4083326155657128 4.891243562466934 10.105022748850763 0 0 0
1411 1 2 0 1.3177651706186437 6.087681379049978 10.19820077286748 0 0 0
1412 1 2 0 4.114458514826521 6.087005376172616 10.140474004373933 0 0 0
1413 1 2 0 6.259203941960368 4.884676116006097 10.078093546431615 0 0 0
1415 1 2 0 5.4954918242521025 6.126809501521052 10.171029229905768 0 0 0
1441 1 2 0 2.032120413318838 7.327632849759011 10.124778250060677 0 0 0
1442 1 2 0 3.4316382199240585 7.389716035716301 10.172670455990701 0 0 0
1445 1 2 0 6.24758381049697 7.26616341066237 10.218651529465243 0 0 0
1796 1 2 0 2.9617945141970066 1.3269385532715716 13.336258799598738 0 0 0
1799 1 2 0 4.350316818039352 1.2495675308118663 13.3826596201958 0 0 0
1800 1 2 0 7.102445991744067 1.3003394884017765 13.505489948891384 0 0 0
1826 1 2 0 2.198577303329718 2.5317595672707345 13.384327710950846 0 0 0
1828 1 2 0 2.826434639931257 3.752393452620488 13.546997342980259 0 0 0
1829 1 2 0 4.968508120602194 2.5634614279102506 13.491631966836424 0 0 0
1830 1 2 0 6.323406322483379 2.533443482741338 13.551177576271506 0 0 0
1831 1 2 0 4.259320148218222 3.775084925936 13.464368952197496 0 0 0
1832 1 2 0 6.9920530685714 3.802046707640147 13.652542651118658 0 0 0
1858 1 2 0 2.137716795978188 5.00190235338483 13.574551318192421 0 0 0
1860 1 2 0 2.85656049155465 6.258217082032458 13.65322831635401 0 0 0
1861 1 2 0 4.88625454960738 5.014096402357758 13.556495551349206 0 0 0
1862 1 2 0 6.302011549536696 5.026462625592646 13.589660700554717 0 0 0
1863 1 2 0 4.260767313819533 6.238520288035457 13.69988094587961 0 0 0
1864 1 2 0 7.018926741860192 6.229888106394447 13.6888520994469 0 0 0
1890 1 2 0 2.16838684932443 7.520875217255638 13.741709799814922 0 0 0
1893 1 2 0 4.948732650454642 7.469543701838778 13.695570162894631 0 0 0
1894 1 2 0 6.3272677709241 7.455405072641611 13.726103657974376 0 0 0
1382 1 2 0 7.677889342367378 2.4489830275900126 10.17409292165373 0 0 0
1414 1 2 0 7.698043482657689 4.901255814633054 10.06796561417347 0 0 0
1446 1 2 0 7.736769917568181 7.301653070790611 10.166520918894221 0 0 0
1825 1 2 0 0.7486112288341109 2.5711865259259237 13.355492034364463 0 0 0
1889 1 2 0 0.7372348613200892 7.399508380145176 13.73753851062238 0 0 0
1857 1 2 0 0.7093719400496304 4.955727958459201 13.43199886003351 0 0 0
1867 1 2 0 8.452421228923598 6.1801871000745185 13.741055864421996 0 0 0
6090 169 15 -2.086039 5.713444914298861 1.7884624359942232 16.613375374035822 0 1 0
1577 1 2 0 10.59913307527874 17.176699435369898 10.134081996181559 0 0 0
1803 1 2 0 8.548108650023693 1.3376887585206116 13.572496620616937 0 0 0
1835 1 2 0 8.475374057177445 3.738816672638027 13.526686308613549 0 0 0
5423 46 13 -1.371919 0.30317325302912435 1.032297070989294 16.055971821003475 0 0 0
1895 1 2 0 4.2879786440447125 8.727842464161503 13.703753512656116 0 0 0
6498 227 16 -2.086039 13.589230256693735 12.635604386317997 16.381407898280916 0 0 0
4298 227 10 0.21 12.723027179623038 13.176066224560897 16.030631671649253 0 0 0
979 1 2 0 16.963045176222398 6.171247563675088 6.724558560013932 0 0 0
1011 1 2 0 16.967394396648725 8.664236412367027 6.78971256370268 0 0 0
939 1 2 0 8.563862430217547 3.69879784835828 6.841676086147959 0 0 0
3377 169 11 0.13 2.488913716872958 2.6711522045313116 16.57409541239668 0 1 0
2462 46 4 0.881919 0.29773241772615056 1.0266761033323168 16.04053307702569 0 0 0
1892 1 2 0 2.829885272235111 8.715250819728823 13.659589367347827 0 0 0
5438 49 13 -1.371919 3.147430077968991 11.5691042730926 16.442687794098866 0 0 0
1896 1 2 0 7.054882027707618 8.68377382604467 13.645620477722707 0 0 0
1899 1 2 0 8.503477902999025 8.613388669051378 13.67473574238348 0 0 0
4306 228 5 2.057313 12.369733380770143 1.7709570600162776 16.617600544735478 0 0 0
1798 1 2 0 6.359559985654226 0.10801154890093369 13.462599840242463 0 0 0
5569 75 13 -1.371919 10.437136546632697 13.482915533839599 16.598013623861593 0 0 0
4555 243 10 0.21 9.6448606335065 8.620443939767698 16.2361023292752 0 0 0
1125 1 2 0 4.872084946522389 17.16865717692778 6.79396464771101 0 0 0
3368 169 9 0.21 6.353586865156611 2.663447024041005 16.563723176256005 0 1 0
4299 227 10 0.21 13.272726661920963 10.551286478491061 15.86863059798311 0 0 0
1582 1 2 0 16.247270827882154 17.161971829705777 10.119892058298735 0 0 0
5315 24 13 -1.371919 8.428176208669099 3.6207844820788093 16.439645553114648 0 0 0
1133 1 2 0 13.486783341865303 17.16736128068282 6.657225973903174 0 0 0
4309 228 7 1.956039 13.963496063852562 3.3120143855749338 16.45601501284299 0 0 0
1514 1 2 0 11.978272931911741 12.193209314961889 10.211539703612136 0 0 0
2608 75 4 0.881919 10.436541530445137 13.481519412213757 16.59024889752833 0 0 0
1581 1 2 0 14.812461101179931 17.18143371899289 10.09246875202052 0 0 0
907 1 2 0 8.555910813660587 1.1973259524152773 6.760226305725308 0 0 0
1072 1 2 0 15.580431754673963 13.476015999410201 6.76975625061838 0 0 0
6499 227 16 -2.086039 13.83221374630648 11.347260821241996 16.346513845436466 0 0 0
4314 228 10 0.21 14.841821965347203 3.897024269592868 16.226435268498243 0 0 0
203 1 1 0 8.52 15.987 0 0 0 0
6610 243 16 -2.086039 7.6340056669179335 7.712340232624024 16.595875049816293 0 0 0
4549 243 7 1.956039 7.644146906830123 7.705792190979765 16.596840580236087 0 0 0
654 1 1 0 16.33 14.757 3.35 0 0 0
1416 1 2 0 8.419415289773733 6.125634876415831 10.104077444747096 0 0 0
1384 1 2 0 8.367032750410637 3.685879108357044 10.06975390864941 0 0 0
4550 243 7 1.956039 8.597615033449278 8.645523471239647 16.49887039383164 0 0 0
1352 1 2 0 8.340582265609683 1.124673972916896 10.17097218899035 0 0 0
1033 1 2 0 9.125039625781508 9.823385954926145 6.871898952226834 0 0 0
4310 228 7 1.956039 13.756495788250017 1.9807057653316977 16.458817428870052 0 0 0
971 1 2 0 8.433931010904114 6.1488294575687075 6.847901989939405 0 0 0
1833 1 2 0 9.205897886107653 2.5743424302183056 13.569288752376265 0 0 0
1865 1 2 0 9.212623794155702 4.960447470336558 13.482913580160922 0 0 0
1897 1 2 0 9.202983005117325 7.432367616262398 13.796334286720585 0 0 0
1422 1 2 0 16.195014687408875 4.856428959209114 10.097077312987153 0 0 0
1454 1 2 0 16.184918520402352 7.292982970933752 10.17114462478754 0 0 0
1390 1 2 0 16.200905863415695 2.3891089115646293 10.12289406993582 0 0 0
9 1 1 0 9.23 0 0 0 0 0
10 1 1 0 10.65 0 0 0 0 0
11 1 1 0 8.52 1.23 0 0 0 0
12 1 1 0 11.36 1.23 0 0 0 0
13 1 1 0 13.49 0 0 0 0 0
14 1 1 0 14.91 0 0 0 0 0
15 1 1 0 12.78 1.23 0 0 0 0
16 1 1 0 15.62 1.23 0 0 0 0
41 1 1 0 9.23 2.46 0 0 0 0
42 1 1 0 10.65 2.46 0 0 0 0
43 1 1 0 8.52 3.689 0 0 0 0
44 1 1 0 11.36 3.689 0 0 0 0
45 1 1 0 13.49 2.46 0 0 0 0
46 1 1 0 14.91 2.46 0 0 0 0
47 1 1 0 12.78 3.689 0 0 0 0
48 1 1 0 15.62 3.689 0 0 0 0
73 1 1 0 9.23 4.919 0 0 0 0
74 1 1 0 10.65 4.919 0 0 0 0
75 1 1 0 8.52 6.149 0 0 0 0
76 1 1 0 11.36 6.149 0 0 0 0
77 1 1 0 13.49 4.919 0 0 0 0
78 1 1 0 14.91 4.919 0 0 0 0
79 1 1 0 12.78 6.149 0 0 0 0
80 1 1 0 15.62 6.149 0 0 0 0
105 1 1 0 9.23 7.379 0 0 0 0
106 1 1 0 10.65 7.379 0 0 0 0
107 1 1 0 8.52 8.608 0 0 0 0
108 1 1 0 11.36 8.608 0 0 0 0
109 1 1 0 13.49 7.379 0 0 0 0
110 1 1 0 14.91 7.379 0 0 0 0
111 1 1 0 12.78 8.608 0 0 0 0
112 1 1 0 15.62 8.608 0 0 0 0
456 1 1 0 8.52 1.23 3.35 0 0 0
457 1 1 0 10.65 0 3.35 0 0 0
458 1 1 0 12.07 0 3.35 0 0 0
459 1 1 0 9.94 1.23 3.35 0 0 0
460 1 1 0 12.78 1.23 3.35 0 0 0
461 1 1 0 14.91 0 3.35 0 0 0
462 1 1 0 16.33 0 3.35 0 0 0
463 1 1 0 14.2 1.23 3.35 0 0 0
488 1 1 0 8.52 3.689 3.35 0 0 0
489 1 1 0 10.65 2.46 3.35 0 0 0
490 1 1 0 12.07 2.46 3.35 0 0 0
491 1 1 0 9.94 3.689 3.35 0 0 0
492 1 1 0 12.78 3.689 3.35 0 0 0
493 1 1 0 14.91 2.46 3.35 0 0 0
494 1 1 0 16.33 2.46 3.35 0 0 0
495 1 1 0 14.2 3.689 3.35 0 0 0
520 1 1 0 8.52 6.149 3.35 0 0 0
521 1 1 0 10.65 4.919 3.35 0 0 0
522 1 1 0 12.07 4.919 3.35 0 0 0
523 1 1 0 9.94 6.149 3.35 0 0 0
524 1 1 0 12.78 6.149 3.35 0 0 0
525 1 1 0 14.91 4.919 3.35 0 0 0
526 1 1 0 16.33 4.919 3.35 0 0 0
527 1 1 0 14.2 6.149 3.35 0 0 0
552 1 1 0 8.52 8.608 3.35 0 0 0
553 1 1 0 10.65 7.379 3.35 0 0 0
554 1 1 0 12.07 7.379 3.35 0 0 0
555 1 1 0 9.94 8.608 3.35 0 0 0
556 1 1 0 12.78 8.608 3.35 0 0 0
557 1 1 0 14.91 7.379 3.35 0 0 0
558 1 1 0 16.33 7.379 3.35 0 0 0
559 1 1 0 14.2 8.608 3.35 0 0 0
908 1 2 0 11.390471353990288 1.2433874023426985 6.791038037683234 0 0 0
911 1 2 0 12.766165953330908 1.1984322337547133 6.759406729195907 0 0 0
912 1 2 0 15.613193275659743 1.2690648723044913 6.790133806430255 0 0 0
937 1 2 0 9.212647628892666 2.4014227694389616 6.709806605852935 0 0 0
938 1 2 0 10.671397267276909 2.4670416907331454 6.80205206223099 0 0 0
940 1 2 0 11.391348347272539 3.71644935943959 6.80472798000409 0 0 0
941 1 2 0 13.468143120021207 2.4916613867682686 6.8515987178825615 0 0 0
942 1 2 0 14.905052812990185 2.509742095051356 6.817535741333783 0 0 0
943 1 2 0 12.821682978442391 3.7678999063957828 6.929510051636708 0 0 0
944 1 2 0 15.651215739788281 3.736623868101368 6.771752672476476 0 0 0
969 1 2 0 9.243897755606678 4.941883256044387 6.878328867842033 0 0 0
970 1 2 0 10.646264874716433 4.928165228562735 6.769149631333759 0 0 0
972 1 2 0 11.374375493294584 6.191792415896441 6.838704925180637 0 0 0
973 1 2 0 13.482771649018192 5.03187034931214 6.908554891754773 0 0 0
974 1 2 0 14.913452599443652 5.000047713861796 6.8182365890232886 0 0 0
975 1 2 0 12.765044582253518 6.232109645606724 6.818678813578711 0 0 0
976 1 2 0 15.54616514829094 6.200231439796387 6.737681111290702 0 0 0
1001 1 2 0 9.186301961045201 7.3384944531735075 6.782095888410012 0 0 0
1002 1 2 0 10.638104038111727 7.380896867201707 6.795297504243224 0 0 0
1005 1 2 0 13.410526358776256 7.383836309202805 6.691488884618494 0 0 0
1006 1 2 0 14.86112444953768 7.4321903348579905 6.747383611661201 0 0 0
1355 1 2 0 9.697149204304598 1.164455109131719 10.29083626642054 0 0 0
1356 1 2 0 12.602433117920363 1.2805646004547089 10.2025171468631 0 0 0
1359 1 2 0 14.06606975636777 1.179553969422402 10.185884282269933 0 0 0
1385 1 2 0 10.459609987190529 2.4724776799210244 10.298784301483833 0 0 0
1386 1 2 0 11.916746420244955 2.5071327054729937 10.202232167353765 0 0 0
1387 1 2 0 9.791577269502556 3.6399452739003557 10.187337682383687 0 0 0
1388 1 2 0 12.637568183637704 3.6600161026681564 10.201798004365644 0 0 0
1389 1 2 0 14.776581371742605 2.391508190081248 10.161655342975026 0 0 0
1391 1 2 0 14.080082683395958 3.6049625034183768 10.17798984218747 0 0 0
1417 1 2 0 10.554032231020539 4.875459772760798 10.171053979556765 0 0 0
1418 1 2 0 11.952158842790215 4.865445796939026 10.217538091651905 0 0 0
1419 1 2 0 9.79860027285126 6.127185125591042 10.150223136170293 0 0 0
1420 1 2 0 12.661875851285899 6.13234780603458 10.153315763412861 0 0 0
1421 1 2 0 14.725381613461863 4.846912111897356 10.121342451697016 0 0 0
1423 1 2 0 14.067979950900733 6.07193021208148 10.148088420398446 0 0 0
1449 1 2 0 10.573940470450463 7.298441996781363 10.254502383216263 0 0 0
1450 1 2 0 12.038826915543574 7.361134711073247 10.245244066666942 0 0 0
1453 1 2 0 14.726452854357724 7.34603665640231 10.134195862711172 0 0 0
1804 1 2 0 11.374038398054097 1.322293373865718 13.585794159475107 0 0 0
1807 1 2 0 12.777335598687785 1.2299509872520855 13.544536700542718 0 0 0
1808 1 2 0 15.656476241012271 1.255591268853398 13.54391388064938 0 0 0
1834 1 2 0 10.627056150500879 2.576394369134046 13.554258068997633 0 0 0
1836 1 2 0 11.388911138724875 3.7337559857774414 13.396625940351875 0 0 0
1837 1 2 0 13.42736427519092 2.4323569834121885 13.655472516341597 0 0 0
1838 1 2 0 14.87154338565208 2.470372644448738 13.574498998587513 0 0 0
1839 1 2 0 12.798975905012714 3.6876641320656263 13.549195246308269 0 0 0
1840 1 2 0 15.615780466365738 3.712004425604902 13.572734823540523 0 0 0
1866 1 2 0 10.61718714344901 4.962739265861556 13.45786182614839 0 0 0
1868 1 2 0 11.390983583891767 6.177485935170138 13.477839335257562 0 0 0
1869 1 2 0 13.537298050266969 4.94701768899585 13.565380998025985 0 0 0
1870 1 2 0 14.944008663528114 4.990770397142192 13.650747922062756 0 0 0
1871 1 2 0 12.837044555286028 6.212832259380523 13.506110589538247 0 0 0
1872 1 2 0 15.691335358120313 6.245920904510421 13.702786985041792 0 0 0
1898 1 2 0 10.643401707242319 7.439263042199908 13.579540146782366 0 0 0
1901 1 2 0 13.488251660123908 7.399308969743739 13.721449944888539 0 0 0
1902 1 2 0 14.9476964389165 7.4971910848516 13.735137609523585 0 0 0
1827 1 2 0 0.03004497589269094 3.7731170631949307 13.28961303974675 0 0 0
5346 30 13 -1.371919 16.772684121039298 4.833342323387852 16.439850548243783 -1 1 0
6506 228 16 -2.086039 13.75346658220357 1.9740512040643283 16.460063805508405 0 0 0
1904 1 2 0 15.64433310510683 8.730436831348177 13.718299914732519 0 0 0
1903 1 2 0 12.7910590197721 8.679256123628344 13.718935943898567 0 0 0
1900 1 2 0 11.393564246206747 8.63601117514204 13.618062562117233 0 0 0
1578 1 2 0 12.003631188184292 17.14467648735484 10.16544681564964 0 0 0
1036 1 2 0 11.36795823009857 11.093541363460274 6.772189687279428 0 0 0
1487 1 2 0 14.118661430932399 10.990234871848045 10.176700924320858 0 0 0
1806 1 2 0 14.906392330341657 0.05571404062344267 13.507795187268522 0 0 0
999 1 2 0 4.193614885707875 8.528045051810384 6.725535378414628 0 0 0
140 1 1 0 11.36 11.068 0 0 0 0
1000 1 2 0 7.015995197249023 8.600285134255065 6.696586295027864 0 0 0
1936 1 2 0 15.657422734126257 11.152969674956402 13.669888012953317 0 0 0
1103 1 2 0 12.753828870907563 15.965543201255585 6.630764576827507 0 0 0
1447 1 2 0 5.573054394614466 8.53081582906808 10.261341589828119 0 0 0
996 1 2 0 2.810050925328518 8.56595755493911 6.72148019531695 0 0 0
1039 1 2 0 12.78249189991693 11.02915460826031 6.777044481530109 0 0 0
1549 1 2 0 14.829067721253145 14.67063657436943 10.096256085088013 0 0 0
1994 1 2 0 10.706710530163285 14.76832197496691 13.551502194411485 0 0 0
1102 1 2 0 14.85984366577973 14.72349283528565 6.7700276320729635 0 0 0
6611 243 16 -2.086039 8.598696425883848 8.644373924955191 16.48873364651947 0 0 0
1444 1 2 0 4.143217447678599 8.596678081000135 10.273849561873519 0 0 0
1443 1 2 0 1.306673765345937 8.531172043995896 10.214329108604991 0 0 0
1968 1 2 0 15.624133523721117 13.543367695124555 13.671237733939197 0 0 0
649 1 1 0 10.65 14.757 3.35 0 0 0
931 1 2 0 0.059776817072253546 3.707048367213353 6.800059068881048 0 0 0
1985 1 2 0 0.6501936723096237 14.82071987322818 13.583963636264743 0 0 0
1921 1 2 0 0.6753582973522985 9.89684422787983 13.647925404279015 0 0 0
1953 1 2 0 0.6684253538890572 12.390383171343213 13.58121603379878 0 0 0
129 1 1 0 0.71 9.838 0 0 0 0
130 1 1 0 2.13 9.838 0 0 0 0
131 1 1 0 0 11.068 0 0 0 0
132 1 1 0 2.84 11.068 0 0 0 0
133 1 1 0 4.97 9.838 0 0 0 0
134 1 1 0 6.39 9.838 0 0 0 0
135 1 1 0 4.26 11.068 0 0 0 0
136 1 1 0 7.1 11.068 0 0 0 0
161 1 1 0 0.71 12.298 0 0 0 0
162 1 1 0 2.13 12.298 0 0 0 0
163 1 1 0 0 13.527 0 0 0 0
164 1 1 0 2.84 13.527 0 0 0 0
165 1 1 0 4.97 12.298 0 0 0 0
166 1 1 0 6.39 12.298 0 0 0 0
167 1 1 0 4.26 13.527 0 0 0 0
168 1 1 0 7.1 13.527 0 0 0 0
193 1 1 0 0.71 14.757 0 0 0 0
194 1 1 0 2.13 14.757 0 0 0 0
195 1 1 0 0 15.987 0 0 0 0
196 1 1 0 2.84 15.987 0 0 0 0
197 1 1 0 4.97 14.757 0 0 0 0
198 1 1 0 6.39 14.757 0 0 0 0
199 1 1 0 4.26 15.987 0 0 0 0
200 1 1 0 7.1 15.987 0 0 0 0
577 1 1 0 2.13 9.838 3.35 0 0 0
578 1 1 0 3.55 9.838 3.35 0 0 0
579 1 1 0 1.42 11.068 3.35 0 0 0
580 1 1 0 4.26 11.068 3.35 0 0 0
581 1 1 0 6.39 9.838 3.35 0 0 0
582 1 1 0 7.81 9.838 3.35 0 0 0
583 1 1 0 5.68 11.068 3.35 0 0 0
608 1 1 0 0 11.068 3.35 1 0 0
609 1 1 0 2.13 12.298 3.35 0 0 0
610 1 1 0 3.55 12.298 3.35 0 0 0
611 1 1 0 1.42 13.527 3.35 0 0 0
612 1 1 0 4.26 13.527 3.35 0 0 0
613 1 1 0 6.39 12.298 3.35 0 0 0
614 1 1 0 7.81 12.298 3.35 0 0 0
615 1 1 0 5.68 13.527 3.35 0 0 0
640 1 1 0 0 13.527 3.35 1 0 0
641 1 1 0 2.13 14.757 3.35 0 0 0
642 1 1 0 3.55 14.757 3.35 0 0 0
643 1 1 0 1.42 15.987 3.35 0 0 0
644 1 1 0 4.26 15.987 3.35 0 0 0
645 1 1 0 6.39 14.757 3.35 0 0 0
646 1 1 0 7.81 14.757 3.35 0 0 0
647 1 1 0 5.68 15.987 3.35 0 0 0
672 1 1 0 0 15.987 3.35 1 0 0
1025 1 2 0 0.6106882036453332 9.750129875384333 6.786327240994937 0 0 0
1026 1 2 0 2.067742013537648 9.71571140423143 6.6729299392175365 0 0 0
1028 1 2 0 2.772513050387822 10.970209674014946 6.700055121076903 0 0 0
1029 1 2 0 4.864030944131845 9.729146450790662 6.761006589077186 0 0 0
1030 1 2 0 6.291691469562972 9.75458568463509 6.734679437585326 0 0 0
1031 1 2 0 4.19819346547447 10.9608938919528 6.794076054843057 0 0 0
1032 1 2 0 7.065861021721706 11.024313096483267 6.828935968646905 0 0 0
1057 1 2 0 0.5871799828564791 12.204491938433296 6.841801775393013 0 0 0
1058 1 2 0 2.0380106810524805 12.205336916599396 6.790983778441404 0 0 0
1060 1 2 0 2.7409472936208177 13.460819943641846 6.736248593812084 0 0 0
1061 1 2 0 4.859144305559752 12.177257960281823 6.81601104748708 0 0 0
1062 1 2 0 6.321453190449215 12.281637995252842 6.889178751222607 0 0 0
1063 1 2 0 4.108558255105588 13.41110390543414 6.841143390285924 0 0 0
1064 1 2 0 7.0266988794682765 13.48935247982924 6.865247676677941 0 0 0
1089 1 2 0 0.670274291658254 14.667154038768837 6.7525555622763465 0 0 0
1090 1 2 0 2.092569052045403 14.697776899151206 6.680240773394343 0 0 0
1092 1 2 0 2.7532663537135265 15.953342877643037 6.734007653397711 0 0 0
1093 1 2 0 4.88082236809633 14.648988888454586 6.749158035747546 0 0 0
1094 1 2 0 6.320211800174139 14.730094152296115 6.807383899805884 0 0 0
1095 1 2 0 4.165793344898983 15.834532985269382 6.667661641322381 0 0 0
1096 1 2 0 7.029388425535113 15.975418814122255 6.869222959853348 0 0 0
1473 1 2 0 2.0200882635832014 9.785190365731307 10.301034065275411 0 0 0
1474 1 2 0 3.4407941769954626 9.810514401053629 10.28072600255804 0 0 0
1475 1 2 0 1.3460637793722712 11.03931302528145 10.321220105403954 0 0 0
1476 1 2 0 4.157364963722323 10.986036183645599 10.304678700408216 0 0 0
1477 1 2 0 6.365164511474269 9.758241447708269 10.306827630566925 0 0 0
1479 1 2 0 5.634428812397066 10.997488251873193 10.365062506884358 0 0 0
1505 1 2 0 2.051215810608656 12.254991743988523 10.364110436865918 0 0 0
1506 1 2 0 3.5089798756376784 12.18986568227765 10.237409159611015 0 0 0
1507 1 2 0 1.2920201807469605 13.532640495757137 10.249820207048648 0 0 0
1508 1 2 0 4.211642497194187 13.435904963488722 10.267567588468811 0 0 0
1509 1 2 0 6.320592531699088 12.246538157179996 10.336300592694046 0 0 0
1511 1 2 0 5.611380601231316 13.467313581073185 10.2649989878925 0 0 0
1537 1 2 0 2.0490353153163374 14.758063045889617 10.201269724351798 0 0 0
1538 1 2 0 3.5116090197690055 14.733550126745694 10.267778466550606 0 0 0
1539 1 2 0 1.3448775344653177 15.987484547080326 10.15608991880087 0 0 0
1540 1 2 0 4.196948694557335 15.974852658402057 10.16313328441261 0 0 0
1541 1 2 0 6.299553693027771 14.76299736672852 10.226064840123763 0 0 0
1543 1 2 0 5.579284567757325 16.00134758961314 10.197038055986669 0 0 0
1922 1 2 0 2.08793074745473 9.944924764556243 13.703339146592244 0 0 0
1924 1 2 0 2.8266390214241315 11.152458626101605 13.671123270658285 0 0 0
1925 1 2 0 5.003290261662588 9.999567257799619 13.677464564282614 0 0 0
1926 1 2 0 6.417377765001634 9.916082006091209 13.717175948684032 0 0 0
1927 1 2 0 4.272244376888037 11.221146942883028 13.6905994413395 0 0 0
1928 1 2 0 7.149549268737003 11.101995600400896 13.72535061321321 0 0 0
1954 1 2 0 2.064564124859644 12.412287212977322 13.642984081521803 0 0 0
1956 1 2 0 2.8189204227988953 13.581297736580467 13.678282150122422 0 0 0
1957 1 2 0 5.014455760009798 12.422869400199403 13.772246618838041 0 0 0
1958 1 2 0 6.458896768304498 12.347983327679064 13.758923751793038 0 0 0
1959 1 2 0 4.23033373829751 13.630250160137892 13.810355940088684 0 0 0
1960 1 2 0 7.157418797843238 13.608264238060231 13.71280004113672 0 0 0
1986 1 2 0 2.1215582560824258 14.847097940737477 13.693531879521572 0 0 0
1988 1 2 0 2.874503702586398 16.055779689649096 13.643645252171808 0 0 0
1989 1 2 0 4.979439523500146 14.83015697024152 13.764121639290016 0 0 0
1990 1 2 0 6.404707898663226 14.824068969793357 13.653555478948896 0 0 0
1991 1 2 0 4.267342841534655 16.037457485886755 13.68145463026195 0 0 0
1992 1 2 0 7.079159057338636 15.998983869170388 13.596746404849867 0 0 0
1478 1 2 0 7.795615154527937 9.750719312259141 10.288784561795795 0 0 0
1510 1 2 0 7.771823576246476 12.227502503562244 10.340706841509608 0 0 0
1542 1 2 0 7.696112993203261 14.755068945601728 10.135982675944016 0 0 0
1963 1 2 0 8.581883512368213 13.538237284796844 13.655188928290862 0 0 0
1995 1 2 0 8.523612439567135 16.053002156288645 13.471297945395913 0 0 0
1931 1 2 0 8.53149209222057 11.054412549894131 13.617202171590916 0 0 0
1488 1 2 0 17.004188630880297 10.987175092385085 10.07609298368046 0 0 0
1993 1 2 0 9.244380922265867 14.795928047310696 13.589563846750734 0 0 0
1932 1 2 0 11.395069913908666 11.051657590092608 13.612121436354949 0 0 0
1035 1 2 0 8.416009010254488 11.042058199716582 6.927969737739587 0 0 0
1544 1 2 0 8.42642995900807 15.945809042569918 10.058252538198804 0 0 0
652 1 1 0 12.78 15.987 3.35 0 0 0
1574 1 2 0 7.75363404572431 17.202959284119427 10.086766646234457 0 0 0
1104 1 2 0 15.60559145555492 15.996795447089603 6.763913513058792 0 0 0
1793 1 2 0 0.769494581075677 0.13648616398645994 13.379381956079452 0 0 0
1456 1 2 0 16.92382717020981 8.499379308146734 10.144283646778495 0 0 0
1999 1 2 0 12.77450773353813 15.94855938059501 13.682902078354592 0 0 0
1065 1 2 0 9.157148861861137 12.29063303743633 6.938235376856458 0 0 0
1965 1 2 0 13.48206887614133 12.32809475661365 13.584973384110723 0 0 0
1930 1 2 0 10.696963014260584 9.816626949096571 13.63720541993357 0 0 0
1964 1 2 0 11.38506262825955 13.522973697338632 13.571891246407247 0 0 0
143 1 1 0 12.78 11.068 0 0 0 0
1455 1 2 0 14.10675811859132 8.631497654790907 10.22026757349478 0 0 0
1007 1 2 0 12.713696322367865 8.607951292128671 6.672973539091125 0 0 0
648 1 1 0 8.52 15.987 3.35 0 0 0
588 1 1 0 12.78 11.068 3.35 0 0 0
1452 1 2 0 12.679850534909994 8.658430445524612 10.22858883510654 0 0 0
1008 1 2 0 15.586989746446376 8.646591479878285 6.753801077350858 0 0 0
915 1 2 0 17.035754261520324 1.238990932105472 6.725388059735516 0 0 0
1451 1 2 0 9.83402808318196 8.480016377910644 10.232392230983702 0 0 0
1070 1 2 0 14.922386457443496 12.242947294439102 6.817398436677319 0 0 0
591 1 1 0 14.2 11.068 3.35 0 0 0
1516 1 2 0 12.640327163310051 13.457246663103712 10.172148623944496 0 0 0
1100 1 2 0 11.33051089848247 15.985866610925404 6.640705603338538 0 0 0
1068 1 2 0 11.3155639668998 13.542194984760064 6.807033788896626 0 0 0
1998 1 2 0 14.985849533826618 14.771294805370703 13.825028695482782 0 0 0
1066 1 2 0 10.611135482773138 12.313533140872995 6.881691358506081 0 0 0
897 1 2 0 0.7337271298704494 0.007696667383736156 6.7028389840997935 0 0 0
590 1 1 0 16.33 9.838 3.35 0 0 0
1961 1 2 0 9.25610867042647 12.313023542444087 13.642161518973333 0 0 0
1546 1 2 0 11.972924672240126 14.68398750618324 10.145210320598736 0 0 0
584 1 1 0 8.52 11.068 3.35 0 0 0
1519 1 2 0 14.110666705709779 13.455362543596237 10.165895910423547 0 0 0
1424 1 2 0 16.90152839502741 6.114026345140747 10.15486346756246 0 0 0
207 1 1 0 12.78 15.987 0 0 0 0
137 1 1 0 9.23 9.838 0 0 0 0
651 1 1 0 9.94 15.987 3.35 0 0 0
1934 1 2 0 14.900403084865331 9.947582110756326 13.744059578586151 0 0 0