
    -----------------------------------------------------------------------
          Psi4: An Open-Source Ab Initio Electronic Structure Package
                               Psi4 1.9 release

                         Git: Rev {} zzzzzzz 


    D. G. A. Smith, L. A. Burns, A. C. Simmonett, R. M. Parrish,
    M. C. Schieber, R. Galvelis, P. Kraus, H. Kruse, R. Di Remigio,
    A. Alenaizan, A. M. James, S. Lehtola, J. P. Misiewicz, M. Scheurer,
    R. A. Shaw, J. B. Schriber, Y. Xie, Z. L. Glick, D. A. Sirianni,
    J. S. O'Brien, J. M. Waldrop, A. Kumar, E. G. Hohenstein,
    B. P. Pritchard, B. R. Brooks, H. F. Schaefer III, A. Yu. Sokolov,
    K. Patkowski, A. E. DePrince III, U. Bozkaya, R. A. King,
    F. A. Evangelista, J. M. Turney, T. D. Crawford, C. D. Sherrill,
    J. Chem. Phys. 152(18) 184108 (2020). https://doi.org/10.1063/5.0006002

                            Additional Code Authors
    E. T. Seidl, C. L. Janssen, E. F. Valeev, M. L. Leininger,
    J. F. Gonthier, R. M. Richard, H. R. McAlexander, M. Saitow, X. Wang,
    P. Verma, M. H. Lechner, A. Jiang, S. Behnle, A. G. Heide,
    M. F. Herbst, and D. L. Poole

             Previous Authors, Complete List of Code Contributors,
                       and Citations for Specific Modules
    https://github.com/psi4/psi4/blob/master/codemeta.json
    https://github.com/psi4/psi4/graphs/contributors
    http://psicode.org/psi4manual/master/introduction.html#citing-psifour

    -----------------------------------------------------------------------


    Psi4 started on: Monday, 22 January 2024 10:13PM

    Process ID: 1111190
    Host:       d-3-8-3
    PSIDATADIR: /home/gridsan/tfroembgen/.conda/envs/psi4test/share/psi4
    Memory:     500.0 MiB
    Threads:    12
    
  ==> Input File <==

--------------------------------------------------------------------------
memory 32 GB # how much memory is available ! Depends on the nodes/cores !

molecule dimer {
# monomer A
+1 1    # Charge and multiplicity
C  0.680067 1.417258 -7.415929
C -0.680504 1.419286 -7.415545
N -1.085635 1.420284 -6.097221
C  0.000108 1.423560 -5.315820
C -2.477365 1.469690 -5.629242
N  1.085222 1.420284 -6.097221
H  1.385146 1.409430 -8.233368
H -1.385302 1.419096 -8.233214
H -0.000009 1.425307 -4.234731
C  2.478117 1.403392 -5.632123
H  2.490592 1.430737 -4.541870
H  2.967028 0.489946 -5.979299
H  3.001428 2.278875 -6.023595
H -2.857359 2.491761 -5.709201
H -3.082679 0.799606 -6.242306
H -2.518128 1.142706 -4.589294
--
# monomer B
0 1     # Charge and multiplicity
C   1.22531237526482      0.70753866091955      0.00613762728373
C   1.22532433589282     -0.70753852257020     -0.00619318228664
C   -0.00000567409046      1.41496628609039     -0.00672680580738
C   2.45644923379077      1.41832825917820      0.00902448468363
C   0.00001130712078     -1.41497612663474      0.00347275151708
C   -1.22530046906674      0.70754574598412      0.00838914760619
C   2.45643823516184     -1.41832293188077     -0.00843833914343
C   -0.00000085313587      2.83680140328112     -0.00913035594137
C   3.68182717731192      0.70931832800114     -0.00808954934571
C   2.45512052870677      2.83422403348893     -0.00819210630633
C   3.68182158506039     -0.70933346742900      0.00798293467272
C   -1.22531311884624     -0.70752714354401     -0.00512042085974
C   1.22670006104402      3.54346985599427      0.00816696660346
C   0.00000526469929     -2.83678176723568      0.00832091913869
C   -2.45643555300670      1.41831729028492      0.00842454345199
C   2.45512389762097     -2.83422965658853      0.00783102630520
C   -1.22671388474763      3.54346943575023      0.00827029982280
C   4.91451777504333      1.42717324448953     -0.00160886631602
C   3.69315067131765      3.54279566454522     -0.00155906667985
C   -2.45643712022637     -1.41831290883911     -0.00846337726810
C   1.22670532178455     -3.54347386990643     -0.00780316414624
C   -2.45512491866593      2.83421703463423     -0.00818572995999
C   4.91452486062398     -1.42718653794377      0.00136387641845
C   1.22142509354026      4.97013443726031      0.00150231067809
C   4.89300870916237      2.82518837202648     -0.00039219795739
C   -1.22669652864725     -3.54347062507680     -0.00753595973677
C   -3.68181849668397      0.70932533873199     -0.00807686886569
C   3.69314758099218     -3.54280096939050      0.00148176697923
C   -1.22143177215231      4.97012866986289      0.00168580605083
C   6.13477145276790      0.68054831910577     -0.00083909176631
C   3.65678936045204      4.97295361556775     -0.00065042889723
C   -2.45512642789169     -2.83421472106065      0.00758666850712
C   -3.68181869921921     -0.70932533146830      0.00810055625144
C   4.89301309775526     -2.82519973363176      0.00021895393805
C   -0.00000059327114      5.65044773803267      0.00045449734393
C   6.13477559217374     -0.68055448207492      0.00042622874941
C   2.47813196269732      5.65357712333155      0.00063835075260
C   1.22142288457925     -4.97012668293268     -0.00129718634452
C   -3.69316190412301      3.54279732619245     -0.00139355922051
C   -1.22142804110313     -4.97011793159564     -0.00140994817719
C   -4.91452132810043      1.42717581899491     -0.00153192130862
C   3.65678749952045     -4.97295485423912      0.00080007163680
C   -2.47813805026426      5.65357479452875      0.00092287576113
C   -3.69314125872231     -3.54278984697859      0.00136564082345
C   -4.91451200321153     -1.42718062802730      0.00139857359209
C   -0.00000552908399     -5.65043791501335      0.00005899322272
C   -4.89302000425900      2.82518897091939     -0.00040227981744
C   2.47812647313991     -5.65357317188818     -0.00029052915548
C   -3.65679823041642      4.97295655404175     -0.00047374852278
C   -4.89299899901461     -2.82519139505969      0.00006491824035
C   -2.47812801824129     -5.65356579800621     -0.00056571680280
C   -6.13477002348955      0.68054913825639     -0.00086464346868
C   -3.65678835334731     -4.97294365097028      0.00058578382008
C   -6.13476456307132     -0.68055354348201      0.00040575295444
H   5.83528897565761      3.36927626695423      0.00396712770529
H   7.07385965258860      1.22821762089947     -0.00037744837300
H   4.60066374401555      5.51238117445323     -0.00014522814529
H   5.83528386714679     -3.36930568472863     -0.00423551337640
H   -0.00001167146422      6.73853104613662     -0.00389474766392
H   7.07386165167227     -1.22822657074368     -0.00008250934481
H   2.47331421164041      6.74068466339473      0.00017162982210
H   4.60066897122302     -5.51237575717576      0.00039007446835
H   -2.47331820069565      6.74068209160650      0.00047297644710
H   -0.00000978838621     -6.73852780445195      0.00458867820736
H   -5.83530143450167      3.36927132229595      0.00410314985360
H   2.47330840367253     -6.74068500242887      0.00027980126949
H   -4.60067436136587      5.51237839860371      0.00002010017831
H   -5.83527902699321     -3.36928859177951     -0.00451481925734
H   -2.47329986759855     -6.74067870613986     -0.00016951527498
H   -7.07385728692578      1.22822084484047     -0.00046143985387
H   -4.60067330624313     -5.51236229778631      0.00021776644566
H   -7.07385645456741     -1.22822025997701     -0.00017736581114

    units angstrom      # Angstroms are the default
    no_reorient         # Geometry fixed, default
    symmetry c1         # C1 symmetry, default
}

set {
    scf_type DF         # Density fitting, faster than exact integrals
    freeze_core True    # Freeze core electrons
    basis jun-cc-pVDZ   # Jun-cc-pVDZ basis set, recommended for sSAPT0 in https://doi.org/10.1063/1.4867135
}

energy('ssapt0')        # Compute sSAPT0 energy, includes also SAPT0
--------------------------------------------------------------------------

  Memory set to  29.802 GiB by Python driver.

Scratch directory: /state/partition1/slurm_tmp/24798304.4294967291.0/
   => Loading Basis Set <=

    Name: JUN-CC-PVDZ
    Role: ORBITAL
    Keyword: BASIS
    atoms 1-2, 4-5, 10, 17-70 entry C          line   164 file /home/gridsan/tfroembgen/.conda/envs/psi4test/share/psi4/basis/jun-cc-pvdz.gbs 
    atoms 3, 6                entry N          line   198 file /home/gridsan/tfroembgen/.conda/envs/psi4test/share/psi4/basis/jun-cc-pvdz.gbs 
    atoms 7-9, 11-16, 71-88   entry H          line    36 file /home/gridsan/tfroembgen/.conda/envs/psi4test/share/psi4/basis/jun-cc-pvdz.gbs 

   => Loading Basis Set <=

    Name: JUN-CC-PVDZ
    Role: ORBITAL
    Keyword: BASIS
    atoms 1-2, 4-5, 10, 17-70 entry C          line   164 file /home/gridsan/tfroembgen/.conda/envs/psi4test/share/psi4/basis/jun-cc-pvdz.gbs 
    atoms 3, 6                entry N          line   198 file /home/gridsan/tfroembgen/.conda/envs/psi4test/share/psi4/basis/jun-cc-pvdz.gbs 
    atoms 7-9, 11-16, 71-88   entry H          line    36 file /home/gridsan/tfroembgen/.conda/envs/psi4test/share/psi4/basis/jun-cc-pvdz.gbs 


  //>>>>>>>>>>>>>>>>>>>>>>>>>>>>>>>>>>>//
  //              Dimer HF             //
  //<<<<<<<<<<<<<<<<<<<<<<<<<<<<<<<<<<<//

   => Libint2 <=

    Primary   basis highest AM E, G, H:  7, 7, 4
    Auxiliary basis highest AM E, G, H:  7, 7, 5
    Onebody   basis highest AM E, G, H:  7, 7, 5
    Solid Harmonics ordering:            gaussian

*** tstart() called on d-3-8-3
*** at Mon Jan 22 22:13:31 2024

   => Loading Basis Set <=

    Name: JUN-CC-PVDZ
    Role: ORBITAL
    Keyword: BASIS
    atoms 1-2, 4-5, 10, 17-70 entry C          line   164 file /home/gridsan/tfroembgen/.conda/envs/psi4test/share/psi4/basis/jun-cc-pvdz.gbs 
    atoms 3, 6                entry N          line   198 file /home/gridsan/tfroembgen/.conda/envs/psi4test/share/psi4/basis/jun-cc-pvdz.gbs 
    atoms 7-9, 11-16, 71-88   entry H          line    36 file /home/gridsan/tfroembgen/.conda/envs/psi4test/share/psi4/basis/jun-cc-pvdz.gbs 


         ---------------------------------------------------------
                                   SCF
               by Justin Turney, Rob Parrish, Andy Simmonett
                          and Daniel G. A. Smith
                              RHF Reference
                       12 Threads,  30517 MiB Core
         ---------------------------------------------------------

  ==> Geometry <==

    Molecular point group: c1
    Full point group: C1

    Geometry (in Angstrom), charge = 1, multiplicity = 1:

       Center              X                  Y                   Z               Mass       
    ------------   -----------------  -----------------  -----------------  -----------------
         C            0.680066520158     1.235968212970    -6.627329311776    12.000000000000
         C           -0.680504479842     1.237996212970    -6.626945311776    12.000000000000
         N           -1.085635479842     1.238994212970    -5.308621311776    14.003074004430
         C            0.000107520158     1.242270212970    -4.527220311776    12.000000000000
         C           -2.477365479842     1.288400212970    -4.840642311776    12.000000000000
         N            1.085221520158     1.238994212970    -5.308621311776    14.003074004430
         H            1.385145520158     1.228140212970    -7.444768311776     1.007825032230
         H           -1.385302479842     1.237806212970    -7.444614311776     1.007825032230
         H           -0.000009479842     1.244017212970    -3.446131311776     1.007825032230
         C            2.478116520158     1.222102212970    -4.843523311776    12.000000000000
         H            2.490591520158     1.249447212970    -3.753270311776     1.007825032230
         H            2.967027520158     0.308656212970    -5.190699311776     1.007825032230
         H            3.001427520158     2.097585212970    -5.234995311776     1.007825032230
         H           -2.857359479842     2.310471212970    -4.920601311776     1.007825032230
         H           -3.082679479842     0.618316212970    -5.453706311776     1.007825032230
         H           -2.518128479842     0.961416212970    -3.800694311776     1.007825032230
         C            1.225311895423     0.526248873889     0.794737315507    12.000000000000
         C            1.225323856051    -0.888828309601     0.782406505937    12.000000000000
         C           -0.000006153932     1.233676499060     0.781872882416    12.000000000000
         C            2.456448753949     1.237038472148     0.797624172907    12.000000000000
         C            0.000010827279    -1.596265913665     0.792072439741    12.000000000000
         C           -1.225300948908     0.526255958954     0.796988835830    12.000000000000
         C            2.456437755320    -1.599612718911     0.780161349080    12.000000000000
         C           -0.000001332978     2.655511616251     0.779469332282    12.000000000000
         C            3.681826697470     0.528028540971     0.780510138878    12.000000000000
         C            2.455120048865     2.652934246459     0.780407581917    12.000000000000
         C            3.681821105219    -0.890623254459     0.796582622896    12.000000000000
         C           -1.225313598688    -0.888816930574     0.783479267364    12.000000000000
         C            1.226699581202     3.362180068964     0.796766654827    12.000000000000
         C            0.000004784858    -3.018071554266     0.796920607362    12.000000000000
         C           -2.456436032848     1.237027503255     0.797024231676    12.000000000000
         C            2.455123417779    -3.015519443619     0.796430714529    12.000000000000
         C           -1.226714364589     3.362179648720     0.796869988046    12.000000000000
         C            4.914517295202     1.245883457459     0.786990821908    12.000000000000
         C            3.693150191476     3.361505877515     0.787040621544    12.000000000000
         C           -2.456437600068    -1.599602695869     0.780136310956    12.000000000000
         C            1.226704841943    -3.724763656937     0.780796524077    12.000000000000
         C           -2.455125398508     2.652927247604     0.780413958264    12.000000000000
         C            4.914524380782    -1.608476324974     0.789963564642    12.000000000000
         C            1.221424613699     4.788844650230     0.790101998902    12.000000000000
         C            4.893008229321     2.643898584996     0.788207490266    12.000000000000
         C           -1.226697008489    -3.724760412107     0.781063728487    12.000000000000
         C           -3.681818976526     0.528035551702     0.780522819358    12.000000000000
         C            3.693147101150    -3.724090756421     0.790081455203    12.000000000000
         C           -1.221432251994     4.788838882833     0.790285494274    12.000000000000
         C            6.134770972926     0.499258532075     0.787760596457    12.000000000000
         C            3.656788880610     4.791663828537     0.787949259326    12.000000000000
         C           -2.455126907733    -3.015504508091     0.796186356731    12.000000000000
         C           -3.681819179061    -0.890615118499     0.796700244475    12.000000000000
         C            4.893012617914    -3.006489520662     0.788818642162    12.000000000000
         C           -0.000001073113     5.469157951002     0.789054185568    12.000000000000
         C            6.134775112332    -0.861844269105     0.789025916973    12.000000000000
         C            2.478131482856     5.472287336301     0.789238038976    12.000000000000
         C            1.221422404738    -5.151416469963     0.787302501879    12.000000000000
         C           -3.693162383965     3.361507539162     0.787206129003    12.000000000000
         C           -1.221428520945    -5.151407718626     0.787189740046    12.000000000000
         C           -4.914521807942     1.245886031965     0.787067766915    12.000000000000
         C            3.656787019679    -5.154244641269     0.789399759860    12.000000000000
         C           -2.478138530106     5.472285007498     0.789522563985    12.000000000000
         C           -3.693141738564    -3.724079634009     0.789965329047    12.000000000000
         C           -4.914512483053    -1.608470415058     0.789998261816    12.000000000000
         C           -0.000006008926    -5.831727702044     0.788658681446    12.000000000000
         C           -4.893020484101     2.643899183889     0.788197408406    12.000000000000
         C            2.478125993298    -5.834862958919     0.788309159068    12.000000000000
         C           -3.656798710258     4.791666767011     0.788125939701    12.000000000000
         C           -4.892999478856    -3.006481182090     0.788664606464    12.000000000000
         C           -2.478128498083    -5.834855585037     0.788033971421    12.000000000000
         C           -6.134770503331     0.499259351226     0.787735044755    12.000000000000
         C           -3.656788833189    -5.154233438001     0.789185472044    12.000000000000
         C           -6.134765042913    -0.861843330512     0.789005441178    12.000000000000
         H            5.835288495816     3.187986479924     0.792566815929     1.007825032230
         H            7.073859172747     1.046927833869     0.788222239851     1.007825032230
         H            4.600663264174     5.331091387423     0.788454460078     1.007825032230
         H            5.835283387305    -3.550595471759     0.784364174847     1.007825032230
         H           -0.000012151306     6.557241259106     0.784704940560     1.007825032230
         H            7.073861171831    -1.409516357774     0.788517178879     1.007825032230
         H            2.473313731799     6.559394876364     0.788771318046     1.007825032230
         H            4.600668491381    -5.693665544206     0.788989762692     1.007825032230
         H           -2.473318680537     6.559392304576     0.789072664671     1.007825032230
         H           -0.000010268228    -6.919817591482     0.793188366431     1.007825032230
         H           -5.835301914343     3.187981535266     0.792702838077     1.007825032230
         H            2.473307923831    -6.921974789459     0.788879489493     1.007825032230
         H           -4.600674841208     5.331088611573     0.788619788402     1.007825032230
         H           -5.835279506835    -3.550578378810     0.784084868966     1.007825032230
         H           -2.473300347440    -6.921968493170     0.788430172949     1.007825032230
         H           -7.073857766768     1.046931057810     0.788138248370     1.007825032230
         H           -4.600673786085    -5.693652084817     0.788817454669     1.007825032230
         H           -7.073856934409    -1.409510047007     0.788422322412     1.007825032230

  Running in c1 symmetry.

  Rotational constants: A =      0.00153  B =      0.00152  C =      0.00107 [cm^-1]
  Rotational constants: A =     45.73641  B =     45.50751  C =     32.09876 [MHz]
  Nuclear repulsion = 7982.695684427464585

  Charge       = 1
  Multiplicity = 1
  Electrons    = 394
  Nalpha       = 197
  Nbeta        = 197

  ==> Algorithm <==

  SCF Algorithm Type is DF.
  DIIS enabled.
  MOM disabled.
  Fractional occupation disabled.
  Guess Type is SAD.
  Energy threshold   = 1.00e-08
  Density threshold  = 1.00e-08
  Integral threshold = 1.00e-12

  ==> Primary Basis <==

  Basis Set: JUN-CC-PVDZ
    Blend: JUN-CC-PVDZ
    Number of shells: 569
    Number of basis functions: 1233
    Number of Cartesian functions: 1294
    Spherical Harmonics?: true
    Max angular momentum: 2

   => Loading Basis Set <=

    Name: (JUN-CC-PVDZ AUX)
    Role: JKFIT
    Keyword: DF_BASIS_SCF
    atoms 1-2, 4-5, 10, 17-70 entry C          line   146 file /home/gridsan/tfroembgen/.conda/envs/psi4test/share/psi4/basis/jun-cc-pvdz-jkfit.gbs 
    atoms 3, 6                entry N          line   202 file /home/gridsan/tfroembgen/.conda/envs/psi4test/share/psi4/basis/jun-cc-pvdz-jkfit.gbs 
    atoms 7-9, 11-16, 71-88   entry H          line    70 file /home/gridsan/tfroembgen/.conda/envs/psi4test/share/psi4/basis/jun-cc-pvdz-jkfit.gbs 

  ==> Integral Setup <==

  ==> DiskDFJK: Density-Fitted J/K Matrices <==

    J tasked:                  Yes
    K tasked:                  Yes
    wK tasked:                  No
    OpenMP threads:             12
    Integrals threads:          12
    Memory [MiB]:            22888
    Algorithm:                Disk
    Integral Cache:           SAVE
    Schwarz Cutoff:          1E-12
    Fitting Condition:       1E-10

   => Auxiliary Basis Set <=

  Basis Set: (JUN-CC-PVDZ AUX)
    Blend: JUN-CC-PVDZ-JKFIT
    Number of shells: 1890
    Number of basis functions: 5440
    Number of Cartesian functions: 6226
    Spherical Harmonics?: true
    Max angular momentum: 3

  Minimum eigenvalue in the overlap matrix is 8.3246034504E-10.
  Reciprocal condition number of the overlap matrix is 3.7044879274E-11.
    Using canonical orthogonalization.
  Overall, 14 of 1233 possible MOs eliminated.


  ==> Pre-Iterations <==

  SCF Guess: Superposition of Atomic Densities via on-the-fly atomic UHF (no occupation information).

   -------------------------
    Irrep   Nso     Nmo    
   -------------------------
     A       1233    1219 
   -------------------------
    Total    1233    1219
   -------------------------

  ==> Iterations <==

                           Total Energy        Delta E     RMS |[F,P]|

   @DF-RHF iter SAD: -2365.40187475399171   -2.36540e+03   0.00000e+00 
   @DF-RHF iter   1: -2358.20042545498200    7.20145e+00   9.45895e-04 DIIS/ADIIS
   @DF-RHF iter   2: -2359.09768493883303   -8.97259e-01   3.20989e-04 DIIS/ADIIS
   @DF-RHF iter   3: -2359.18824442244340   -9.05595e-02   1.17500e-04 DIIS/ADIIS
   @DF-RHF iter   4: -2359.20123514405805   -1.29907e-02   4.34400e-05 DIIS
   @DF-RHF iter   5: -2359.20307091277300   -1.83577e-03   9.40323e-06 DIIS
   @DF-RHF iter   6: -2359.20324122199463   -1.70309e-04   4.80246e-06 DIIS
   @DF-RHF iter   7: -2359.20330491104050   -6.36890e-05   2.17750e-06 DIIS
   @DF-RHF iter   8: -2359.20332427996345   -1.93689e-05   1.14251e-06 DIIS
   @DF-RHF iter   9: -2359.20332879726675   -4.51730e-06   2.66796e-07 DIIS
   @DF-RHF iter  10: -2359.20332903917142   -2.41905e-07   9.39434e-08 DIIS
   @DF-RHF iter  11: -2359.20332905816304   -1.89916e-08   3.77754e-08 DIIS
   @DF-RHF iter  12: -2359.20332906248950   -4.32647e-09   2.11886e-08 DIIS
   @DF-RHF iter  13: -2359.20332906352451   -1.03500e-09   9.35276e-09 DIIS
  Energy and wave function converged.


  ==> Post-Iterations <==

    Orbital Energies [Eh]
    ---------------------

    Doubly Occupied:                                                      

       1A    -15.818281     2A    -15.817774     3A    -11.512707  
       4A    -11.445295     5A    -11.443739     6A    -11.433021  
       7A    -11.432958     8A    -11.329884     9A    -11.328979  
      10A    -11.328647    11A    -11.328023    12A    -11.327797  
      13A    -11.327497    14A    -11.327060    15A    -11.327031  
      16A    -11.326467    17A    -11.325923    18A    -11.325755  
      19A    -11.325060    20A    -11.325036    21A    -11.324560  
      22A    -11.324550    23A    -11.324506    24A    -11.324501  
      25A    -11.324309    26A    -11.324303    27A    -11.323964  
      28A    -11.323943    29A    -11.323417    30A    -11.323407  
      31A    -11.323160    32A    -11.322456    33A    -11.322455  
      34A    -11.321700    35A    -11.321659    36A    -11.321403  
      37A    -11.321400    38A    -11.320802    39A    -11.320715  
      40A    -11.320316    41A    -11.320291    42A    -11.319512  
      43A    -11.319504    44A    -11.317544    45A    -11.316733  
      46A    -11.316725    47A    -11.316651    48A    -11.316640  
      49A    -11.315279    50A    -11.315267    51A    -11.314627  
      52A    -11.314618    53A    -11.314147    54A    -11.314143  
      55A    -11.313087    56A    -11.313079    57A    -11.312710  
      58A    -11.311667    59A    -11.311657    60A    -11.310217  
      61A    -11.310207    62A     -1.562171    63A     -1.417635  
      64A     -1.311566    65A     -1.285994    66A     -1.285729  
      67A     -1.254743    68A     -1.254733    69A     -1.247270  
      70A     -1.222996    71A     -1.221869    72A     -1.213973  
      73A     -1.201467    74A     -1.201291    75A     -1.177383  
      76A     -1.177356    77A     -1.172960    78A     -1.147901  
      79A     -1.147868    80A     -1.144121    81A     -1.129925  
      82A     -1.129890    83A     -1.103915    84A     -1.102528  
      85A     -1.090354    86A     -1.087964    87A     -1.087817  
      88A     -1.081733    89A     -1.076464    90A     -1.052164  
      91A     -1.052108    92A     -1.026042    93A     -1.026024  
      94A     -1.006910    95A     -0.980562    96A     -0.958825  
      97A     -0.958736    98A     -0.954031    99A     -0.952042  
     100A     -0.951925   101A     -0.946519   102A     -0.946465  
     103A     -0.925995   104A     -0.900801   105A     -0.900430  
     106A     -0.882724   107A     -0.882106   108A     -0.877128  
     109A     -0.877066   110A     -0.858337   111A     -0.858312  
     112A     -0.834434   113A     -0.812163   114A     -0.810098  
     115A     -0.800800   116A     -0.798696   117A     -0.798579  
     118A     -0.796111   119A     -0.795898   120A     -0.795779  
     121A     -0.781092   122A     -0.774420   123A     -0.770082  
     124A     -0.766743   125A     -0.763215   126A     -0.763053  
     127A     -0.758189   128A     -0.758037   129A     -0.724862  
     130A     -0.717869   131A     -0.716413   132A     -0.713709  
     133A     -0.713698   134A     -0.712832   135A     -0.709060  
     136A     -0.703305   137A     -0.703282   138A     -0.701065  
     139A     -0.694410   140A     -0.692218   141A     -0.692199  
     142A     -0.674874   143A     -0.667681   144A     -0.666648  
     145A     -0.663707   146A     -0.663559   147A     -0.658605  
     148A     -0.656536   149A     -0.656472   150A     -0.647996  
     151A     -0.643073   152A     -0.642648   153A     -0.631053  
     154A     -0.630904   155A     -0.630458   156A     -0.630368  
     157A     -0.623585   158A     -0.618244   159A     -0.618142  
     160A     -0.603586   161A     -0.603574   162A     -0.602173  
     163A     -0.601998   164A     -0.595025   165A     -0.593716  
     166A     -0.586998   167A     -0.586895   168A     -0.580526  
     169A     -0.563850   170A     -0.559834   171A     -0.556879  
     172A     -0.552841   173A     -0.549830   174A     -0.546059  
     175A     -0.545930   176A     -0.536761   177A     -0.536536  
     178A     -0.516521   179A     -0.516335   180A     -0.508816  
     181A     -0.503064   182A     -0.503026   183A     -0.470554  
     184A     -0.470546   185A     -0.469329   186A     -0.439029  
     187A     -0.439020   188A     -0.413855   189A     -0.404882  
     190A     -0.403899   191A     -0.403792   192A     -0.375341  
     193A     -0.361062   194A     -0.350340   195A     -0.350261  
     196A     -0.289558   197A     -0.289462  

    Virtual:                                                              

     198A     -0.052421   199A     -0.050715   200A     -0.050553  
     201A     -0.047891   202A     -0.041756   203A     -0.031349  
     204A     -0.019827   205A     -0.018574   206A     -0.015848  
     207A     -0.007090   208A     -0.004550   209A     -0.002315  
     210A     -0.001090   211A     -0.000890   212A      0.000873  
     213A      0.002040   214A      0.002656   215A      0.006395  
     216A      0.008082   217A      0.008588   218A      0.011893  
     219A      0.012640   220A      0.016137   221A      0.017715  
     222A      0.021653   223A      0.022939   224A      0.023203  
     225A      0.024458   226A      0.024628   227A      0.025306  
     228A      0.026927   229A      0.032967   230A      0.033552  
     231A      0.035657   232A      0.037023   233A      0.039493  
     234A      0.039646   235A      0.040409   236A      0.042527  
     237A      0.051325   238A      0.052688   239A      0.053929  
     240A      0.055157   241A      0.056020   242A      0.058835  
     243A      0.058946   244A      0.059982   245A      0.062595  
     246A      0.064551   247A      0.066427   248A      0.066690  
     249A      0.072481   250A      0.073969   251A      0.076814  
     252A      0.077507   253A      0.077732   254A      0.081297  
     255A      0.082303   256A      0.082320   257A      0.085106  
     258A      0.088354   259A      0.090225   260A      0.091880  
     261A      0.095998   262A      0.097374   263A      0.098537  
     264A      0.099060   265A      0.100926   266A      0.103977  
     267A      0.104615   268A      0.106826   269A      0.107378  
     270A      0.114450   271A      0.115987   272A      0.117760  
     273A      0.118649   274A      0.121036   275A      0.121977  
     276A      0.123796   277A      0.125044   278A      0.126593  
     279A      0.127078   280A      0.130355   281A      0.130753  
     282A      0.132733   283A      0.135006   284A      0.135743  
     285A      0.137492   286A      0.138969   287A      0.140657  
     288A      0.142135   289A      0.144944   290A      0.147093  
     291A      0.151805   292A      0.153449   293A      0.154006  
     294A      0.154226   295A      0.156308   296A      0.156985  
     297A      0.157290   298A      0.157770   299A      0.158896  
     300A      0.161086   301A      0.162591   302A      0.163754  
     303A      0.165604   304A      0.166628   305A      0.167226  
     306A      0.169682   307A      0.171838   308A      0.172041  
     309A      0.172390   310A      0.175243   311A      0.175855  
     312A      0.177033   313A      0.177416   314A      0.177821  
     315A      0.179685   316A      0.180394   317A      0.181064  
     318A      0.182196   319A      0.184139   320A      0.186836  
     321A      0.190518   322A      0.191936   323A      0.194039  
     324A      0.195261   325A      0.197406   326A      0.197849  
     327A      0.198140   328A      0.199949   329A      0.200843  
     330A      0.203587   331A      0.204539   332A      0.207302  
     333A      0.207700   334A      0.208052   335A      0.209736  
     336A      0.212906   337A      0.212965   338A      0.214040  
     339A      0.214753   340A      0.215130   341A      0.221661  
     342A      0.222324   343A      0.223560   344A      0.226260  
     345A      0.228713   346A      0.229482   347A      0.231688  
     348A      0.237875   349A      0.240054   350A      0.241142  
     351A      0.241876   352A      0.243527   353A      0.244712  
     354A      0.245848   355A      0.247006   356A      0.248181  
     357A      0.248676   358A      0.249423   359A      0.250464  
     360A      0.250849   361A      0.253222   362A      0.254059  
     363A      0.254769   364A      0.255459   365A      0.255921  
     366A      0.256287   367A      0.258101   368A      0.259079  
     369A      0.260436   370A      0.261587   371A      0.262747  
     372A      0.263637   373A      0.267303   374A      0.269885  
     375A      0.270293   376A      0.271053   377A      0.275530  
     378A      0.277607   379A      0.281054   380A      0.282349  
     381A      0.283042   382A      0.283489   383A      0.284388  
     384A      0.286450   385A      0.287214   386A      0.289668  
     387A      0.292176   388A      0.292584   389A      0.293902  
     390A      0.294458   391A      0.295242   392A      0.297103  
     393A      0.299187   394A      0.302608   395A      0.303055  
     396A      0.306432   397A      0.307869   398A      0.308043  
     399A      0.311801   400A      0.312437   401A      0.313671  
     402A      0.314358   403A      0.319029   404A      0.320559  
     405A      0.322644   406A      0.325020   407A      0.325567  
     408A      0.326656   409A      0.327988   410A      0.328612  
     411A      0.329070   412A      0.330591   413A      0.331136  
     414A      0.333525   415A      0.334226   416A      0.336552  
     417A      0.336671   418A      0.339287   419A      0.341985  
     420A      0.342365   421A      0.344967   422A      0.345462  
     423A      0.345924   424A      0.346814   425A      0.347082  
     426A      0.348434   427A      0.348923   428A      0.351203  
     429A      0.355812   430A      0.356962   431A      0.357584  
     432A      0.360235   433A      0.360960   434A      0.361432  
     435A      0.363226   436A      0.365905   437A      0.368240  
     438A      0.373044   439A      0.374766   440A      0.378757  
     441A      0.379772   442A      0.380971   443A      0.381554  
     444A      0.382224   445A      0.382923   446A      0.386001  
     447A      0.386760   448A      0.390778   449A      0.391803  
     450A      0.392922   451A      0.393343   452A      0.396815  
     453A      0.397783   454A      0.399174   455A      0.399693  
     456A      0.400172   457A      0.403075   458A      0.406022  
     459A      0.409013   460A      0.410421   461A      0.412136  
     462A      0.412189   463A      0.413491   464A      0.417847  
     465A      0.418633   466A      0.420286   467A      0.421205  
     468A      0.422325   469A      0.431032   470A      0.431622  
     471A      0.433377   472A      0.434521   473A      0.434912  
     474A      0.435890   475A      0.437666   476A      0.438225  
     477A      0.439153   478A      0.444419   479A      0.446441  
     480A      0.449588   481A      0.451004   482A      0.451650  
     483A      0.452253   484A      0.456761   485A      0.457794  
     486A      0.461744   487A      0.463113   488A      0.464761  
     489A      0.474235   490A      0.475087   491A      0.475896  
     492A      0.477358   493A      0.480479   494A      0.482053  
     495A      0.486029   496A      0.486905   497A      0.486950  
     498A      0.487685   499A      0.488681   500A      0.492030  
     501A      0.493032   502A      0.494136   503A      0.496095  
     504A      0.498953   505A      0.499119   506A      0.499600  
     507A      0.506637   508A      0.513081   509A      0.513797  
     510A      0.525263   511A      0.527504   512A      0.533243  
     513A      0.533835   514A      0.534222   515A      0.534666  
     516A      0.540813   517A      0.550560   518A      0.551019  
     519A      0.555443   520A      0.557678   521A      0.563714  
     522A      0.564033   523A      0.579506   524A      0.583541  
     525A      0.588418   526A      0.590488   527A      0.602946  
     528A      0.603517   529A      0.606215   530A      0.613559  
     531A      0.613998   532A      0.616840   533A      0.621014  
     534A      0.651595   535A      0.652664   536A      0.656671  
     537A      0.659276   538A      0.674978   539A      0.677233  
     540A      0.678079   541A      0.680444   542A      0.680953  
     543A      0.681497   544A      0.684032   545A      0.686750  
     546A      0.693749   547A      0.693803   548A      0.696220  
     549A      0.702013   550A      0.708190   551A      0.714559  
     552A      0.720687   553A      0.725536   554A      0.727127  
     555A      0.729377   556A      0.733418   557A      0.733784  
     558A      0.737967   559A      0.743821   560A      0.744962  
     561A      0.746299   562A      0.751130   563A      0.756165  
     564A      0.757582   565A      0.763886   566A      0.764859  
     567A      0.765179   568A      0.766330   569A      0.767320  
     570A      0.775414   571A      0.776620   572A      0.784988  
     573A      0.788249   574A      0.789257   575A      0.792776  
     576A      0.794679   577A      0.797242   578A      0.799721  
     579A      0.800133   580A      0.803726   581A      0.805142  
     582A      0.807030   583A      0.815048   584A      0.815623  
     585A      0.816305   586A      0.817299   587A      0.818842  
     588A      0.821010   589A      0.822194   590A      0.826916  
     591A      0.829003   592A      0.833424   593A      0.835875  
     594A      0.837283   595A      0.840007   596A      0.843525  
     597A      0.844628   598A      0.847299   599A      0.849021  
     600A      0.850029   601A      0.852186   602A      0.852902  
     603A      0.856173   604A      0.859405   605A      0.859811  
     606A      0.865225   607A      0.866059   608A      0.866926  
     609A      0.867740   610A      0.873594   611A      0.874317  
     612A      0.876120   613A      0.879903   614A      0.882134  
     615A      0.883069   616A      0.887397   617A      0.889817  
     618A      0.892861   619A      0.894791   620A      0.897510  
     621A      0.899432   622A      0.903883   623A      0.906553  
     624A      0.908579   625A      0.909938   626A      0.910629  
     627A      0.911000   628A      0.912023   629A      0.912730  
     630A      0.915079   631A      0.917851   632A      0.920185  
     633A      0.924526   634A      0.925851   635A      0.929954  
     636A      0.932021   637A      0.932154   638A      0.938028  
     639A      0.940290   640A      0.945231   641A      0.951652  
     642A      0.954904   643A      0.955351   644A      0.957251  
     645A      0.957599   646A      0.962839   647A      0.970466  
     648A      0.970950   649A      0.971461   650A      0.973741  
     651A      0.977098   652A      0.978586   653A      0.979200  
     654A      0.979705   655A      0.980259   656A      0.982280  
     657A      0.982387   658A      0.983611   659A      0.984618  
     660A      0.986086   661A      0.990710   662A      0.992455  
     663A      0.993990   664A      0.994179   665A      0.996368  
     666A      0.997792   667A      0.998814   668A      1.003764  
     669A      1.006667   670A      1.009434   671A      1.010268  
     672A      1.012155   673A      1.014841   674A      1.019095  
     675A      1.020474   676A      1.022274   677A      1.022853  
     678A      1.024580   679A      1.025366   680A      1.026557  
     681A      1.031075   682A      1.032252   683A      1.033833  
     684A      1.039415   685A      1.041398   686A      1.044724  
     687A      1.046563   688A      1.050474   689A      1.050586  
     690A      1.052240   691A      1.054450   692A      1.056886  
     693A      1.058294   694A      1.059020   695A      1.059961  
     696A      1.062117   697A      1.065964   698A      1.068552  
     699A      1.071653   700A      1.075647   701A      1.075812  
     702A      1.077024   703A      1.077878   704A      1.080139  
     705A      1.080669   706A      1.082202   707A      1.088479  
     708A      1.090871   709A      1.104416   710A      1.109198  
     711A      1.109578   712A      1.113772   713A      1.114982  
     714A      1.118568   715A      1.120056   716A      1.120559  
     717A      1.122415   718A      1.125849   719A      1.134796  
     720A      1.134906   721A      1.138518   722A      1.139717  
     723A      1.146253   724A      1.151265   725A      1.155858  
     726A      1.156469   727A      1.157125   728A      1.160116  
     729A      1.160493   730A      1.165804   731A      1.168660  
     732A      1.174170   733A      1.178175   734A      1.178851  
     735A      1.180823   736A      1.196268   737A      1.197823  
     738A      1.198198   739A      1.199866   740A      1.200010  
     741A      1.202868   742A      1.204071   743A      1.205189  
     744A      1.206246   745A      1.215635   746A      1.216010  
     747A      1.222624   748A      1.231860   749A      1.233558  
     750A      1.235051   751A      1.236893   752A      1.240801  
     753A      1.243610   754A      1.247326   755A      1.248156  
     756A      1.249228   757A      1.251476   758A      1.257409  
     759A      1.257880   760A      1.260516   761A      1.262484  
     762A      1.266138   763A      1.266239   764A      1.272166  
     765A      1.279973   766A      1.281165   767A      1.283411  
     768A      1.284652   769A      1.287583   770A      1.289567  
     771A      1.289703   772A      1.295482   773A      1.296191  
     774A      1.297113   775A      1.299417   776A      1.303085  
     777A      1.308357   778A      1.318216   779A      1.327609  
     780A      1.328103   781A      1.335127   782A      1.338879  
     783A      1.342867   784A      1.344679   785A      1.345295  
     786A      1.349988   787A      1.350152   788A      1.354794  
     789A      1.358067   790A      1.361482   791A      1.363139  
     792A      1.363579   793A      1.366289   794A      1.369450  
     795A      1.372059   796A      1.372714   797A      1.375875  
     798A      1.376182   799A      1.377256   800A      1.377889  
     801A      1.385116   802A      1.387551   803A      1.387952  
     804A      1.388723   805A      1.398546   806A      1.400032  
     807A      1.402084   808A      1.412901   809A      1.413781  
     810A      1.452926   811A      1.453630   812A      1.454711  
     813A      1.456604   814A      1.456827   815A      1.471227  
     816A      1.487136   817A      1.493068   818A      1.499838  
     819A      1.513417   820A      1.524284   821A      1.533081  
     822A      1.535365   823A      1.535958   824A      1.541449  
     825A      1.542925   826A      1.543939   827A      1.545516  
     828A      1.546545   829A      1.547407   830A      1.551889  
     831A      1.557847   832A      1.559183   833A      1.566629  
     834A      1.567308   835A      1.576217   836A      1.577185  
     837A      1.578290   838A      1.578769   839A      1.579108  
     840A      1.580300   841A      1.587124   842A      1.588311  
     843A      1.596930   844A      1.597076   845A      1.603385  
     846A      1.609898   847A      1.610279   848A      1.611582  
     849A      1.613203   850A      1.613688   851A      1.619705  
     852A      1.621988   853A      1.622093   854A      1.629299  
     855A      1.631905   856A      1.633557   857A      1.635515  
     858A      1.635740   859A      1.636791   860A      1.638614  
     861A      1.638700   862A      1.642244   863A      1.652675  
     864A      1.652884   865A      1.676997   866A      1.686115  
     867A      1.688149   868A      1.690796   869A      1.696743  
     870A      1.697927   871A      1.697974   872A      1.700763  
     873A      1.708356   874A      1.712755   875A      1.713180  
     876A      1.727127   877A      1.727676   878A      1.730494  
     879A      1.750499   880A      1.753248   881A      1.754288  
     882A      1.755956   883A      1.758788   884A      1.759208  
     885A      1.759646   886A      1.767155   887A      1.767277  
     888A      1.772230   889A      1.776229   890A      1.777040  
     891A      1.777819   892A      1.779850   893A      1.783201  
     894A      1.798033   895A      1.798596   896A      1.799662  
     897A      1.800845   898A      1.801443   899A      1.804842  
     900A      1.808762   901A      1.814370   902A      1.814818  
     903A      1.816901   904A      1.830357   905A      1.831746  
     906A      1.832099   907A      1.835463   908A      1.838234  
     909A      1.840412   910A      1.841453   911A      1.843144  
     912A      1.844926   913A      1.845975   914A      1.852393  
     915A      1.852745   916A      1.853709   917A      1.854219  
     918A      1.854560   919A      1.857542   920A      1.857778  
     921A      1.868856   922A      1.875886   923A      1.879573  
     924A      1.880203   925A      1.881826   926A      1.884279  
     927A      1.886544   928A      1.887484   929A      1.890021  
     930A      1.891174   931A      1.891496   932A      1.893354  
     933A      1.893665   934A      1.901651   935A      1.911534  
     936A      1.916727   937A      1.918918   938A      1.924245  
     939A      1.926541   940A      1.929115   941A      1.933178  
     942A      1.936251   943A      1.937098   944A      1.942859  
     945A      1.946366   946A      1.949814   947A      1.950377  
     948A      1.962840   949A      1.965702   950A      1.966481  
     951A      1.967634   952A      1.967900   953A      1.968403  
     954A      1.970335   955A      1.980582   956A      1.985168  
     957A      1.988369   958A      1.989767   959A      1.992264  
     960A      1.994681   961A      1.998199   962A      1.999307  
     963A      2.000961   964A      2.004996   965A      2.007320  
     966A      2.008467   967A      2.009520   968A      2.014668  
     969A      2.015497   970A      2.018486   971A      2.020274  
     972A      2.024492   973A      2.029832   974A      2.031504  
     975A      2.033198   976A      2.034322   977A      2.036688  
     978A      2.037055   979A      2.042585   980A      2.045177  
     981A      2.045357   982A      2.045976   983A      2.047098  
     984A      2.047680   985A      2.048377   986A      2.052354  
     987A      2.055457   988A      2.055661   989A      2.057260  
     990A      2.057536   991A      2.063180   992A      2.064258  
     993A      2.068639   994A      2.070348   995A      2.070739  
     996A      2.072959   997A      2.073378   998A      2.079698  
     999A      2.079872  1000A      2.090125  1001A      2.092921  
    1002A      2.094774  1003A      2.096065  1004A      2.098628  
    1005A      2.098648  1006A      2.105904  1007A      2.115593  
    1008A      2.116380  1009A      2.127323  1010A      2.128133  
    1011A      2.128826  1012A      2.129144  1013A      2.129308  
    1014A      2.132452  1015A      2.136903  1016A      2.139073  
    1017A      2.154683  1018A      2.154906  1019A      2.155414  
    1020A      2.158118  1021A      2.162258  1022A      2.164155  
    1023A      2.165206  1024A      2.167196  1025A      2.177831  
    1026A      2.180632  1027A      2.181243  1028A      2.182244  
    1029A      2.183013  1030A      2.184018  1031A      2.186520  
    1032A      2.198030  1033A      2.198151  1034A      2.206676  
    1035A      2.206801  1036A      2.209366  1037A      2.209617  
    1038A      2.216270  1039A      2.219651  1040A      2.237150  
    1041A      2.243044  1042A      2.244273  1043A      2.247444  
    1044A      2.248655  1045A      2.256571  1046A      2.258518  
    1047A      2.264648  1048A      2.264748  1049A      2.266281  
    1050A      2.268926  1051A      2.274108  1052A      2.286394  
    1053A      2.287110  1054A      2.288455  1055A      2.289217  
    1056A      2.301600  1057A      2.301781  1058A      2.308649  
    1059A      2.315116  1060A      2.317796  1061A      2.350804  
    1062A      2.353002  1063A      2.359345  1064A      2.360247  
    1065A      2.360356  1066A      2.361889  1067A      2.373074  
    1068A      2.376327  1069A      2.376766  1070A      2.405734  
    1071A      2.410346  1072A      2.410931  1073A      2.422143  
    1074A      2.422189  1075A      2.438112  1076A      2.456411  
    1077A      2.465563  1078A      2.466607  1079A      2.466778  
    1080A      2.481188  1081A      2.482232  1082A      2.482631  
    1083A      2.487238  1084A      2.488849  1085A      2.492865  
    1086A      2.493065  1087A      2.495883  1088A      2.496096  
    1089A      2.508558  1090A      2.508600  1091A      2.512998  
    1092A      2.513279  1093A      2.515665  1094A      2.522104  
    1095A      2.522892  1096A      2.523375  1097A      2.526009  
    1098A      2.529524  1099A      2.543752  1100A      2.560952  
    1101A      2.561006  1102A      2.561920  1103A      2.566961  
    1104A      2.567601  1105A      2.578442  1106A      2.578542  
    1107A      2.588509  1108A      2.589236  1109A      2.593528  
    1110A      2.595871  1111A      2.617619  1112A      2.618911  
    1113A      2.620371  1114A      2.625280  1115A      2.627355  
    1116A      2.635946  1117A      2.636404  1118A      2.647785  
    1119A      2.647957  1120A      2.653775  1121A      2.653932  
    1122A      2.657616  1123A      2.659419  1124A      2.665045  
    1125A      2.674028  1126A      2.683434  1127A      2.690185  
    1128A      2.690480  1129A      2.705827  1130A      2.712041  
    1131A      2.720832  1132A      2.721793  1133A      2.728123  
    1134A      2.730109  1135A      2.730993  1136A      2.752423  
    1137A      2.754670  1138A      2.761639  1139A      2.764289  
    1140A      2.770516  1141A      2.788169  1142A      2.789161  
    1143A      2.789565  1144A      2.791907  1145A      2.795498  
    1146A      2.796016  1147A      2.804988  1148A      2.825742  
    1149A      2.855555  1150A      2.855945  1151A      2.860894  
    1152A      2.871393  1153A      2.871503  1154A      2.886344  
    1155A      2.886936  1156A      2.900131  1157A      2.932297  
    1158A      2.944146  1159A      2.945447  1160A      2.949683  
    1161A      2.966903  1162A      2.994502  1163A      2.998543  
    1164A      2.999608  1165A      3.006531  1166A      3.006584  
    1167A      3.046634  1168A      3.047572  1169A      3.065446  
    1170A      3.066243  1171A      3.066745  1172A      3.067100  
    1173A      3.074082  1174A      3.080572  1175A      3.082278  
    1176A      3.084033  1177A      3.084830  1178A      3.086560  
    1179A      3.086838  1180A      3.095728  1181A      3.096017  
    1182A      3.103270  1183A      3.103754  1184A      3.129203  
    1185A      3.148812  1186A      3.154654  1187A      3.174527  
    1188A      3.208915  1189A      3.212370  1190A      3.212581  
    1191A      3.218735  1192A      3.219285  1193A      3.351333  
    1194A      3.352022  1195A      3.373573  1196A      3.416375  
    1197A      3.418849  1198A      3.456919  1199A      3.483629  
    1200A      3.511398  1201A      3.513307  1202A      3.528018  
    1203A      3.544315  1204A      3.562034  1205A      3.564516  
    1206A      3.598762  1207A      3.605959  1208A      3.704201  
    1209A      3.717210  1210A      3.718611  1211A      3.807243  
    1212A      3.807368  1213A      3.849310  1214A      3.849443  
    1215A      3.911323  1216A      3.945140  1217A      3.966202  
    1218A      3.983930  1219A      4.015097  

    Final Occupation by Irrep:
              A 
    DOCC [   197 ]
    NA   [   197 ]
    NB   [   197 ]

  @DF-RHF Final Energy: -2359.20332906352451

   => Energetics <=

    Nuclear Repulsion Energy =           7982.6956844274645846
    One-Electron Energy =              -19068.7536761740047950
    Two-Electron Energy =                8726.8546626830157038
    Total Energy =                      -2359.2033290635245066

Computation Completed


Properties will be evaluated at   0.000000,   0.000000,   0.000000 [a0]

Properties computed using the SCF density matrix


 Multipole Moments:

 ------------------------------------------------------------------------------------
     Multipole            Electronic (a.u.)      Nuclear  (a.u.)        Total (a.u.)
 ------------------------------------------------------------------------------------

 L = 1.  Multiply by 2.5417464519 to convert [e a0] to [Debye]
 Dipole X            :         -0.0019155            0.0006313           -0.0012842
 Dipole Y            :         -5.7255185            7.4856329            1.7601144
 Dipole Z            :         21.7151268          -30.4317957           -8.7166688
 Magnitude           :                                                    8.8925991

 ------------------------------------------------------------------------------------

*** tstop() called on d-3-8-3 at Mon Jan 22 22:29:57 2024
Module time:
	user time   =    4169.56 seconds =      69.49 minutes
	system time =     332.21 seconds =       5.54 minutes
	total time  =        986 seconds =      16.43 minutes
Total time:
	user time   =    4169.56 seconds =      69.49 minutes
	system time =     332.21 seconds =       5.54 minutes
	total time  =        986 seconds =      16.43 minutes

  //>>>>>>>>>>>>>>>>>>>>>>>>>>>>>>>>>>>//
  //            Monomer A HF           //
  //<<<<<<<<<<<<<<<<<<<<<<<<<<<<<<<<<<<//

   => Libint2 <=

    Primary   basis highest AM E, G, H:  7, 7, 4
    Auxiliary basis highest AM E, G, H:  7, 7, 5
    Onebody   basis highest AM E, G, H:  7, 7, 5
    Solid Harmonics ordering:            gaussian

*** tstart() called on d-3-8-3
*** at Mon Jan 22 22:29:57 2024

   => Loading Basis Set <=

    Name: JUN-CC-PVDZ
    Role: ORBITAL
    Keyword: BASIS
    atoms 1-2, 4-5, 10, 17-70 entry C          line   164 file /home/gridsan/tfroembgen/.conda/envs/psi4test/share/psi4/basis/jun-cc-pvdz.gbs 
    atoms 3, 6                entry N          line   198 file /home/gridsan/tfroembgen/.conda/envs/psi4test/share/psi4/basis/jun-cc-pvdz.gbs 
    atoms 7-9, 11-16, 71-88   entry H          line    36 file /home/gridsan/tfroembgen/.conda/envs/psi4test/share/psi4/basis/jun-cc-pvdz.gbs 


         ---------------------------------------------------------
                                   SCF
               by Justin Turney, Rob Parrish, Andy Simmonett
                          and Daniel G. A. Smith
                              RHF Reference
                       12 Threads,  30517 MiB Core
         ---------------------------------------------------------

  ==> Geometry <==

    Molecular point group: c1
    Full point group: C1

    Geometry (in Angstrom), charge = 1, multiplicity = 1:

       Center              X                  Y                   Z               Mass       
    ------------   -----------------  -----------------  -----------------  -----------------
         C            0.680066520158     1.235968212970    -6.627329311776    12.000000000000
         C           -0.680504479842     1.237996212970    -6.626945311776    12.000000000000
         N           -1.085635479842     1.238994212970    -5.308621311776    14.003074004430
         C            0.000107520158     1.242270212970    -4.527220311776    12.000000000000
         C           -2.477365479842     1.288400212970    -4.840642311776    12.000000000000
         N            1.085221520158     1.238994212970    -5.308621311776    14.003074004430
         H            1.385145520158     1.228140212970    -7.444768311776     1.007825032230
         H           -1.385302479842     1.237806212970    -7.444614311776     1.007825032230
         H           -0.000009479842     1.244017212970    -3.446131311776     1.007825032230
         C            2.478116520158     1.222102212970    -4.843523311776    12.000000000000
         H            2.490591520158     1.249447212970    -3.753270311776     1.007825032230
         H            2.967027520158     0.308656212970    -5.190699311776     1.007825032230
         H            3.001427520158     2.097585212970    -5.234995311776     1.007825032230
         H           -2.857359479842     2.310471212970    -4.920601311776     1.007825032230
         H           -3.082679479842     0.618316212970    -5.453706311776     1.007825032230
         H           -2.518128479842     0.961416212970    -3.800694311776     1.007825032230
      Gh(C)           1.225311895423     0.526248873889     0.794737315507    12.000000000000
      Gh(C)           1.225323856051    -0.888828309601     0.782406505937    12.000000000000
      Gh(C)          -0.000006153932     1.233676499060     0.781872882416    12.000000000000
      Gh(C)           2.456448753949     1.237038472148     0.797624172907    12.000000000000
      Gh(C)           0.000010827279    -1.596265913665     0.792072439741    12.000000000000
      Gh(C)          -1.225300948908     0.526255958954     0.796988835830    12.000000000000
      Gh(C)           2.456437755320    -1.599612718911     0.780161349080    12.000000000000
      Gh(C)          -0.000001332978     2.655511616251     0.779469332282    12.000000000000
      Gh(C)           3.681826697470     0.528028540971     0.780510138878    12.000000000000
      Gh(C)           2.455120048865     2.652934246459     0.780407581917    12.000000000000
      Gh(C)           3.681821105219    -0.890623254459     0.796582622896    12.000000000000
      Gh(C)          -1.225313598688    -0.888816930574     0.783479267364    12.000000000000
      Gh(C)           1.226699581202     3.362180068964     0.796766654827    12.000000000000
      Gh(C)           0.000004784858    -3.018071554266     0.796920607362    12.000000000000
      Gh(C)          -2.456436032848     1.237027503255     0.797024231676    12.000000000000
      Gh(C)           2.455123417779    -3.015519443619     0.796430714529    12.000000000000
      Gh(C)          -1.226714364589     3.362179648720     0.796869988046    12.000000000000
      Gh(C)           4.914517295202     1.245883457459     0.786990821908    12.000000000000
      Gh(C)           3.693150191476     3.361505877515     0.787040621544    12.000000000000
      Gh(C)          -2.456437600068    -1.599602695869     0.780136310956    12.000000000000
      Gh(C)           1.226704841943    -3.724763656937     0.780796524077    12.000000000000
      Gh(C)          -2.455125398508     2.652927247604     0.780413958264    12.000000000000
      Gh(C)           4.914524380782    -1.608476324974     0.789963564642    12.000000000000
      Gh(C)           1.221424613699     4.788844650230     0.790101998902    12.000000000000
      Gh(C)           4.893008229321     2.643898584996     0.788207490266    12.000000000000
      Gh(C)          -1.226697008489    -3.724760412107     0.781063728487    12.000000000000
      Gh(C)          -3.681818976526     0.528035551702     0.780522819358    12.000000000000
      Gh(C)           3.693147101150    -3.724090756421     0.790081455203    12.000000000000
      Gh(C)          -1.221432251994     4.788838882833     0.790285494274    12.000000000000
      Gh(C)           6.134770972926     0.499258532075     0.787760596457    12.000000000000
      Gh(C)           3.656788880610     4.791663828537     0.787949259326    12.000000000000
      Gh(C)          -2.455126907733    -3.015504508091     0.796186356731    12.000000000000
      Gh(C)          -3.681819179061    -0.890615118499     0.796700244475    12.000000000000
      Gh(C)           4.893012617914    -3.006489520662     0.788818642162    12.000000000000
      Gh(C)          -0.000001073113     5.469157951002     0.789054185568    12.000000000000
      Gh(C)           6.134775112332    -0.861844269105     0.789025916973    12.000000000000
      Gh(C)           2.478131482856     5.472287336301     0.789238038976    12.000000000000
      Gh(C)           1.221422404738    -5.151416469963     0.787302501879    12.000000000000
      Gh(C)          -3.693162383965     3.361507539162     0.787206129003    12.000000000000
      Gh(C)          -1.221428520945    -5.151407718626     0.787189740046    12.000000000000
      Gh(C)          -4.914521807942     1.245886031965     0.787067766915    12.000000000000
      Gh(C)           3.656787019679    -5.154244641269     0.789399759860    12.000000000000
      Gh(C)          -2.478138530106     5.472285007498     0.789522563985    12.000000000000
      Gh(C)          -3.693141738564    -3.724079634009     0.789965329047    12.000000000000
      Gh(C)          -4.914512483053    -1.608470415058     0.789998261816    12.000000000000
      Gh(C)          -0.000006008926    -5.831727702044     0.788658681446    12.000000000000
      Gh(C)          -4.893020484101     2.643899183889     0.788197408406    12.000000000000
      Gh(C)           2.478125993298    -5.834862958919     0.788309159068    12.000000000000
      Gh(C)          -3.656798710258     4.791666767011     0.788125939701    12.000000000000
      Gh(C)          -4.892999478856    -3.006481182090     0.788664606464    12.000000000000
      Gh(C)          -2.478128498083    -5.834855585037     0.788033971421    12.000000000000
      Gh(C)          -6.134770503331     0.499259351226     0.787735044755    12.000000000000
      Gh(C)          -3.656788833189    -5.154233438001     0.789185472044    12.000000000000
      Gh(C)          -6.134765042913    -0.861843330512     0.789005441178    12.000000000000
      Gh(H)           5.835288495816     3.187986479924     0.792566815929     1.007825032230
      Gh(H)           7.073859172747     1.046927833869     0.788222239851     1.007825032230
      Gh(H)           4.600663264174     5.331091387423     0.788454460078     1.007825032230
      Gh(H)           5.835283387305    -3.550595471759     0.784364174847     1.007825032230
      Gh(H)          -0.000012151306     6.557241259106     0.784704940560     1.007825032230
      Gh(H)           7.073861171831    -1.409516357774     0.788517178879     1.007825032230
      Gh(H)           2.473313731799     6.559394876364     0.788771318046     1.007825032230
      Gh(H)           4.600668491381    -5.693665544206     0.788989762692     1.007825032230
      Gh(H)          -2.473318680537     6.559392304576     0.789072664671     1.007825032230
      Gh(H)          -0.000010268228    -6.919817591482     0.793188366431     1.007825032230
      Gh(H)          -5.835301914343     3.187981535266     0.792702838077     1.007825032230
      Gh(H)           2.473307923831    -6.921974789459     0.788879489493     1.007825032230
      Gh(H)          -4.600674841208     5.331088611573     0.788619788402     1.007825032230
      Gh(H)          -5.835279506835    -3.550578378810     0.784084868966     1.007825032230
      Gh(H)          -2.473300347440    -6.921968493170     0.788430172949     1.007825032230
      Gh(H)          -7.073857766768     1.046931057810     0.788138248370     1.007825032230
      Gh(H)          -4.600673786085    -5.693652084817     0.788817454669     1.007825032230
      Gh(H)          -7.073856934409    -1.409510047007     0.788422322412     1.007825032230

  Running in c1 symmetry.

  Rotational constants: A =      0.00153  B =      0.00152  C =      0.00107 [cm^-1]
  Rotational constants: A =     45.73641  B =     45.50751  C =     32.09876 [MHz]
  Nuclear repulsion =  306.774908447733139

  Charge       = 1
  Multiplicity = 1
  Electrons    = 52
  Nalpha       = 26
  Nbeta        = 26

  ==> Algorithm <==

  SCF Algorithm Type is DF.
  DIIS enabled.
  MOM disabled.
  Fractional occupation disabled.
  Guess Type is SAD.
  Energy threshold   = 1.00e-08
  Density threshold  = 1.00e-08
  Integral threshold = 1.00e-12

  ==> Primary Basis <==

  Basis Set: JUN-CC-PVDZ
    Blend: JUN-CC-PVDZ
    Number of shells: 569
    Number of basis functions: 1233
    Number of Cartesian functions: 1294
    Spherical Harmonics?: true
    Max angular momentum: 2

   => Loading Basis Set <=

    Name: (JUN-CC-PVDZ AUX)
    Role: JKFIT
    Keyword: DF_BASIS_SCF
    atoms 1-2, 4-5, 10, 17-70 entry C          line   146 file /home/gridsan/tfroembgen/.conda/envs/psi4test/share/psi4/basis/jun-cc-pvdz-jkfit.gbs 
    atoms 3, 6                entry N          line   202 file /home/gridsan/tfroembgen/.conda/envs/psi4test/share/psi4/basis/jun-cc-pvdz-jkfit.gbs 
    atoms 7-9, 11-16, 71-88   entry H          line    70 file /home/gridsan/tfroembgen/.conda/envs/psi4test/share/psi4/basis/jun-cc-pvdz-jkfit.gbs 

  ==> Integral Setup <==

  ==> DiskDFJK: Density-Fitted J/K Matrices <==

    J tasked:                  Yes
    K tasked:                  Yes
    wK tasked:                  No
    OpenMP threads:             12
    Integrals threads:          12
    Memory [MiB]:            22888
    Algorithm:                Disk
    Integral Cache:           LOAD
    Schwarz Cutoff:          1E-12
    Fitting Condition:       1E-10

   => Auxiliary Basis Set <=

  Basis Set: (JUN-CC-PVDZ AUX)
    Blend: JUN-CC-PVDZ-JKFIT
    Number of shells: 1890
    Number of basis functions: 5440
    Number of Cartesian functions: 6226
    Spherical Harmonics?: true
    Max angular momentum: 3

  Minimum eigenvalue in the overlap matrix is 8.3246034504E-10.
  Reciprocal condition number of the overlap matrix is 3.7044879274E-11.
    Using canonical orthogonalization.
  Overall, 14 of 1233 possible MOs eliminated.


  ==> Pre-Iterations <==

  SCF Guess: Superposition of Atomic Densities via on-the-fly atomic UHF (no occupation information).

   -------------------------
    Irrep   Nso     Nmo    
   -------------------------
     A       1233    1219 
   -------------------------
    Total    1233    1219
   -------------------------

  ==> Iterations <==

                           Total Energy        Delta E     RMS |[F,P]|

   @DF-RHF iter SAD:  -303.36534532591702   -3.03365e+02   0.00000e+00 
   @DF-RHF iter   1:  -303.16955307114580    1.95792e-01   3.44210e-04 DIIS/ADIIS
   @DF-RHF iter   2:  -303.28390452352227   -1.14351e-01   1.15903e-04 DIIS/ADIIS
   @DF-RHF iter   3:  -303.29536320753181   -1.14587e-02   4.53567e-05 DIIS
   @DF-RHF iter   4:  -303.29726886705151   -1.90566e-03   9.90375e-06 DIIS
   @DF-RHF iter   5:  -303.29737475119532   -1.05884e-04   2.41579e-06 DIIS
   @DF-RHF iter   6:  -303.29738403931111   -9.28812e-06   6.54653e-07 DIIS
   @DF-RHF iter   7:  -303.29738511378326   -1.07447e-06   3.32721e-07 DIIS
   @DF-RHF iter   8:  -303.29738536737955   -2.53596e-07   1.33900e-07 DIIS
   @DF-RHF iter   9:  -303.29738541606696   -4.86874e-08   3.37206e-08 DIIS
   @DF-RHF iter  10:  -303.29738541889503   -2.82807e-09   1.26360e-08 DIIS
   @DF-RHF iter  11:  -303.29738541914213   -2.47098e-10   2.96560e-09 DIIS
  Energy and wave function converged.


  ==> Post-Iterations <==

    Orbital Energies [Eh]
    ---------------------

    Doubly Occupied:                                                      

       1A    -15.834638     2A    -15.834108     3A    -11.529495  
       4A    -11.459832     5A    -11.458276     6A    -11.449646  
       7A    -11.449536     8A     -1.578148     9A     -1.433746  
      10A     -1.238592    11A     -1.189252    12A     -1.118819  
      13A     -1.022462    14A     -0.996887    15A     -0.916984  
      16A     -0.850473    17A     -0.816195    18A     -0.813124  
      19A     -0.790059    20A     -0.786187    21A     -0.781700  
      22A     -0.729662    23A     -0.725743    24A     -0.717072  
      25A     -0.596240    26A     -0.523798  

    Virtual:                                                              

      27A     -0.076583    28A     -0.071900    29A     -0.059957  
      30A     -0.051592    31A     -0.038862    32A     -0.037876  
      33A     -0.037335    34A     -0.033780    35A     -0.033183  
      36A     -0.026127    37A     -0.025278    38A     -0.016070  
      39A     -0.015477    40A     -0.013707    41A     -0.013312  
      42A     -0.009032    43A     -0.007207    44A     -0.005413  
      45A     -0.004885    46A      0.001400    47A      0.003733  
      48A      0.006422    49A      0.009846    50A      0.013877  
      51A      0.014935    52A      0.016536    53A      0.017062  
      54A      0.020546    55A      0.022511    56A      0.026960  
      57A      0.028427    58A      0.032832    59A      0.034137  
      60A      0.035023    61A      0.035701    62A      0.035843  
      63A      0.042168    64A      0.044732    65A      0.045778  
      66A      0.047147    67A      0.048348    68A      0.049060  
      69A      0.053219    70A      0.055730    71A      0.058920  
      72A      0.059710    73A      0.059957    74A      0.060533  
      75A      0.066171    76A      0.066604    77A      0.067224  
      78A      0.068462    79A      0.070661    80A      0.072859  
      81A      0.077118    82A      0.077365    83A      0.078231  
      84A      0.079810    85A      0.080953    86A      0.082271  
      87A      0.086282    88A      0.086901    89A      0.087678  
      90A      0.087844    91A      0.088765    92A      0.091670  
      93A      0.093712    94A      0.094526    95A      0.095295  
      96A      0.097005    97A      0.099271    98A      0.100951  
      99A      0.104493   100A      0.106328   101A      0.108319  
     102A      0.110536   103A      0.110617   104A      0.111050  
     105A      0.112424   106A      0.114744   107A      0.116953  
     108A      0.117005   109A      0.119352   110A      0.119836  
     111A      0.121506   112A      0.123467   113A      0.124659  
     114A      0.126745   115A      0.129561   116A      0.130155  
     117A      0.132949   118A      0.134509   119A      0.135037  
     120A      0.136572   121A      0.137616   122A      0.138515  
     123A      0.142494   124A      0.143737   125A      0.143947  
     126A      0.145592   127A      0.147726   128A      0.149147  
     129A      0.150305   130A      0.151164   131A      0.153009  
     132A      0.154656   133A      0.156920   134A      0.157877  
     135A      0.158224   136A      0.160016   137A      0.162411  
     138A      0.164153   139A      0.164418   140A      0.164980  
     141A      0.165173   142A      0.167235   143A      0.168196  
     144A      0.171060   145A      0.171814   146A      0.177111  
     147A      0.177285   148A      0.177904   149A      0.178357  
     150A      0.181164   151A      0.182463   152A      0.183561  
     153A      0.184666   154A      0.185530   155A      0.188355  
     156A      0.189633   157A      0.190554   158A      0.192254  
     159A      0.192367   160A      0.194782   161A      0.196963  
     162A      0.200688   163A      0.205005   164A      0.207119  
     165A      0.210135   166A      0.210521   167A      0.212480  
     168A      0.214010   169A      0.215280   170A      0.215540  
     171A      0.218624   172A      0.218819   173A      0.219143  
     174A      0.219254   175A      0.220492   176A      0.223005  
     177A      0.226147   178A      0.226894   179A      0.228492  
     180A      0.228742   181A      0.229832   182A      0.231714  
     183A      0.233056   184A      0.233644   185A      0.235169  
     186A      0.239564   187A      0.240779   188A      0.242691  
     189A      0.244092   190A      0.244280   191A      0.246999  
     192A      0.247801   193A      0.249836   194A      0.251663  
     195A      0.259316   196A      0.261774   197A      0.262235  
     198A      0.265203   199A      0.268689   200A      0.270241  
     201A      0.271051   202A      0.271873   203A      0.272725  
     204A      0.273208   205A      0.280326   206A      0.282132  
     207A      0.282633   208A      0.284703   209A      0.287129  
     210A      0.288037   211A      0.289494   212A      0.289667  
     213A      0.292204   214A      0.292737   215A      0.293437  
     216A      0.295958   217A      0.297382   218A      0.298048  
     219A      0.300637   220A      0.301360   221A      0.305403  
     222A      0.306046   223A      0.308042   224A      0.309042  
     225A      0.311685   226A      0.312345   227A      0.314159  
     228A      0.316996   229A      0.320294   230A      0.320570  
     231A      0.324894   232A      0.330504   233A      0.331298  
     234A      0.333981   235A      0.335646   236A      0.337605  
     237A      0.341789   238A      0.344563   239A      0.349763  
     240A      0.350594   241A      0.351281   242A      0.352295  
     243A      0.354218   244A      0.359508   245A      0.361211  
     246A      0.363587   247A      0.366366   248A      0.366487  
     249A      0.366825   250A      0.368813   251A      0.372279  
     252A      0.372777   253A      0.372993   254A      0.377760  
     255A      0.379795   256A      0.381854   257A      0.382243  
     258A      0.384949   259A      0.386023   260A      0.386572  
     261A      0.390916   262A      0.391891   263A      0.392329  
     264A      0.394719   265A      0.396971   266A      0.397917  
     267A      0.399502   268A      0.402657   269A      0.405591  
     270A      0.405977   271A      0.406066   272A      0.408968  
     273A      0.409479   274A      0.411224   275A      0.412567  
     276A      0.412919   277A      0.416267   278A      0.418082  
     279A      0.419422   280A      0.420325   281A      0.421117  
     282A      0.423138   283A      0.425889   284A      0.430034  
     285A      0.431186   286A      0.433197   287A      0.434368  
     288A      0.436198   289A      0.437723   290A      0.440486  
     291A      0.443759   292A      0.447518   293A      0.449656  
     294A      0.455209   295A      0.457578   296A      0.458273  
     297A      0.460581   298A      0.461841   299A      0.463389  
     300A      0.464521   301A      0.465283   302A      0.466778  
     303A      0.468491   304A      0.469789   305A      0.470588  
     306A      0.473416   307A      0.476707   308A      0.481674  
     309A      0.482670   310A      0.483020   311A      0.483562  
     312A      0.489208   313A      0.490964   314A      0.497806  
     315A      0.498052   316A      0.500591   317A      0.503307  
     318A      0.506646   319A      0.509550   320A      0.510383  
     321A      0.511588   322A      0.512099   323A      0.514156  
     324A      0.516877   325A      0.517070   326A      0.523733  
     327A      0.525600   328A      0.527757   329A      0.532070  
     330A      0.533945   331A      0.534489   332A      0.540737  
     333A      0.543288   334A      0.545429   335A      0.546946  
     336A      0.549288   337A      0.550229   338A      0.552660  
     339A      0.553258   340A      0.554800   341A      0.557064  
     342A      0.558593   343A      0.562907   344A      0.567618  
     345A      0.569357   346A      0.570781   347A      0.574966  
     348A      0.576848   349A      0.581547   350A      0.581992  
     351A      0.584987   352A      0.586945   353A      0.589228  
     354A      0.596221   355A      0.601149   356A      0.602646  
     357A      0.605557   358A      0.609492   359A      0.612810  
     360A      0.613028   361A      0.615993   362A      0.616171  
     363A      0.617004   364A      0.621756   365A      0.623504  
     366A      0.625011   367A      0.627524   368A      0.630932  
     369A      0.633672   370A      0.635465   371A      0.636331  
     372A      0.637098   373A      0.638603   374A      0.642135  
     375A      0.643120   376A      0.644018   377A      0.657152  
     378A      0.657320   379A      0.658226   380A      0.658992  
     381A      0.666991   382A      0.673393   383A      0.675760  
     384A      0.683221   385A      0.683952   386A      0.685293  
     387A      0.686847   388A      0.692289   389A      0.695052  
     390A      0.696540   391A      0.696893   392A      0.699776  
     393A      0.700504   394A      0.701266   395A      0.701961  
     396A      0.702511   397A      0.703067   398A      0.706789  
     399A      0.707179   400A      0.710365   401A      0.710778  
     402A      0.713211   403A      0.717529   404A      0.720145  
     405A      0.720783   406A      0.724717   407A      0.725411  
     408A      0.726995   409A      0.727954   410A      0.729592  
     411A      0.733043   412A      0.735071   413A      0.736380  
     414A      0.739085   415A      0.740560   416A      0.742123  
     417A      0.743689   418A      0.752748   419A      0.754137  
     420A      0.764792   421A      0.767702   422A      0.780190  
     423A      0.781023   424A      0.782174   425A      0.782879  
     426A      0.785318   427A      0.786526   428A      0.793008  
     429A      0.796010   430A      0.802069   431A      0.814327  
     432A      0.814628   433A      0.819289   434A      0.820253  
     435A      0.822120   436A      0.826846   437A      0.830415  
     438A      0.832950   439A      0.833318   440A      0.837072  
     441A      0.840328   442A      0.842612   443A      0.854887  
     444A      0.856019   445A      0.857516   446A      0.865960  
     447A      0.876872   448A      0.881902   449A      0.893810  
     450A      0.894247   451A      0.902636   452A      0.903111  
     453A      0.911874   454A      0.913141   455A      0.920991  
     456A      0.926676   457A      0.935452   458A      0.936189  
     459A      0.938510   460A      0.942502   461A      0.958931  
     462A      0.959355   463A      0.973079   464A      0.973676  
     465A      0.975719   466A      0.990516   467A      0.994780  
     468A      0.998436   469A      0.999264   470A      1.000741  
     471A      1.002224   472A      1.002763   473A      1.007639  
     474A      1.031429   475A      1.037148   476A      1.037960  
     477A      1.039363   478A      1.044094   479A      1.067395  
     480A      1.086474   481A      1.087210   482A      1.087345  
     483A      1.094608   484A      1.095229   485A      1.105911  
     486A      1.109238   487A      1.113140   488A      1.117305  
     489A      1.117342   490A      1.129579   491A      1.130018  
     492A      1.130988   493A      1.131820   494A      1.135849  
     495A      1.146629   496A      1.153171   497A      1.153422  
     498A      1.153716   499A      1.161272   500A      1.162448  
     501A      1.181020   502A      1.219798   503A      1.228269  
     504A      1.228303   505A      1.237253   506A      1.238819  
     507A      1.239216   508A      1.255861   509A      1.255984  
     510A      1.259768   511A      1.261492   512A      1.298030  
     513A      1.301087   514A      1.302871   515A      1.303109  
     516A      1.313296   517A      1.347503   518A      1.353836  
     519A      1.361927   520A      1.374920   521A      1.375988  
     522A      1.391941   523A      1.393954   524A      1.396840  
     525A      1.398271   526A      1.399024   527A      1.400921  
     528A      1.416376   529A      1.416696   530A      1.431693  
     531A      1.470323   532A      1.474515   533A      1.482384  
     534A      1.486888   535A      1.487794   536A      1.491523  
     537A      1.492136   538A      1.501908   539A      1.506631  
     540A      1.523929   541A      1.557924   542A      1.566590  
     543A      1.568480   544A      1.571336   545A      1.580259  
     546A      1.582973   547A      1.591573   548A      1.595093  
     549A      1.596363   550A      1.611016   551A      1.615357  
     552A      1.616079   553A      1.624339   554A      1.625468  
     555A      1.630250   556A      1.636604   557A      1.668883  
     558A      1.672903   559A      1.677485   560A      1.678819  
     561A      1.680976   562A      1.682187   563A      1.684906  
     564A      1.686270   565A      1.688253   566A      1.692873  
     567A      1.696796   568A      1.700489   569A      1.707166  
     570A      1.712450   571A      1.715533   572A      1.723443  
     573A      1.725889   574A      1.726208   575A      1.729986  
     576A      1.739415   577A      1.741248   578A      1.742237  
     579A      1.744776   580A      1.747210   581A      1.752987  
     582A      1.754630   583A      1.757297   584A      1.758986  
     585A      1.761262   586A      1.761771   587A      1.764834  
     588A      1.766552   589A      1.767675   590A      1.769003  
     591A      1.779908   592A      1.781427   593A      1.783228  
     594A      1.784831   595A      1.790583   596A      1.793107  
     597A      1.794254   598A      1.794693   599A      1.797702  
     600A      1.808100   601A      1.813969   602A      1.817447  
     603A      1.817692   604A      1.818667   605A      1.819898  
     606A      1.821525   607A      1.822538   608A      1.824966  
     609A      1.827593   610A      1.832920   611A      1.833937  
     612A      1.839631   613A      1.839686   614A      1.840239  
[...]
     802A      1.677448   803A      1.678947   804A      1.684288  
     805A      1.687100   806A      1.687555   807A      1.696279  
     808A      1.698872   809A      1.699500   810A      1.699563  
     811A      1.701769   812A      1.704913   813A      1.705020  
     814A      1.716267   815A      1.717509   816A      1.737225  
     817A      1.741841   818A      1.751597   819A      1.760503  
     820A      1.760963   821A      1.761232   822A      1.761887  
     823A      1.764429   824A      1.776972   825A      1.777334  
     826A      1.791877   827A      1.791928   828A      1.801541  
     829A      1.816514   830A      1.816798   831A      1.816942  
     832A      1.818168   833A      1.824869   834A      1.825014  
     835A      1.829702   836A      1.831571   837A      1.833117  
     838A      1.841071   839A      1.842458   840A      1.843245  
     841A      1.853407   842A      1.859506   843A      1.861382  
     844A      1.863266   845A      1.863780   846A      1.864467  
     847A      1.864883   848A      1.869178   849A      1.872845  
     850A      1.878876   851A      1.880610   852A      1.883196  
     853A      1.889829   854A      1.896255   855A      1.896751  
     856A      1.901752   857A      1.903341   858A      1.903755  
     859A      1.908046   860A      1.909270   861A      1.909794  
     862A      1.915944   863A      1.917323   864A      1.918063  
     865A      1.918317   866A      1.919505   867A      1.921873  
     868A      1.922211   869A      1.924843   870A      1.925655  
     871A      1.941748   872A      1.942609   873A      1.943258  
     874A      1.945287   875A      1.947430   876A      1.948249  
     877A      1.950828   878A      1.955600   879A      1.956113  
     880A      1.956827   881A      1.957923   882A      1.958250  
     883A      1.971396   884A      1.983684   885A      1.984793  
     886A      1.992969   887A      1.997459   888A      1.999398  
     889A      1.999687   890A      2.005235   891A      2.008554  
     892A      2.011760   893A      2.013895   894A      2.019975  
     895A      2.027511   896A      2.028132   897A      2.030457  
     898A      2.031270   899A      2.031785   900A      2.032037  
     901A      2.032701   902A      2.036516   903A      2.046183  
     904A      2.049050   905A      2.052472   906A      2.053357  
     907A      2.056764   908A      2.057237   909A      2.060655  
     910A      2.062706   911A      2.063392   912A      2.065928  
     913A      2.067730   914A      2.072583   915A      2.073094  
     916A      2.074828   917A      2.077073   918A      2.079238  
     919A      2.082366   920A      2.082899   921A      2.086449  
     922A      2.089902   923A      2.092923   924A      2.095546  
     925A      2.096246   926A      2.099152   927A      2.100134  
     928A      2.102911   929A      2.103753   930A      2.108793  
     931A      2.109537   932A      2.109815   933A      2.111885  
     934A      2.113210   935A      2.114416   936A      2.115672  
     937A      2.116611   938A      2.119933   939A      2.120271  
     940A      2.120799   941A      2.123088   942A      2.127218  
     943A      2.128719   944A      2.131096   945A      2.134258  
     946A      2.135144   947A      2.136103   948A      2.136630  
     949A      2.138015   950A      2.143423   951A      2.143469  
     952A      2.155391   953A      2.156679   954A      2.160582  
     955A      2.162638   956A      2.163022   957A      2.164014  
     958A      2.171899   959A      2.175385   960A      2.179629  
     961A      2.181262   962A      2.191313   963A      2.191750  
     964A      2.192622   965A      2.194065   966A      2.195318  
     967A      2.196093   968A      2.196270   969A      2.204764  
     970A      2.214066   971A      2.219526   972A      2.219829  
     973A      2.220701   974A      2.221408   975A      2.226427  
     976A      2.228674   977A      2.229577   978A      2.232364  
     979A      2.235484   980A      2.243732   981A      2.244398  
     982A      2.245054   983A      2.245661   984A      2.247878  
     985A      2.260571   986A      2.260786   987A      2.270522  
     988A      2.270613   989A      2.271882   990A      2.272649  
     991A      2.272914   992A      2.281243   993A      2.287231  
     994A      2.294121   995A      2.300767   996A      2.306781  
     997A      2.312817   998A      2.313249   999A      2.313949  
    1000A      2.322444  1001A      2.324119  1002A      2.331187  
    1003A      2.331304  1004A      2.331474  1005A      2.334686  
    1006A      2.339690  1007A      2.351661  1008A      2.352303  
    1009A      2.352797  1010A      2.353469  1011A      2.361089  
    1012A      2.366677  1013A      2.367569  1014A      2.373340  
    1015A      2.377142  1016A      2.382258  1017A      2.405956  
    1018A      2.416351  1019A      2.424143  1020A      2.424623  
    1021A      2.424678  1022A      2.436550  1023A      2.441352  
    1024A      2.441660  1025A      2.460393  1026A      2.464962  
    1027A      2.470303  1028A      2.471676  1029A      2.474254  
    1030A      2.475243  1031A      2.483932  1032A      2.486486  
    1033A      2.486936  1034A      2.487915  1035A      2.502504  
    1036A      2.519953  1037A      2.530162  1038A      2.531183  
    1039A      2.533466  1040A      2.544223  1041A      2.546205  
    1042A      2.546817  1043A      2.554967  1044A      2.555203  
    1045A      2.556359  1046A      2.560061  1047A      2.560225  
    1048A      2.573177  1049A      2.573223  1050A      2.575482  
    1051A      2.575846  1052A      2.586302  1053A      2.586399  
    1054A      2.587695  1055A      2.589267  1056A      2.591407  
    1057A      2.591722  1058A      2.607090  1059A      2.624200  
    1060A      2.624306  1061A      2.625247  1062A      2.632008  
    1063A      2.632618  1064A      2.641621  1065A      2.641946  
    1066A      2.644178  1067A      2.651274  1068A      2.651990  
    1069A      2.655942  1070A      2.659143  1071A      2.664053  
    1072A      2.672127  1073A      2.684149  1074A      2.684523  
    1075A      2.684917  1076A      2.685868  1077A      2.687844  
    1078A      2.702319  1079A      2.702874  1080A      2.713200  
    1081A      2.713228  1082A      2.718919  1083A      2.718988  
    1084A      2.723374  1085A      2.723870  1086A      2.738331  
    1087A      2.748676  1088A      2.753166  1089A      2.753889  
    1090A      2.757841  1091A      2.773145  1092A      2.778389  
    1093A      2.795295  1094A      2.795981  1095A      2.817044  
    1096A      2.827479  1097A      2.828585  1098A      2.832552  
    1099A      2.850629  1100A      2.853242  1101A      2.854764  
    1102A      2.856216  1103A      2.858487  1104A      2.860349  
    1105A      2.862218  1106A      2.869974  1107A      2.893762  
    1108A      2.903549  1109A      2.917172  1110A      2.918143  
    1111A      2.923456  1112A      2.930763  1113A      2.931447  
    1114A      2.934784  1115A      2.935028  1116A      2.950345  
    1117A      2.950974  1118A      2.963380  1119A      2.963847  
    1120A      2.984673  1121A      3.009903  1122A      3.010368  
    1123A      3.012011  1124A      3.018777  1125A      3.029827  
    1126A      3.032065  1127A      3.060692  1128A      3.064540  
    1129A      3.064832  1130A      3.071440  1131A      3.071983  
    1132A      3.110320  1133A      3.111337  1134A      3.129568  
    1135A      3.130034  1136A      3.130672  1137A      3.137607  
    1138A      3.146383  1139A      3.146984  1140A      3.147542  
    1141A      3.148398  1142A      3.150083  1143A      3.153057  
    1144A      3.159356  1145A      3.159694  1146A      3.166820  
    1147A      3.167054  1148A      3.191988  1149A      3.211499  
    1150A      3.219928  1151A      3.238564  1152A      3.274819  
    1153A      3.277338  1154A      3.277692  1155A      3.283014  
    1156A      3.283189  1157A      3.289869  1158A      3.318819  
    1159A      3.339300  1160A      3.416889  1161A      3.417756  
    1162A      3.425977  1163A      3.443722  1164A      3.482655  
    1165A      3.485163  1166A      3.528822  1167A      3.550423  
    1168A      3.576299  1169A      3.578669  1170A      3.584387  
    1171A      3.594638  1172A      3.626854  1173A      3.629393  
    1174A      3.647187  1175A      3.663353  1176A      3.670591  
    1177A      3.759219  1178A      3.769463  1179A      3.783200  
    1180A      3.784870  1181A      3.818530  1182A      3.870153  
    1183A      3.870968  1184A      3.871214  1185A      3.913661  
    1186A      3.913789  1187A      3.972524  1188A      3.977071  
    1189A      4.011100  1190A      4.034350  1191A      4.052204  
    1192A      4.083617  1193A      4.211222  1194A      4.215519  
    1195A      4.365864  1196A      4.369806  1197A      4.493842  
    1198A      4.750671  1199A      4.793712  1200A      4.835392  
    1201A      4.851452  1202A      4.941627  1203A      5.058627  
    1204A      5.062942  1205A      5.072043  1206A      5.115741  
    1207A      5.156535  1208A      5.397196  1209A      5.425744  
    1210A      5.738170  1211A      5.765071  1212A      6.069978  
    1213A     18.199967  1214A     18.461003  1215A     18.477864  
    1216A     18.564789  1217A     18.834795  1218A     25.342389  
    1219A     25.378230  

    Final Occupation by Irrep:
              A 
    DOCC [   171 ]
    NA   [   171 ]
    NB   [   171 ]

  @DF-RHF Final Energy: -2055.89270710882101

   => Energetics <=

    Nuclear Repulsion Energy =           6452.5568002797781446
    One-Electron Energy =              -15636.4620486436197098
    Two-Electron Energy =                7128.0125412550196415
    Total Energy =                      -2055.8927071088210141

Computation Completed


Properties will be evaluated at   0.000000,   0.000000,   0.000000 [a0]

Properties computed using the SCF density matrix


 Multipole Moments:

 ------------------------------------------------------------------------------------
     Multipole            Electronic (a.u.)      Nuclear  (a.u.)        Total (a.u.)
 ------------------------------------------------------------------------------------

 L = 1.  Multiply by 2.5417464519 to convert [e a0] to [Debye]
 Dipole X            :          0.0001774           -0.0000085            0.0001689
 Dipole Y            :        117.1679906         -117.1648546            0.0031360
 Dipole Z            :       -509.6514374          509.6597592            0.0083219
 Magnitude           :                                                    0.0088948

 ------------------------------------------------------------------------------------

*** tstop() called on d-3-8-3 at Mon Jan 22 23:11:31 2024
Module time:
	user time   =    2560.83 seconds =      42.68 minutes
	system time =     199.92 seconds =       3.33 minutes
	total time  =       2126 seconds =      35.43 minutes
Total time:
	user time   =    8577.04 seconds =     142.95 minutes
	system time =     712.22 seconds =      11.87 minutes
	total time  =       3480 seconds =      58.00 minutes
  Constructing Basis Sets for SAPT...

   => Loading Basis Set <=

    Name: (JUN-CC-PVDZ AUX)
    Role: RIFIT
    Keyword: DF_BASIS_SAPT
    atoms 1-2, 4-5, 10, 17-70 entry C          line   100 file /home/gridsan/tfroembgen/.conda/envs/psi4test/share/psi4/basis/jun-cc-pvdz-ri.gbs 
    atoms 3, 6                entry N          line   144 file /home/gridsan/tfroembgen/.conda/envs/psi4test/share/psi4/basis/jun-cc-pvdz-ri.gbs 
    atoms 7-9, 11-16, 71-88   entry H          line    30 file /home/gridsan/tfroembgen/.conda/envs/psi4test/share/psi4/basis/jun-cc-pvdz-ri.gbs 

   => Loading Basis Set <=

    Name: (JUN-CC-PVDZ AUX)
    Role: JKFIT
    Keyword: DF_BASIS_ELST
    atoms 1-2, 4-5, 10, 17-70 entry C          line   146 file /home/gridsan/tfroembgen/.conda/envs/psi4test/share/psi4/basis/jun-cc-pvdz-jkfit.gbs 
    atoms 3, 6                entry N          line   202 file /home/gridsan/tfroembgen/.conda/envs/psi4test/share/psi4/basis/jun-cc-pvdz-jkfit.gbs 
    atoms 7-9, 11-16, 71-88   entry H          line    70 file /home/gridsan/tfroembgen/.conda/envs/psi4test/share/psi4/basis/jun-cc-pvdz-jkfit.gbs 


  //>>>>>>>>>>>>>>>>>>>>>>>>>>>>>>>>>>>//
  //               SSAPT0              //
  //<<<<<<<<<<<<<<<<<<<<<<<<<<<<<<<<<<<//


*** tstart() called on d-3-8-3
*** at Mon Jan 22 23:11:32 2024

        SAPT0  
    Ed Hohenstein
     6 June 2009

      Orbital Information
  --------------------------
    NSO        =      1233
    NMO        =      1219
    NRI        =      4343
    NRI (Elst) =      5440
    NOCC A     =        26
    NOCC B     =       171
    FOCC A     =         7
    FOCC B     =        54
    NVIR A     =      1193
    NVIR B     =      1048

    Elst10,r            =    -0.009087098649 [Eh]
    Exch10              =     0.000020246014 [Eh]
    Exch10 (S^2)        =     0.000020245797 [Eh]

    Iter     Energy [mEh]          dE [mEh]         Residual      Time [s]
       1      -0.03258337       0.032583369       1.683795948           346
       2      -0.03096324      -0.001620129       0.442392486           650
       3      -0.03400315       0.003039908       0.123068329           847
       4      -0.03419237       0.000189219       0.054997255           983
       5      -0.03405280      -0.000139571       0.017806718          1174
       6      -0.03405079      -0.000002006       0.005642297          1320
       7      -0.03406079       0.000010005       0.001868025          1489
       8      -0.03406280       0.000002003       0.000486790          1583
       9      -0.03406238      -0.000000417       0.000172476          1604
      10      -0.03406215      -0.000000226       0.000045017          1838
      11      -0.03406217       0.000000016       0.000012560          2125
      12      -0.03406218       0.000000013       0.000004121          2438
      13      -0.03406218       0.000000001       0.000001375          2775
      14      -0.03406218      -0.000000002       0.000000297          3229

    CHF Iterations converged


    Iter     Energy [mEh]          dE [mEh]         Residual      Time [s]
       1      -5.70951973       5.709519725      39.170841967           304
       2      -3.89751128      -1.812008440       5.108150032           574
       3      -3.89855833       0.001047046       1.831192710           721
       4      -3.99340406       0.094845730       0.467958543           784
       5      -3.99895837       0.005554309       0.168947068           820
       6      -3.99593594      -0.003022427       0.102217151           862
       7      -3.99498857      -0.000947374       0.051653687           892
       8      -3.99564587       0.000657301       0.034525008           915
       9      -3.99596656       0.000320691       0.020976718          1029
      10      -3.99581683      -0.000149731       0.013678831          1079
      11      -3.99571148      -0.000105352       0.005238004          1211
      12      -3.99573276       0.000021282       0.002264992          1256
      13      -3.99574637       0.000013608       0.000989172          1277
      14      -3.99574668       0.000000312       0.000462256          1444
      15      -3.99574332      -0.000003364       0.000250792          1524
      16      -3.99574247      -0.000000850       0.000108722          1564
      17      -3.99574348       0.000001015       0.000046958          1591
      18      -3.99574358       0.000000098       0.000022319          1621
      19      -3.99574343      -0.000000151       0.000011251          1653
      20      -3.99574340      -0.000000030       0.000004038          1672
      21      -3.99574342       0.000000018       0.000001658          1690
      22      -3.99574342       0.000000009       0.000000628          1710

    CHF Iterations converged

    Ind20,r (A<-B)      =    -0.000034062183 [Eh]
    Ind20,r (B<-A)      =    -0.003995743424 [Eh]
    Ind20,r             =    -0.004029805607 [Eh]
    Exch-Ind20,r (A<-B) =     0.000000471101 [Eh]
    Exch-Ind20,r (B<-A) =     0.000005316503 [Eh]
    Exch-Ind20,r        =     0.000005787603 [Eh]
    Disp20              =    -0.002905845795 [Eh]
    Disp20 (SS)         =    -0.001452922897 [Eh]
    Disp20 (OS)         =    -0.001452922897 [Eh]
    Exch-Disp20         =     0.000003493604 [Eh]
    Exch-Disp20 (SS)    =     0.000002404871 [Eh]
    Exch-Disp20 (OS)    =     0.000001088733 [Eh]

    SAPT Results 
  --------------------------------------------------------------------------------------------------------
    Electrostatics                 -9.08709865 [mEh]      -5.70224049 [kcal/mol]     -23.85817422 [kJ/mol]
      Elst10,r                     -9.08709865 [mEh]      -5.70224049 [kcal/mol]     -23.85817422 [kJ/mol]

    Exchange                        0.02024601 [mEh]       0.01270457 [kcal/mol]       0.05315590 [kJ/mol]
      Exch10                        0.02024601 [mEh]       0.01270457 [kcal/mol]       0.05315590 [kJ/mol]
      Exch10(S^2)                   0.02024580 [mEh]       0.01270443 [kcal/mol]       0.05315533 [kJ/mol]

    Induction                      -4.16968293 [mEh]      -2.61651554 [kcal/mol]     -10.94750101 [kJ/mol]
      Ind20,r                      -4.02980561 [mEh]      -2.52874120 [kcal/mol]     -10.58025316 [kJ/mol]
      Exch-Ind20,r                  0.00578760 [mEh]       0.00363178 [kcal/mol]       0.01519535 [kJ/mol]
      delta HF,r (2)               -0.14566492 [mEh]      -0.09140612 [kcal/mol]      -0.38244320 [kJ/mol]

    Dispersion                     -2.90235219 [mEh]      -1.82125350 [kcal/mol]      -7.62012463 [kJ/mol]
      Disp20                       -2.90584579 [mEh]      -1.82344577 [kcal/mol]      -7.62929708 [kJ/mol]
      Exch-Disp20                   0.00349360 [mEh]       0.00219227 [kcal/mol]       0.00917246 [kJ/mol]
      Disp20 (SS)                  -1.45292290 [mEh]      -0.91172288 [kcal/mol]      -3.81464854 [kJ/mol]
      Disp20 (OS)                  -1.45292290 [mEh]      -0.91172288 [kcal/mol]      -3.81464854 [kJ/mol]
      Exch-Disp20 (SS)              0.00240487 [mEh]       0.00150908 [kcal/mol]       0.00631399 [kJ/mol]
      Exch-Disp20 (OS)              0.00108873 [mEh]       0.00068319 [kcal/mol]       0.00285847 [kJ/mol]

  Total HF                        -13.23653556 [mEh]      -8.30605146 [kcal/mol]     -34.75251933 [kJ/mol]
  Total SAPT0                     -16.13888775 [mEh]     -10.12730496 [kcal/mol]     -42.37264395 [kJ/mol]

  Special recipe for scaled SAPT0 (see Manual):
    Electrostatics sSAPT0          -9.08709865 [mEh]      -5.70224049 [kcal/mol]     -23.85817422 [kJ/mol]
    Exchange sSAPT0                 0.02024601 [mEh]       0.01270457 [kcal/mol]       0.05315590 [kJ/mol]
    Induction sSAPT0               -4.16968274 [mEh]      -2.61651542 [kcal/mol]     -10.94750053 [kJ/mol]
    Dispersion sSAPT0              -2.90235208 [mEh]      -1.82125343 [kcal/mol]      -7.62012433 [kJ/mol]
  Total sSAPT0                    -16.13888745 [mEh]     -10.12730477 [kcal/mol]     -42.37264317 [kJ/mol]
  --------------------------------------------------------------------------------------------------------

*** tstop() called on d-3-8-3 at Tue Jan 23 01:24:26 2024
Module time:
	user time   =    8558.82 seconds =     142.65 minutes
	system time =    1188.33 seconds =      19.81 minutes
	total time  =       7974 seconds =     132.90 minutes
Total time:
	user time   =   17136.79 seconds =     285.61 minutes
	system time =    1900.58 seconds =      31.68 minutes
	total time  =      11455 seconds =     190.92 minutes

    Psi4 stopped on: Tuesday, 23 January 2024 01:24AM
    Psi4 wall time for execution: 3:10:56.32

*** Psi4 exiting successfully. Buy a developer a beer!
