
    -----------------------------------------------------------------------
          Psi4: An Open-Source Ab Initio Electronic Structure Package
                               Psi4 1.9 release

                         Git: Rev {} zzzzzzz 


    D. G. A. Smith, L. A. Burns, A. C. Simmonett, R. M. Parrish,
    M. C. Schieber, R. Galvelis, P. Kraus, H. Kruse, R. Di Remigio,
    A. Alenaizan, A. M. James, S. Lehtola, J. P. Misiewicz, M. Scheurer,
    R. A. Shaw, J. B. Schriber, Y. Xie, Z. L. Glick, D. A. Sirianni,
    J. S. O'Brien, J. M. Waldrop, A. Kumar, E. G. Hohenstein,
    B. P. Pritchard, B. R. Brooks, H. F. Schaefer III, A. Yu. Sokolov,
    K. Patkowski, A. E. DePrince III, U. Bozkaya, R. A. King,
    F. A. Evangelista, J. M. Turney, T. D. Crawford, C. D. Sherrill,
    J. Chem. Phys. 152(18) 184108 (2020). https://doi.org/10.1063/5.0006002

                            Additional Code Authors
    E. T. Seidl, C. L. Janssen, E. F. Valeev, M. L. Leininger,
    J. F. Gonthier, R. M. Richard, H. R. McAlexander, M. Saitow, X. Wang,
    P. Verma, M. H. Lechner, A. Jiang, S. Behnle, A. G. Heide,
    M. F. Herbst, and D. L. Poole

             Previous Authors, Complete List of Code Contributors,
                       and Citations for Specific Modules
    https://github.com/psi4/psi4/blob/master/codemeta.json
    https://github.com/psi4/psi4/graphs/contributors
    http://psicode.org/psi4manual/master/introduction.html#citing-psifour

    -----------------------------------------------------------------------


    Psi4 started on: Saturday, 27 January 2024 12:14AM

    Process ID: 4085677
    Host:       n2cn0571
    PSIDATADIR: /opt/software/pc2/EB-SW/software/PSI4/1.9-foss-2022a/share/psi4
    Memory:     500.0 MiB
    Threads:    16
    
  ==> Input File <==

--------------------------------------------------------------------------
memory 64 GB # how much memory is available ! Depends on the nodes/cores !

molecule dimer {
# monomer A
+1 1    # Charge and multiplicity
C  0.680067 1.417258 -8.215929
C -0.680504 1.419286 -8.215545
N -1.085635 1.420284 -6.897221
C  0.000108 1.423560 -6.115820
C -2.477365 1.469690 -6.429242
N  1.085222 1.420284 -6.897221
H  1.385146 1.409430 -9.033368
H -1.385302 1.419096 -9.033214
H -0.000009 1.425307 -5.034731
C  2.478117 1.403392 -6.432123
H  2.490592 1.430737 -5.341870
H  2.967028 0.489946 -6.779299
H  3.001428 2.278875 -6.823595
H -2.857359 2.491761 -6.509201
H -3.082679 0.799606 -7.042306
H -2.518128 1.142706 -5.389294
--
# monomer B
0 1     # Charge and multiplicity
C   -3.66844126402057      7.80375217008252      0.00190004133558
C   -4.84759871934653      7.13124183134024     -0.00046653359696
C   -4.89495929917518      5.69633040353158     -0.00103944469517
C   -3.65374067877320      4.98073034095895      0.00662099703436
C   -2.40942512149445      7.11398103667468      0.00209438359570
C   -2.42547734410473      5.68112195090346     -0.00491050527438
C   -1.19474401643570      7.78614419430947      0.00356656413763
C   0.03795902893699      7.09942164575698      0.00139585983271
C   0.03033258741920      5.66948955970466     -0.00408752508301
C   -1.20098450790502      4.96927034791531      0.00488220885047
C   1.27795782581485      7.77285944319479      0.00277170839332
C   2.48535808472416      7.08769688523756      0.00049722048857
C   2.48612868491717      5.65477081024076     -0.00644052849921
C   1.25408291964399      4.95607811366431      0.00518741308898
C   3.75171459140595      7.76391215098033      0.00062407186893
C   4.92356605618520      7.07878077698995     -0.00143240883900
C   4.95560727132542      5.64344746336949     -0.00159282164606
C   3.70680153420475      4.94121020833308      0.00349873852374
H   -3.65852113775815      8.89082741913536      0.00358502958574
H   -1.18921332975660      8.87412108735996      0.00753844057883
H   1.28429423888630      8.86083343548850      0.00693053253426
H   3.75354208679975      8.85103527897216      0.00214659618464
H   5.86995870320703      7.61379483465560     -0.00235777588134
H   -5.78823170750226      7.67630221293400     -0.00202638095293
C   -6.09197395869619      4.99326001364347     -0.00291168518608
C   -6.12866148031747      3.58258016879823     -0.00171050815740
C   -3.66457974004527      3.56418217974434     -0.00463560277484
C   -4.89429820469869      2.86108077590057      0.00453338221034
C   -2.43733499489796      2.84761165708481      0.00719617576166
C   -1.20922785759670      3.54788693497833     -0.00648285103018
C   1.24714157216223      3.53468075142962     -0.00729145743546
C   0.01517603956900      2.83311183930540      0.00439272578912
C   2.46764517244071      2.82128997725533      0.00449278391269
C   3.70254947457969      3.52466015442405     -0.00899517692985
C   6.14498038638375      4.92757236613191     -0.00282626685777
C   6.16658835886151      3.51658447594213     -0.00065971342101
C   4.92460995845939      2.80840792535402      0.00587903281610
H   7.08990550964105      5.46688776622306     -0.00658814770723
H   -7.03104175110130      5.54268795285765     -0.00714490013730
C   -7.33969804112295      2.85841153457957     -0.00333767559888
C   -7.36488195805880      1.47032337158330     -0.00157213747140
C   -4.90350460894690      1.44442681216000     -0.00628840166334
C   -6.13225715261081      0.73993935705394      0.00600164231964
C   -3.67687480051673      0.72669714267312      0.00433931473643
C   -2.44565658606518      1.42964113326212     -0.00597039546461
C   -1.22360068130162      0.71532450163492      0.00545886906656
C   0.00763786931376      1.41738314923765      0.00392452278437
C   1.23121980774686      0.70211669058719     -0.01490206287210
C   2.46082110053113      1.40329203612573      0.00460244601878
C   3.68443025419614      0.68719842821222      0.00377365974158
C   4.91870890153864      1.39173456118907     -0.00862816189375
C   7.36980207796101      2.77948220318441     -0.00242013321349
C   7.38016266612146      1.39121750785509     -0.00087345036788
C   6.13979953912259      0.67411862320065      0.00545489144369
H   -8.27919079934664      3.40711804112415     -0.00763522772059
H   8.31511347147953      3.31811809662368     -0.00663070901292
C   -8.59175593758115      0.72483255304480     -0.00123170985383
C   -8.59902460370342     -0.63263980622873      0.00089141472904
C   -6.13981313911873     -0.67413663715361     -0.00609792660607
C   -7.38018411213749     -1.39126618958160      0.00131813493501
C   -4.91868448025621     -1.39175501803000      0.00624257154343
C   -3.68443829568458     -0.68723731573599     -0.00478966852105
C   -2.46081704024768     -1.40334517882457      0.00575341766833
C   -1.23116201232071     -0.70217386488055     -0.00636696112346
C   -0.00756962538737     -1.41741884941102      0.00108956317991
C   1.22364771588843     -0.71527537726392      0.01109518512883
C   2.44567064933149     -1.42964328900682     -0.00065482763106
C   3.67686670284649     -0.72670743155550     -0.00479541202602
C   6.13224884641929     -0.73997883984993     -0.00632338623858
C   4.90351914550401     -1.44445752054090      0.00751768830159
C   8.59901484869081      0.63260386666793     -0.00101133422380
C   8.59174548810050     -0.72485086719319      0.00072504603735
C   7.36486276438985     -1.47033266560598      0.00049486934466
H   -9.52830597181814      1.27684744919284     -0.00270163681798
H   9.54141097460619      1.17457248844457     -0.00206336648518
C   -7.36983790976868     -2.77954514593389      0.00312634335708
C   -4.92459910905015     -2.80843725734101     -0.00460528907921
C   -6.16662249566744     -3.51665219282533      0.00169655107992
C   -3.70251035970491     -3.52468154912026      0.00571878010666
C   -2.46764698511392     -2.82132596280400     -0.00632585824990
C   -0.01513347410770     -2.83314164539971     -0.00604426974092
C   -1.24712184122656     -3.53473217556300      0.00551968366725
C   1.20924506964357     -3.54791467864352      0.00805871345849
C   2.43733602215464     -2.84764173817541     -0.00608104485234
C   4.89430234377080     -2.86112296828604     -0.00526030478103
C   3.66461525504104     -3.56421984553201      0.00761911515957
C   6.12863901474565     -3.58258405771778      0.00096495711699
C   7.33967266469532     -2.85841330737039      0.00248018319869
H   -9.54144911125902     -1.17456346666430      0.00226083090216
H   9.52826186807155     -1.27691907390448      0.00197485379837
H   -8.31516504384864     -3.31814985321231      0.00729857188773
H   8.27915514249207     -3.40714078989363      0.00681973918158
C   -6.14499418870218     -4.92764727278338      0.00302254913999
C   -3.70678334799751     -4.94126171411716     -0.00679841894792
C   -4.95559005800169     -5.64349397349412      0.00116871569699
C   -2.48612132622665     -5.65478557440947      0.00614125209662
C   -1.25405833548005     -4.95612205000132     -0.00503435388927
C   1.20101257386816     -4.96928038819302     -0.00385322963129
C   -0.03033667441341     -5.66952030313900      0.00398997003238
C   3.65375010132847     -4.98074377541453     -0.00309522988330
C   2.42549269587528     -5.68117463552727      0.00628170066869
C   6.09196561781097     -4.99325796338655      0.00325918379042
C   4.89497644461045     -5.69634842095790      0.00202298796027
H   -7.08989238804069     -5.46699984223871      0.00742531082125
H   7.03105520920009     -5.54265853633254      0.00683896355417
C   -4.92354532219813     -7.07882109967734      0.00061394679214
C   -2.48534208823777     -7.08772807792913     -0.00189594564379
C   -3.75168589177895     -7.76394715763627     -0.00170126671874
C   -0.03794895698805     -7.09946487446944     -0.00168022049625
C   -1.27795610040136     -7.77290438466689     -0.00366491325785
C   2.40944432072629     -7.11402201200282     -0.00081701968533
C   1.19474993715296     -7.78618536556242     -0.00296931056689
C   4.84762105249800     -7.13126211057943      0.00168979497423
C   3.66847160587561     -7.80378799294376     -0.00065863938960
H   -5.86994035041618     -7.61383059804164      0.00215798365757
H   5.78824962538815     -7.67633218931421      0.00281691445618
H   -3.75352693944918     -8.85107156923607     -0.00353718114765
H   -1.28430440589466     -8.86087539249706     -0.00809229711623
H   1.18922157469537     -8.87416062058945     -0.00706194725726
H   3.65854661482387     -8.89086063405326     -0.00231318081200

    units angstrom      # Angstroms are the default
    no_reorient         # Geometry fixed, default
    symmetry c1         # C1 symmetry, default
}

set {
    scf_type DF         # Density fitting, faster than exact integrals
    freeze_core True    # Freeze core electrons
    basis jun-cc-pVDZ   # Jun-cc-pVDZ basis set, recommended for sSAPT0 in https://doi.org/10.1063/1.4867135
}

energy('ssapt0')        # Compute sSAPT0 energy, includes also SAPT0
--------------------------------------------------------------------------

  Memory set to  59.605 GiB by Python driver.

Scratch directory: /tmp/
   => Loading Basis Set <=

    Name: JUN-CC-PVDZ
    Role: ORBITAL
    Keyword: BASIS
    atoms 1-2, 4-5, 10, 17-34, 41-53, 56-70, 73-89, 92-104, 109-119, 122-130 entry C          line   164 file /opt/software/pc2/EB-SW/software/PSI4/1.9-foss-2022a/share/psi4/basis/jun-cc-pvdz.gbs 
    atoms 3, 6                                                               entry N          line   198 file /opt/software/pc2/EB-SW/software/PSI4/1.9-foss-2022a/share/psi4/basis/jun-cc-pvdz.gbs 
    atoms 7-9, 11-16, 35-40, 54-55, 71-72, 90-91, 105-108, 120-121, 131-136  entry H          line    36 file /opt/software/pc2/EB-SW/software/PSI4/1.9-foss-2022a/share/psi4/basis/jun-cc-pvdz.gbs 

   => Loading Basis Set <=

    Name: JUN-CC-PVDZ
    Role: ORBITAL
    Keyword: BASIS
    atoms 1-2, 4-5, 10, 17-34, 41-53, 56-70, 73-89, 92-104, 109-119, 122-130 entry C          line   164 file /opt/software/pc2/EB-SW/software/PSI4/1.9-foss-2022a/share/psi4/basis/jun-cc-pvdz.gbs 
    atoms 3, 6                                                               entry N          line   198 file /opt/software/pc2/EB-SW/software/PSI4/1.9-foss-2022a/share/psi4/basis/jun-cc-pvdz.gbs 
    atoms 7-9, 11-16, 35-40, 54-55, 71-72, 90-91, 105-108, 120-121, 131-136  entry H          line    36 file /opt/software/pc2/EB-SW/software/PSI4/1.9-foss-2022a/share/psi4/basis/jun-cc-pvdz.gbs 


  //>>>>>>>>>>>>>>>>>>>>>>>>>>>>>>>>>>>//
  //              Dimer HF             //
  //<<<<<<<<<<<<<<<<<<<<<<<<<<<<<<<<<<<//

   => Libint2 <=

    Primary   basis highest AM E, G, H:  5, 4, 3
    Auxiliary basis highest AM E, G, H:  6, 5, 4
    Onebody   basis highest AM E, G, H:  6, 5, 4
    Solid Harmonics ordering:            gaussian

*** tstart() called on n2cn0571
*** at Sat Jan 27 00:14:33 2024

   => Loading Basis Set <=

    Name: JUN-CC-PVDZ
    Role: ORBITAL
    Keyword: BASIS
    atoms 1-2, 4-5, 10, 17-34, 41-53, 56-70, 73-89, 92-104, 109-119, 122-130 entry C          line   164 file /opt/software/pc2/EB-SW/software/PSI4/1.9-foss-2022a/share/psi4/basis/jun-cc-pvdz.gbs 
    atoms 3, 6                                                               entry N          line   198 file /opt/software/pc2/EB-SW/software/PSI4/1.9-foss-2022a/share/psi4/basis/jun-cc-pvdz.gbs 
    atoms 7-9, 11-16, 35-40, 54-55, 71-72, 90-91, 105-108, 120-121, 131-136  entry H          line    36 file /opt/software/pc2/EB-SW/software/PSI4/1.9-foss-2022a/share/psi4/basis/jun-cc-pvdz.gbs 


         ---------------------------------------------------------
                                   SCF
               by Justin Turney, Rob Parrish, Andy Simmonett
                          and Daniel G. A. Smith
                              RHF Reference
                       16 Threads,  61035 MiB Core
         ---------------------------------------------------------

  ==> Geometry <==

    Molecular point group: c1
    Full point group: C1

    Geometry (in Angstrom), charge = 1, multiplicity = 1:

       Center              X                  Y                   Z               Mass       
    ------------   -----------------  -----------------  -----------------  -----------------
         C            0.680062820275     1.308604348936    -7.682238848697    12.000000000000
         C           -0.680508179725     1.310632348936    -7.681854848697    12.000000000000
         N           -1.085639179725     1.311630348936    -6.363530848697    14.003074004430
         C            0.000103820275     1.314906348936    -5.582129848697    12.000000000000
         C           -2.477369179725     1.361036348936    -5.895551848697    12.000000000000
         N            1.085217820275     1.311630348936    -6.363530848697    14.003074004430
         H            1.385141820275     1.300776348936    -8.499677848697     1.007825032230
         H           -1.385306179725     1.310442348936    -8.499523848697     1.007825032230
         H           -0.000013179725     1.316653348936    -4.501040848697     1.007825032230
         C            2.478112820275     1.294738348936    -5.898432848697    12.000000000000
         H            2.490587820275     1.322083348936    -4.808179848697     1.007825032230
         H            2.967023820275     0.381292348936    -6.245608848697     1.007825032230
         H            3.001423820275     2.170221348936    -6.289904848697     1.007825032230
         H           -2.857363179725     2.383107348936    -5.975510848697     1.007825032230
         H           -3.082683179725     0.690952348936    -6.508615848697     1.007825032230
         H           -2.518132179725     1.034052348936    -4.855603848697     1.007825032230
         C           -3.668445443746     7.695098519018     0.535590192639    12.000000000000
         C           -4.847602899072     7.022588180276     0.533223617706    12.000000000000
         C           -4.894963478901     5.587676752467     0.532650706608    12.000000000000
         C           -3.653744858499     4.872076689895     0.540311148338    12.000000000000
         C           -2.409429301220     7.005327385610     0.535784534899    12.000000000000
         C           -2.425481523830     5.572468299839     0.528779646029    12.000000000000
         C           -1.194748196161     7.677490543245     0.537256715441    12.000000000000
         C            0.037954849212     6.990767994693     0.535086011136    12.000000000000
         C            0.030328407694     5.560835908640     0.529602626220    12.000000000000
         C           -1.200988687630     4.860616696851     0.538572360154    12.000000000000
         C            1.277953646089     7.664205792130     0.536461859697    12.000000000000
         C            2.485353904999     6.979043234173     0.534187371792    12.000000000000
         C            2.486124505192     5.546117159176     0.527249622804    12.000000000000
         C            1.254078739919     4.847424462600     0.538877564392    12.000000000000
         C            3.751710411681     7.655258499916     0.534314223172    12.000000000000
         C            4.923561876460     6.970127125926     0.532257742464    12.000000000000
         C            4.955603091600     5.534793812305     0.532097329657    12.000000000000
         C            3.706797354479     4.832556557269     0.537188889827    12.000000000000
         H           -3.658525317484     8.782173768071     0.537275180889     1.007825032230
         H           -1.189217509482     8.765467436296     0.541228591882     1.007825032230
         H            1.284290059161     8.752179784424     0.540620683838     1.007825032230
         H            3.753537907074     8.742381627908     0.535836747488     1.007825032230
         H            5.869954523482     7.505141183591     0.531332375422     1.007825032230
         H           -5.788235887228     7.567648561870     0.531663770350     1.007825032230
         C           -6.091978138422     4.884606362579     0.530778466117    12.000000000000
         C           -6.128665660043     3.473926517734     0.531979643146    12.000000000000
         C           -3.664583919771     3.455528528680     0.529054548528    12.000000000000
         C           -4.894302384424     2.752427124836     0.538223533514    12.000000000000
         C           -2.437339174623     2.738958006020     0.540886327065    12.000000000000
         C           -1.209232037322     3.439233283914     0.527207300273    12.000000000000
         C            1.247137392437     3.426027100365     0.526398693868    12.000000000000
         C            0.015171859844     2.724458188241     0.538082877092    12.000000000000
         C            2.467640992715     2.712636326191     0.538182935216    12.000000000000
         C            3.702545294854     3.416006503360     0.524694974373    12.000000000000
         C            6.144976206658     4.818918715067     0.530863884446    12.000000000000
         C            6.166584179136     3.407930824878     0.533030437882    12.000000000000
         C            4.924605778734     2.699754274290     0.539569184119    12.000000000000
         H            7.089901329916     5.358234115159     0.527102003596     1.007825032230
         H           -7.031045930827     5.434034301793     0.526545251166     1.007825032230
         C           -7.339702220848     2.749757883515     0.530352475704    12.000000000000
         C           -7.364886137784     1.361669720519     0.532118013832    12.000000000000
         C           -4.903508788672     1.335773161096     0.527401749640    12.000000000000
         C           -6.132261332336     0.631285705989     0.539691793623    12.000000000000
         C           -3.676878980242     0.618043491609     0.538029466040    12.000000000000
         C           -2.445660765791     1.320987482198     0.527719755839    12.000000000000
         C           -1.223604861027     0.606670850570     0.539149020370    12.000000000000
         C            0.007633689588     1.308729498173     0.537614674088    12.000000000000
         C            1.231215628021     0.593463039523     0.518788088431    12.000000000000
         C            2.460816920806     1.294638385061     0.538292597322    12.000000000000
         C            3.684426074471     0.578544777148     0.537463811045    12.000000000000
         C            4.918704721813     1.283080910125     0.525061989410    12.000000000000
         C            7.369797898236     2.670828552120     0.531270018090    12.000000000000
         C            7.380158486396     1.282563856791     0.532816700935    12.000000000000
         C            6.139795359397     0.565464972136     0.539145042747    12.000000000000
         H           -8.279194979072     3.298464390060     0.526054923583     1.007825032230
         H            8.315109291754     3.209464445559     0.527059442290     1.007825032230
         C           -8.591760117307     0.616178901980     0.532458441450    12.000000000000
         C           -8.599028783429    -0.741293457293     0.534581566032    12.000000000000
         C           -6.139817318844    -0.782790288218     0.527592224697    12.000000000000
         C           -7.380188291863    -1.499919840646     0.535008286238    12.000000000000
         C           -4.918688659982    -1.500408669094     0.539932722847    12.000000000000
         C           -3.684442475410    -0.795890966800     0.528900482782    12.000000000000
         C           -2.460821219973    -1.511998829889     0.539443568972    12.000000000000
         C           -1.231166192046    -0.810827515945     0.527323190180    12.000000000000
         C           -0.007573805113    -1.526072500475     0.534779714483    12.000000000000
         C            1.223643536163    -0.823929028328     0.544785336432    12.000000000000
         C            2.445666469606    -1.538296940071     0.533035323672    12.000000000000
         C            3.676862523121    -0.835361082620     0.528894739277    12.000000000000
         C            6.132244666694    -0.848632490914     0.527366765065    12.000000000000
         C            4.903514965779    -1.553111171605     0.541207839605    12.000000000000
         C            8.599010668965     0.523950215603     0.532678817080    12.000000000000
         C            8.591741308375    -0.833504518258     0.534415197341    12.000000000000
         C            7.364858584664    -1.578986316670     0.534185020648    12.000000000000
         H           -9.528310151544     1.168193798128     0.530988514485     1.007825032230
         H            9.541406794881     1.065918837380     0.531626784818     1.007825032230
         C           -7.369842089494    -2.888198796998     0.536816494660    12.000000000000
         C           -4.924603288776    -2.917090908405     0.529084862224    12.000000000000
         C           -6.166626675393    -3.625305843890     0.535386702383    12.000000000000
         C           -3.702514539430    -3.633335200185     0.539408931410    12.000000000000
         C           -2.467651164839    -2.929979613868     0.527364293053    12.000000000000
         C           -0.015137653833    -2.941795296464     0.527645881562    12.000000000000
         C           -1.247126020952    -3.643385826627     0.539209834971    12.000000000000
         C            1.209240889918    -3.656568329708     0.541748864762    12.000000000000
         C            2.437331842429    -2.956295389240     0.527609106451    12.000000000000
         C            4.894298164045    -2.969776619350     0.528429846522    12.000000000000
         C            3.664611075316    -3.672873496596     0.541309266463    12.000000000000
         C            6.128634835020    -3.691237708782     0.534655108420    12.000000000000
         C            7.339668484970    -2.967066958435     0.536170334502    12.000000000000
         H           -9.541453290984    -1.283217117729     0.535950982205     1.007825032230
         H            9.528257688346    -1.385572724969     0.535665005102     1.007825032230
         H           -8.315169223574    -3.426803504277     0.540988723191     1.007825032230
         H            8.279150962767    -3.515794440958     0.540509890485     1.007825032230
         C           -6.144998368428    -5.036300923848     0.536712700443    12.000000000000
         C           -3.706787527723    -5.049915365182     0.526891732355    12.000000000000
         C           -4.955594237727    -5.752147624559     0.534858867000    12.000000000000
         C           -2.486125505952    -5.763439225474     0.539831403400    12.000000000000
         C           -1.254062515205    -5.064775701066     0.528655797414    12.000000000000
         C            1.201008394143    -5.077934039257     0.529836921672    12.000000000000
         C           -0.030340854139    -5.778173954203     0.537680121336    12.000000000000
         C            3.653745921603    -5.089397426479     0.530594921420    12.000000000000
         C            2.425488516150    -5.789828286592     0.539971851972    12.000000000000
         C            6.091961438086    -5.101911614451     0.536949335094    12.000000000000
         C            4.894972264885    -5.805002072022     0.535713139264    12.000000000000
         H           -7.089896567766    -5.575653493303     0.541115462125     1.007825032230
         H            7.031051029475    -5.651312187397     0.540529114858     1.007825032230
         C           -4.923549501924    -7.187474750742     0.534304098095    12.000000000000
         C           -2.485346267963    -7.196381728994     0.531794205660    12.000000000000
         C           -3.751690071504    -7.872600808701     0.531988884585    12.000000000000
         C           -0.037953136713    -7.208118525534     0.532009930807    12.000000000000
         C           -1.277960280127    -7.881558035731     0.530025238045    12.000000000000
         C            2.409440141001    -7.222675663067     0.532873131618    12.000000000000
         C            1.194745757428    -7.894839016627     0.530720840736    12.000000000000
         C            4.847616872773    -7.239915761644     0.535379946278    12.000000000000
         C            3.668467426150    -7.912441644008     0.533031511914    12.000000000000
         H           -5.869944530142    -7.722484249106     0.535848134961     1.007825032230
         H            5.788245445663    -7.784985840379     0.536507065760     1.007825032230
         H           -3.753531119175    -8.959725220301     0.530152970156     1.007825032230
         H           -1.284308585620    -8.969529043562     0.525597854187     1.007825032230
         H            1.189217394970    -8.982814271654     0.526628204046     1.007825032230
         H            3.658542435098    -8.999514285118     0.531376970491     1.007825032230

  Running in c1 symmetry.

  Rotational constants: A =      0.00059  B =      0.00059  C =      0.00035 [cm^-1]
  Rotational constants: A =     17.70140  B =     17.69233  C =     10.47057 [MHz]
  Nuclear repulsion = 17722.362509893453534

  Charge       = 1
  Multiplicity = 1
  Electrons    = 652
  Nalpha       = 326
  Nbeta        = 326

  ==> Algorithm <==

  SCF Algorithm Type is DF.
  DIIS enabled.
  MOM disabled.
  Fractional occupation disabled.
  Guess Type is SAD.
  Energy threshold   = 1.00e-08
  Density threshold  = 1.00e-08
  Integral threshold = 1.00e-12

  ==> Primary Basis <==

  Basis Set: JUN-CC-PVDZ
    Blend: JUN-CC-PVDZ
    Number of shells: 923
    Number of basis functions: 2019
    Number of Cartesian functions: 2122
    Spherical Harmonics?: true
    Max angular momentum: 2

   => Loading Basis Set <=

    Name: (JUN-CC-PVDZ AUX)
    Role: JKFIT
    Keyword: DF_BASIS_SCF
    atoms 1-2, 4-5, 10, 17-34, 41-53, 56-70, 73-89, 92-104, 109-119, 122-130 entry C          line   146 file /opt/software/pc2/EB-SW/software/PSI4/1.9-foss-2022a/share/psi4/basis/jun-cc-pvdz-jkfit.gbs 
    atoms 3, 6                                                               entry N          line   202 file /opt/software/pc2/EB-SW/software/PSI4/1.9-foss-2022a/share/psi4/basis/jun-cc-pvdz-jkfit.gbs 
    atoms 7-9, 11-16, 35-40, 54-55, 71-72, 90-91, 105-108, 120-121, 131-136  entry H          line    70 file /opt/software/pc2/EB-SW/software/PSI4/1.9-foss-2022a/share/psi4/basis/jun-cc-pvdz-jkfit.gbs 

  ==> Integral Setup <==

  ==> DiskDFJK: Density-Fitted J/K Matrices <==

    J tasked:                  Yes
    K tasked:                  Yes
    wK tasked:                  No
    OpenMP threads:             16
    Integrals threads:          16
    Memory [MiB]:            45776
    Algorithm:                Disk
    Integral Cache:           SAVE
    Schwarz Cutoff:          1E-12
    Fitting Condition:       1E-10

   => Auxiliary Basis Set <=

  Basis Set: (JUN-CC-PVDZ AUX)
    Blend: JUN-CC-PVDZ-JKFIT
    Number of shells: 3078
    Number of basis functions: 8896
    Number of Cartesian functions: 10198
    Spherical Harmonics?: true
    Max angular momentum: 3

  Minimum eigenvalue in the overlap matrix is 8.9915929899E-11.
  Reciprocal condition number of the overlap matrix is 3.9399391989E-12.
    Using canonical orthogonalization.
  Overall, 38 of 2019 possible MOs eliminated.


  ==> Pre-Iterations <==

  SCF Guess: Superposition of Atomic Densities via on-the-fly atomic UHF (no occupation information).

   -------------------------
    Irrep   Nso     Nmo    
   -------------------------
     A       2019    1981 
   -------------------------
    Total    2019    1981
   -------------------------

  ==> Iterations <==

                           Total Energy        Delta E     RMS |[F,P]|

   @DF-RHF iter SAD: -3967.13467490147241   -3.96713e+03   0.00000e+00 
   @DF-RHF iter   1: -3952.10373167418038    1.50309e+01   7.15806e-04 DIIS/ADIIS
   @DF-RHF iter   2: -3953.49627149780235   -1.39254e+00   2.33674e-04 DIIS/ADIIS
   @DF-RHF iter   3: -3953.61955334582717   -1.23282e-01   1.01541e-04 DIIS/ADIIS
   @DF-RHF iter   4: -3953.64230533781438   -2.27520e-02   4.27556e-05 DIIS
   @DF-RHF iter   5: -3953.64693760363480   -4.63227e-03   1.05133e-05 DIIS
   @DF-RHF iter   6: -3953.64738706374828   -4.49460e-04   4.61165e-06 DIIS
   @DF-RHF iter   7: -3953.64757211280858   -1.85049e-04   2.20785e-06 DIIS
   @DF-RHF iter   8: -3953.64763414840627   -6.20356e-05   1.10290e-06 DIIS
   @DF-RHF iter   9: -3953.64765155171017   -1.74033e-05   3.53078e-07 DIIS
   @DF-RHF iter  10: -3953.64765272388377   -1.17217e-06   1.44431e-07 DIIS
   @DF-RHF iter  11: -3953.64765287209002   -1.48206e-07   5.88132e-08 DIIS
   @DF-RHF iter  12: -3953.64765290410651   -3.20165e-08   2.91554e-08 DIIS
   @DF-RHF iter  13: -3953.64765291068943   -6.58292e-09   9.40611e-09 DIIS
  Energy and wave function converged.


  ==> Post-Iterations <==

    Orbital Energies [Eh]
    ---------------------

    Doubly Occupied:                                                      

       1A    -15.819288     2A    -15.818771     3A    -11.513913  
       4A    -11.445942     5A    -11.444387     6A    -11.433928  
       7A    -11.433832     8A    -11.322372     9A    -11.321570  
      10A    -11.321455    11A    -11.321067    12A    -11.320758  
      13A    -11.320694    14A    -11.320241    15A    -11.320154  
      16A    -11.319975    17A    -11.319936    18A    -11.319464  
      19A    -11.319404    20A    -11.319250    21A    -11.319130  
      22A    -11.318972    23A    -11.318692    24A    -11.318675  
      25A    -11.318198    26A    -11.317920    27A    -11.317872  
      28A    -11.317847    29A    -11.317746    30A    -11.317477  
      31A    -11.317473    32A    -11.317316    33A    -11.317098  
      34A    -11.316658    35A    -11.316648    36A    -11.316336  
      37A    -11.316233    38A    -11.316169    39A    -11.315673  
      40A    -11.315656    41A    -11.315617    42A    -11.315604  
      43A    -11.315562    44A    -11.315535    45A    -11.315111  
      46A    -11.315094    47A    -11.314835    48A    -11.314574  
      49A    -11.314560    50A    -11.314517    51A    -11.314499  
      52A    -11.314438    53A    -11.314411    54A    -11.314165  
      55A    -11.314144    56A    -11.314070    57A    -11.314003  
      58A    -11.313990    59A    -11.313883    60A    -11.313681  
      61A    -11.313656    62A    -11.313539    63A    -11.313514  
      64A    -11.313087    65A    -11.313059    66A    -11.312496  
      67A    -11.312439    68A    -11.312416    69A    -11.312347  
      70A    -11.312320    71A    -11.312068    72A    -11.312052  
      73A    -11.311812    74A    -11.311792    75A    -11.311231  
      76A    -11.311223    77A    -11.311004    78A    -11.310679  
      79A    -11.310665    80A    -11.307248    81A    -11.307170  
      82A    -11.307084    83A    -11.307056    84A    -11.306213  
      85A    -11.306183    86A    -11.306145    87A    -11.306104  
      88A    -11.305443    89A    -11.305426    90A    -11.304738  
      91A    -11.304708    92A    -11.304681    93A    -11.304647  
      94A    -11.304233    95A    -11.304223    96A    -11.303946  
      97A    -11.303864    98A    -11.303155    99A    -11.303122  
     100A    -11.302580   101A    -11.302574   102A    -11.301094  
     103A    -11.301090   104A     -1.563129   105A     -1.418591  
     106A     -1.310461   107A     -1.294106   108A     -1.293898  
     109A     -1.274565   110A     -1.274559   111A     -1.270599  
     112A     -1.254338   113A     -1.249338   114A     -1.243055  
     115A     -1.242915   116A     -1.226832   117A     -1.226827  
     118A     -1.223872   119A     -1.210168   120A     -1.210144  
     121A     -1.207397   122A     -1.197528   123A     -1.197513  
     124A     -1.182345   125A     -1.173902   126A     -1.169159  
     127A     -1.167059   128A     -1.166910   129A     -1.165867  
     130A     -1.164163   131A     -1.142078   132A     -1.142039  
     133A     -1.129562   134A     -1.129553   135A     -1.121721  
     136A     -1.121675   137A     -1.119372   138A     -1.103409  
     139A     -1.100146   140A     -1.100120   141A     -1.093826  
     142A     -1.091313   143A     -1.091309   144A     -1.079783  
     145A     -1.076626   146A     -1.076573   147A     -1.060730  
     148A     -1.060088   149A     -1.057014   150A     -1.054432  
     151A     -1.054420   152A     -1.043326   153A     -1.024663  
     154A     -1.024638   155A     -1.008698   156A     -1.008689  
     157A     -1.007767   158A     -0.981665   159A     -0.960592  
     160A     -0.960498   161A     -0.959640   162A     -0.957693  
     163A     -0.957659   164A     -0.947261   165A     -0.947214  
     166A     -0.944903   167A     -0.944584   168A     -0.943180  
     169A     -0.924767   170A     -0.920582   171A     -0.904541  
     172A     -0.902131   173A     -0.901951   174A     -0.901741  
     175A     -0.899772   176A     -0.896791   177A     -0.887705  
     178A     -0.887683   179A     -0.880261   180A     -0.880253  
     181A     -0.838668   182A     -0.838570   183A     -0.836632  
     184A     -0.836272   185A     -0.836056   186A     -0.835412  
     187A     -0.835330   188A     -0.835077   189A     -0.820511  
     190A     -0.815368   191A     -0.804350   192A     -0.801610  
     193A     -0.797400   194A     -0.785863   195A     -0.780490  
     196A     -0.780364   197A     -0.778519   198A     -0.777947  
     199A     -0.777866   200A     -0.775228   201A     -0.772611  
     202A     -0.770871   203A     -0.767650   204A     -0.767642  
     205A     -0.767444   206A     -0.752256   207A     -0.752254  
     208A     -0.740120   209A     -0.738716   210A     -0.738702  
     211A     -0.735230   212A     -0.735221   213A     -0.732008  
     214A     -0.713867   215A     -0.710041   216A     -0.706121  
     217A     -0.704129   218A     -0.704080   219A     -0.703384  
     220A     -0.703353   221A     -0.702072   222A     -0.701824  
     223A     -0.694722   224A     -0.694647   225A     -0.692969  
     226A     -0.691927   227A     -0.689433   228A     -0.689424  
     229A     -0.682291   230A     -0.674755   231A     -0.667554  
     232A     -0.667543   233A     -0.661764   234A     -0.661729  
     235A     -0.654458   236A     -0.654199   237A     -0.652708  
     238A     -0.652441   239A     -0.652244   240A     -0.651846  
     241A     -0.648017   242A     -0.647876   243A     -0.647833  
     244A     -0.647576   245A     -0.644651   246A     -0.644602  
     247A     -0.641735   248A     -0.629825   249A     -0.629822  
     250A     -0.629423   251A     -0.629415   252A     -0.626276  
     253A     -0.625035   254A     -0.622121   255A     -0.622044  
     256A     -0.619479   257A     -0.619363   258A     -0.612443  
     259A     -0.612081   260A     -0.612060   261A     -0.610303  
     262A     -0.607515   263A     -0.603765   264A     -0.598784  
     265A     -0.597970   266A     -0.590159   267A     -0.589991  
     268A     -0.586348   269A     -0.586240   270A     -0.581897  
     271A     -0.581314   272A     -0.580657   273A     -0.580635  
     274A     -0.570350   275A     -0.570235   276A     -0.568255  
     277A     -0.568251   278A     -0.561951   279A     -0.561899  
     280A     -0.551043   281A     -0.549667   282A     -0.549628  
     283A     -0.548434   284A     -0.548409   285A     -0.544380  
     286A     -0.533752   287A     -0.529987   288A     -0.529970  
     289A     -0.526725   290A     -0.523344   291A     -0.519852  
     292A     -0.519765   293A     -0.512572   294A     -0.509576  
     295A     -0.501291   296A     -0.501162   297A     -0.495598  
     298A     -0.495549   299A     -0.495345   300A     -0.486935  
     301A     -0.486330   302A     -0.461050   303A     -0.461001  
     304A     -0.440825   305A     -0.440776   306A     -0.438510  
     307A     -0.437937   308A     -0.437837   309A     -0.407747  
     310A     -0.407706   311A     -0.404143   312A     -0.393967  
     313A     -0.391846   314A     -0.391784   315A     -0.384934  
     316A     -0.384871   317A     -0.361702   318A     -0.356481  
     319A     -0.356456   320A     -0.353840   321A     -0.339187  
     322A     -0.307930   323A     -0.307808   324A     -0.307789  
     325A     -0.257419   326A     -0.257373  

    Virtual:                                                              

     327A     -0.064693   328A     -0.064553   329A     -0.053457  
     330A     -0.049027   331A     -0.041208   332A     -0.034150  
     333A     -0.019220   334A     -0.019166   335A     -0.019116  
     336A     -0.016744   337A     -0.015598   338A     -0.011634  
     339A     -0.010103   340A     -0.001318   341A      0.000944  
     342A      0.001709   343A      0.003223   344A      0.005075  
     345A      0.007265   346A      0.008834   347A      0.010015  
     348A      0.010205   349A      0.011276   350A      0.012892  
     351A      0.014378   352A      0.014799   353A      0.015894  
     354A      0.016024   355A      0.019542   356A      0.019848  
     357A      0.020449   358A      0.023517   359A      0.025838  
     360A      0.025898   361A      0.026582   362A      0.028135  
     363A      0.030896   364A      0.030936   365A      0.031228  
     366A      0.034406   367A      0.038562   368A      0.039162  
     369A      0.040299   370A      0.040923   371A      0.041497  
     372A      0.042118   373A      0.045174   374A      0.047476  
     375A      0.047951   376A      0.048695   377A      0.053210  
     378A      0.053374   379A      0.054113   380A      0.054314  
     381A      0.057508   382A      0.058264   383A      0.058694  
     384A      0.060836   385A      0.061655   386A      0.062328  
     387A      0.062362   388A      0.062709   389A      0.063187  
     390A      0.063541   391A      0.065267   392A      0.069164  
     393A      0.071171   394A      0.071371   395A      0.072358  
     396A      0.073252   397A      0.075688   398A      0.076347  
     399A      0.080194   400A      0.081511   401A      0.083460  
     402A      0.083990   403A      0.084153   404A      0.087137  
     405A      0.087243   406A      0.088355   407A      0.090041  
     408A      0.092499   409A      0.093102   410A      0.093378  
     411A      0.093759   412A      0.093854   413A      0.097064  
     414A      0.099281   415A      0.099500   416A      0.101135  
     417A      0.103933   418A      0.104080   419A      0.105916  
     420A      0.106454   421A      0.108287   422A      0.110253  
     423A      0.111834   424A      0.111980   425A      0.113485  
     426A      0.113801   427A      0.114955   428A      0.116787  
     429A      0.116864   430A      0.120313   431A      0.120651  
     432A      0.121091   433A      0.122855   434A      0.124088  
     435A      0.125910   436A      0.126933   437A      0.128324  
     438A      0.128516   439A      0.129459   440A      0.130630  
     441A      0.132693   442A      0.132839   443A      0.134432  
     444A      0.137895   445A      0.138236   446A      0.141173  
     447A      0.141514   448A      0.141840   449A      0.141979  
     450A      0.142219   451A      0.148072   452A      0.149604  
     453A      0.150356   454A      0.151997   455A      0.152553  
     456A      0.153034   457A      0.153466   458A      0.153690  
     459A      0.155255   460A      0.156040   461A      0.157507  
     462A      0.158127   463A      0.158311   464A      0.159116  
     465A      0.159873   466A      0.160564   467A      0.160651  
     468A      0.160823   469A      0.161831   470A      0.162057  
     471A      0.162155   472A      0.163435   473A      0.165341  
     474A      0.165845   475A      0.166299   476A      0.167545  
     477A      0.168512   478A      0.170121   479A      0.171010  
     480A      0.171938   481A      0.172744   482A      0.172936  
     483A      0.174764   484A      0.175777   485A      0.176357  
     486A      0.176826   487A      0.180320   488A      0.180684  
     489A      0.181021   490A      0.181486   491A      0.181642  
     492A      0.184312   493A      0.185218   494A      0.186397  
     495A      0.187815   496A      0.189126   497A      0.190396  
     498A      0.190762   499A      0.192215   500A      0.192764  
     501A      0.193508   502A      0.193754   503A      0.196867  
     504A      0.198171   505A      0.198637   506A      0.198923  
     507A      0.200333   508A      0.201660   509A      0.202509  
     510A      0.205679   511A      0.206124   512A      0.207477  
     513A      0.209816   514A      0.210260   515A      0.210535  
     516A      0.211509   517A      0.213902   518A      0.214724  
     519A      0.214920   520A      0.216772   521A      0.216799  
     522A      0.217761   523A      0.218427   524A      0.218947  
     525A      0.219569   526A      0.220664   527A      0.221094  
     528A      0.223293   529A      0.225770   530A      0.227372  
     531A      0.227562   532A      0.228383   533A      0.228849  
     534A      0.228945   535A      0.230272   536A      0.232014  
     537A      0.233319   538A      0.234244   539A      0.235108  
     540A      0.236934   541A      0.237202   542A      0.237870  
     543A      0.240354   544A      0.241412   545A      0.242011  
     546A      0.242441   547A      0.242957   548A      0.244276  
     549A      0.244916   550A      0.246256   551A      0.248784  
     552A      0.249649   553A      0.250180   554A      0.250462  
     555A      0.251945   556A      0.253200   557A      0.254931  
     558A      0.255554   559A      0.256726   560A      0.256823  
     561A      0.257274   562A      0.258226   563A      0.260138  
     564A      0.262349   565A      0.263537   566A      0.264188  
     567A      0.265126   568A      0.266504   569A      0.267818  
     570A      0.268022   571A      0.268515   572A      0.269535  
     573A      0.269722   574A      0.270157   575A      0.270255  
     576A      0.271235   577A      0.272239   578A      0.273147  
     579A      0.273827   580A      0.275756   581A      0.278103  
     582A      0.278741   583A      0.279526   584A      0.280582  
     585A      0.281153   586A      0.281413   587A      0.281544  
     588A      0.282507   589A      0.283251   590A      0.285007  
     591A      0.285983   592A      0.287661   593A      0.288057  
     594A      0.289498   595A      0.290836   596A      0.291469  
     597A      0.293133   598A      0.293764   599A      0.294685  
     600A      0.295124   601A      0.295916   602A      0.296198  
     603A      0.297267   604A      0.298188   605A      0.298509  
     606A      0.299482   607A      0.299711   608A      0.301177  
     609A      0.302353   610A      0.304332   611A      0.305487  
     612A      0.308171   613A      0.309250   614A      0.312033  
     615A      0.312295   616A      0.313117   617A      0.315263  
     618A      0.316618   619A      0.317024   620A      0.317669  
     621A      0.318041   622A      0.318983   623A      0.319515  
     624A      0.322086   625A      0.323784   626A      0.324530  
     627A      0.325381   628A      0.326226   629A      0.328068  
     630A      0.328387   631A      0.329174   632A      0.329925  
     633A      0.330894   634A      0.331695   635A      0.331755  
     636A      0.334870   637A      0.335459   638A      0.337526  
     639A      0.339402   640A      0.340319   641A      0.341744  
     642A      0.342177   643A      0.343121   644A      0.343569  
     645A      0.343878   646A      0.344424   647A      0.344979  
     648A      0.345284   649A      0.346077   650A      0.346356  
     651A      0.347784   652A      0.347970   653A      0.348848  
     654A      0.349828   655A      0.350672   656A      0.351189  
     657A      0.352364   658A      0.352701   659A      0.353581  
     660A      0.354215   661A      0.354310   662A      0.356843  
     663A      0.357380   664A      0.358019   665A      0.358081  
     666A      0.359266   667A      0.360272   668A      0.360731  
     669A      0.360925   670A      0.361414   671A      0.363078  
     672A      0.364163   673A      0.364657   674A      0.365640  
     675A      0.365955   676A      0.367408   677A      0.367754  
     678A      0.369391   679A      0.370641   680A      0.373159  
     681A      0.375380   682A      0.375500   683A      0.377312  
     684A      0.378046   685A      0.378368   686A      0.378821  
     687A      0.379348   688A      0.379578   689A      0.380922  
     690A      0.382067   691A      0.382653   692A      0.383527  
     693A      0.384700   694A      0.384933   695A      0.385717  
     696A      0.387684   697A      0.387929   698A      0.389015  
     699A      0.389651   700A      0.392219   701A      0.398449  
     702A      0.398956   703A      0.399433   704A      0.400627  
     705A      0.401212   706A      0.401567   707A      0.402424  
     708A      0.403168   709A      0.404122   710A      0.404265  
     711A      0.404683   712A      0.405907   713A      0.406188  
     714A      0.408030   715A      0.410196   716A      0.410876  
     717A      0.411798   718A      0.412939   719A      0.413832  
     720A      0.414206   721A      0.415109   722A      0.416055  
     723A      0.416312   724A      0.417224   725A      0.418708  
     726A      0.418931   727A      0.420603   728A      0.422710  
     729A      0.423026   730A      0.423433   731A      0.424700  
     732A      0.424900   733A      0.426138   734A      0.426787  
     735A      0.427861   736A      0.428097   737A      0.428679  
     738A      0.431091   739A      0.433860   740A      0.434240  
     741A      0.435184   742A      0.437771   743A      0.438156  
     744A      0.439835   745A      0.440713   746A      0.441734  
     747A      0.442573   748A      0.443458   749A      0.445337  
     750A      0.445641   751A      0.449253   752A      0.450740  
     753A      0.451202   754A      0.452194   755A      0.452499  
     756A      0.452723   757A      0.454397   758A      0.455284  
     759A      0.456334   760A      0.456522   761A      0.461874  
     762A      0.463645   763A      0.463808   764A      0.464770  
     765A      0.465444   766A      0.465718   767A      0.466538  
     768A      0.466767   769A      0.468195   770A      0.470052  
     771A      0.472311   772A      0.473148   773A      0.473901  
     774A      0.478159   775A      0.480116   776A      0.481049  
     777A      0.481086   778A      0.481930   779A      0.485496  
     780A      0.486310   781A      0.488103   782A      0.488301  
     783A      0.490119   784A      0.491579   785A      0.492685  
     786A      0.494225   787A      0.501800   788A      0.505281  
     789A      0.506240   790A      0.509412   791A      0.509928  
     792A      0.510481   793A      0.512048   794A      0.514129  
     795A      0.515445   796A      0.516400   797A      0.518867  
     798A      0.519314   799A      0.520129   800A      0.520922  
     801A      0.523362   802A      0.523715   803A      0.524050  
     804A      0.525450   805A      0.526069   806A      0.526365  
     807A      0.527618   808A      0.529809   809A      0.530868  
     810A      0.533816   811A      0.535624   812A      0.537362  
     813A      0.537446   814A      0.538610   815A      0.540688  
     816A      0.540895   817A      0.544601   818A      0.545175  
     819A      0.546220   820A      0.549090   821A      0.550284  
     822A      0.551653   823A      0.552870   824A      0.553773  
     825A      0.558927   826A      0.563966   827A      0.566425  
     828A      0.566792   829A      0.567893   830A      0.568409  
     831A      0.572324   832A      0.577228   833A      0.577923  
     834A      0.578710   835A      0.580085   836A      0.584612  
     837A      0.586772   838A      0.590260   839A      0.593569  
     840A      0.594490   841A      0.602526   842A      0.603120  
     843A      0.604320   844A      0.605633   845A      0.606847  
     846A      0.607446   847A      0.607627   848A      0.612527  
     849A      0.613880   850A      0.614522   851A      0.619423  
     852A      0.627317   853A      0.632097   854A      0.632862  
     855A      0.633952   856A      0.634464   857A      0.636745  
     858A      0.637516   859A      0.638739   860A      0.638901  
     861A      0.639843   862A      0.643590   863A      0.646209  
     864A      0.647927   865A      0.648165   866A      0.648674  
     867A      0.653865   868A      0.654062   869A      0.654502  
     870A      0.658386   871A      0.666352   872A      0.667756  
     873A      0.673371   874A      0.676240   875A      0.678228  
     876A      0.678742   877A      0.681046   878A      0.686850  
     879A      0.688186   880A      0.689272   881A      0.690574  
     882A      0.691781   883A      0.692718   884A      0.694155  
     885A      0.697738   886A      0.697948   887A      0.701213  
     888A      0.703702   889A      0.709299   890A      0.714382  
     891A      0.720075   892A      0.721611   893A      0.730884  
     894A      0.731417   895A      0.733173   896A      0.735536  
     897A      0.736659   898A      0.740297   899A      0.740605  
     900A      0.741949   901A      0.742222   902A      0.747376  
     903A      0.750585   904A      0.750971   905A      0.752980  
     906A      0.755379   907A      0.756558   908A      0.757533  
     909A      0.760248   910A      0.761197   911A      0.763579  
     912A      0.763742   913A      0.764802   914A      0.767378  
     915A      0.768449   916A      0.770238   917A      0.772835  
     918A      0.776495   919A      0.778038   920A      0.778722  
     921A      0.779478   922A      0.782325   923A      0.783499  
     924A      0.784160   925A      0.785988   926A      0.789441  
     927A      0.790161   928A      0.792054   929A      0.794375  
     930A      0.795355   931A      0.796437   932A      0.798166  
     933A      0.800311   934A      0.802456   935A      0.805655  
     936A      0.806532   937A      0.807827   938A      0.809722  
     939A      0.810352   940A      0.812391   941A      0.814004  
     942A      0.815349   943A      0.817200   944A      0.817445  
     945A      0.818739   946A      0.820760   947A      0.821962  
     948A      0.822965   949A      0.824881   950A      0.825737  
     951A      0.827036   952A      0.828467   953A      0.829974  
     954A      0.832145   955A      0.834417   956A      0.836447  
     957A      0.837600   958A      0.839169   959A      0.839558  
     960A      0.840626   961A      0.841721   962A      0.845436  
     963A      0.847311   964A      0.847967   965A      0.850392  
     966A      0.853699   967A      0.854237   968A      0.854944  
     969A      0.855835   970A      0.856284   971A      0.859414  
     972A      0.863405   973A      0.864963   974A      0.865146  
     975A      0.868145   976A      0.868313   977A      0.869688  
     978A      0.870391   979A      0.870810   980A      0.871148  
     981A      0.874461   982A      0.874965   983A      0.876694  
     984A      0.878663   985A      0.880449   986A      0.881794  
     987A      0.882177   988A      0.883759   989A      0.885720  
     990A      0.886990   991A      0.887426   992A      0.888145  
     993A      0.892606   994A      0.894854   995A      0.895970  
     996A      0.897063   997A      0.899061   998A      0.899410  
     999A      0.899816  1000A      0.900651  1001A      0.901591  
    1002A      0.902039  1003A      0.904664  1004A      0.905191  
    1005A      0.905377  1006A      0.906026  1007A      0.913296  
    1008A      0.914166  1009A      0.916057  1010A      0.916785  
    1011A      0.918391  1012A      0.919607  1013A      0.920958  
    1014A      0.922460  1015A      0.929672  1016A      0.931701  
    1017A      0.932832  1018A      0.934693  1019A      0.941547  
    1020A      0.941778  1021A      0.941857  1022A      0.942092  
    1023A      0.948979  1024A      0.949139  1025A      0.950648  
    1026A      0.952076  1027A      0.953132  1028A      0.953230  
    1029A      0.953946  1030A      0.957881  1031A      0.960150  
    1032A      0.963284  1033A      0.963542  1034A      0.965600  
    1035A      0.967092  1036A      0.968131  1037A      0.968924  
    1038A      0.970760  1039A      0.974279  1040A      0.975411  
    1041A      0.977729  1042A      0.980161  1043A      0.980753  
    1044A      0.981281  1045A      0.983443  1046A      0.983999  
    1047A      0.985453  1048A      0.987979  1049A      0.992662  
    1050A      0.993502  1051A      0.994060  1052A      0.994841  
    1053A      0.995178  1054A      0.995387  1055A      0.995938  
    1056A      0.996554  1057A      0.999410  1058A      1.000338  
    1059A      1.000654  1060A      1.000911  1061A      1.001375  
    1062A      1.002009  1063A      1.008207  1064A      1.009165  
    1065A      1.009414  1066A      1.011716  1067A      1.012691  
    1068A      1.013872  1069A      1.014248  1070A      1.015026  
    1071A      1.015809  1072A      1.017216  1073A      1.017636  
    1074A      1.018702  1075A      1.019274  1076A      1.019681  
    1077A      1.020127  1078A      1.020370  1079A      1.021608  
    1080A      1.022235  1081A      1.023010  1082A      1.024433  
    1083A      1.024531  1084A      1.025158  1085A      1.025825  
    1086A      1.026482  1087A      1.027222  1088A      1.027909  
    1089A      1.028344  1090A      1.028687  1091A      1.028886  
    1092A      1.029410  1093A      1.030499  1094A      1.032657  
    1095A      1.032989  1096A      1.034975  1097A      1.035337  
    1098A      1.036141  1099A      1.037221  1100A      1.037564  
    1101A      1.038495  1102A      1.041327  1103A      1.041843  
    1104A      1.043857  1105A      1.044198  1106A      1.045400  
    1107A      1.046097  1108A      1.047249  1109A      1.048059  
    1110A      1.048396  1111A      1.050344  1112A      1.050998  
    1113A      1.054423  1114A      1.058492  1115A      1.059515  
    1116A      1.060546  1117A      1.064904  1118A      1.066988  
    1119A      1.067406  1120A      1.068549  1121A      1.069007  
    1122A      1.074883  1123A      1.075516  1124A      1.077906  
    1125A      1.078432  1126A      1.080405  1127A      1.081038  
    1128A      1.081177  1129A      1.081532  1130A      1.084549  
    1131A      1.085728  1132A      1.086278  1133A      1.090551  
    1134A      1.091761  1135A      1.092611  1136A      1.093417  
    1137A      1.096171  1138A      1.096642  1139A      1.097671  
    1140A      1.098719  1141A      1.100778  1142A      1.103247  
    1143A      1.104424  1144A      1.104596  1145A      1.106436  
    1146A      1.109781  1147A      1.110970  1148A      1.114662  
    1149A      1.116539  1150A      1.117529  1151A      1.118837  
    1152A      1.122606  1153A      1.123044  1154A      1.128263  
    1155A      1.130913  1156A      1.132166  1157A      1.133097  
    1158A      1.134890  1159A      1.138243  1160A      1.139253  
    1161A      1.140508  1162A      1.140672  1163A      1.143279  
    1164A      1.148616  1165A      1.149646  1166A      1.149775  
    1167A      1.152644  1168A      1.152793  1169A      1.153222  
    1170A      1.158255  1171A      1.159569  1172A      1.160502  
    1173A      1.162875  1174A      1.164159  1175A      1.165903  
    1176A      1.166488  1177A      1.168419  1178A      1.170717  
    1179A      1.171647  1180A      1.173795  1181A      1.175643  
    1182A      1.180867  1183A      1.181501  1184A      1.188175  
    1185A      1.194322  1186A      1.194532  1187A      1.196344  
    1188A      1.199755  1189A      1.200522  1190A      1.203172  
    1191A      1.209580  1192A      1.209712  1193A      1.209962  
    1194A      1.211673  1195A      1.217501  1196A      1.218718  
    1197A      1.219367  1198A      1.221234  1199A      1.226315  
    1200A      1.233280  1201A      1.233776  1202A      1.237988  
    1203A      1.238869  1204A      1.239658  1205A      1.241423  
    1206A      1.242691  1207A      1.243453  1208A      1.245633  
    1209A      1.250647  1210A      1.251024  1211A      1.253694  
    1212A      1.254361  1213A      1.255418  1214A      1.259653  
    1215A      1.261304  1216A      1.261663  1217A      1.262627  
    1218A      1.267398  1219A      1.267560  1220A      1.267971  
    1221A      1.268694  1222A      1.269994  1223A      1.274310  
    1224A      1.274991  1225A      1.278012  1226A      1.278868  
    1227A      1.279790  1228A      1.283703  1229A      1.283853  
    1230A      1.287220  1231A      1.287581  1232A      1.289903  
    1233A      1.291531  1234A      1.293116  1235A      1.297766  
    1236A      1.302810  1237A      1.303039  1238A      1.304211  
    1239A      1.305865  1240A      1.306143  1241A      1.309018  
    1242A      1.309928  1243A      1.311449  1244A      1.311676  
    1245A      1.318255  1246A      1.318860  1247A      1.319338  
    1248A      1.320469  1249A      1.321647  1250A      1.323917  
    1251A      1.334878  1252A      1.335298  1253A      1.337786  
    1254A      1.341701  1255A      1.342859  1256A      1.343305  
    1257A      1.343623  1258A      1.345306  1259A      1.347748  
    1260A      1.354073  1261A      1.355224  1262A      1.355826  
    1263A      1.355938  1264A      1.358417  1265A      1.360824  
    1266A      1.362089  1267A      1.362338  1268A      1.363434  
    1269A      1.366562  1270A      1.369035  1271A      1.370613  
    1272A      1.372226  1273A      1.374371  1274A      1.374818  
    1275A      1.375472  1276A      1.376372  1277A      1.377687  
    1278A      1.379197  1279A      1.382359  1280A      1.383720  
    1281A      1.384128  1282A      1.386122  1283A      1.387735  
    1284A      1.388668  1285A      1.393516  1286A      1.394142  
    1287A      1.395365  1288A      1.397569  1289A      1.398175  
    1290A      1.398454  1291A      1.401727  1292A      1.403475  
    1293A      1.410635  1294A      1.411526  1295A      1.416926  
    1296A      1.417829  1297A      1.418585  1298A      1.419186  
    1299A      1.420412  1300A      1.427491  1301A      1.431214  
    1302A      1.431822  1303A      1.433029  1304A      1.437890  
    1305A      1.442620  1306A      1.443180  1307A      1.443875  
    1308A      1.446929  1309A      1.450536  1310A      1.452663  
    1311A      1.453390  1312A      1.463805  1313A      1.465022  
    1314A      1.484332  1315A      1.485471  1316A      1.487674  
    1317A      1.488139  1318A      1.491238  1319A      1.495684  
    1320A      1.499720  1321A      1.499807  1322A      1.520406  
    1323A      1.529792  1324A      1.536653  1325A      1.539605  
    1326A      1.540592  1327A      1.544936  1328A      1.548101  
    1329A      1.549747  1330A      1.550935  1331A      1.551803  
    1332A      1.553285  1333A      1.554335  1334A      1.556973  
    1335A      1.557478  1336A      1.557895  1337A      1.560436  
    1338A      1.560791  1339A      1.561382  1340A      1.562329  
    1341A      1.562925  1342A      1.565923  1343A      1.567246  
    1344A      1.567795  1345A      1.569995  1346A      1.571865  
    1347A      1.573542  1348A      1.573848  1349A      1.576835  
    1350A      1.577103  1351A      1.581068  1352A      1.582086  
    1353A      1.582338  1354A      1.582759  1355A      1.584004  
    1356A      1.584693  1357A      1.584989  1358A      1.585796  
    1359A      1.586292  1360A      1.587527  1361A      1.589943  
    1362A      1.590544  1363A      1.591926  1364A      1.597967  
    1365A      1.598923  1366A      1.599312  1367A      1.603292  
    1368A      1.603538  1369A      1.604018  1370A      1.610855  
    1371A      1.611343  1372A      1.614184  1373A      1.614393  
    1374A      1.614784  1375A      1.615676  1376A      1.615726  
    1377A      1.617250  1378A      1.623401  1379A      1.623851  
    1380A      1.624353  1381A      1.624715  1382A      1.625500  
    1383A      1.634558  1384A      1.635935  1385A      1.637109  
    1386A      1.639509  1387A      1.642329  1388A      1.642649  
    1389A      1.643391  1390A      1.644290  1391A      1.646473  
    1392A      1.656250  1393A      1.656438  1394A      1.656708  
    1395A      1.661069  1396A      1.662954  1397A      1.663210  
    1398A      1.666050  1399A      1.667530  1400A      1.668541  
    1401A      1.668790  1402A      1.671353  1403A      1.672258  
    1404A      1.681523  1405A      1.684386  1406A      1.684969  
    1407A      1.687546  1408A      1.692847  1409A      1.694648  
    1410A      1.694672  1411A      1.697080  1412A      1.697968  
    1413A      1.700529  1414A      1.710281  1415A      1.711971  
    1416A      1.715356  1417A      1.720421  1418A      1.726755  
    1419A      1.733173  1420A      1.735343  1421A      1.735829  
    1422A      1.748296  1423A      1.748563  1424A      1.751946  
    1425A      1.756147  1426A      1.764822  1427A      1.765860  
    1428A      1.768254  1429A      1.768579  1430A      1.770785  
    1431A      1.773246  1432A      1.774332  1433A      1.774814  
    1434A      1.775656  1435A      1.776688  1436A      1.778137  
    1437A      1.779977  1438A      1.780410  1439A      1.783364  
    1440A      1.783471  1441A      1.783653  1442A      1.784510  
    1443A      1.790245  1444A      1.791746  1445A      1.803695  
    1446A      1.803993  1447A      1.805467  1448A      1.807164  
    1449A      1.807701  1450A      1.809561  1451A      1.809819  
    1452A      1.812417  1453A      1.812474  1454A      1.817321  
    1455A      1.817901  1456A      1.820467  1457A      1.821047  
    1458A      1.822858  1459A      1.827998  1460A      1.828539  
    1461A      1.829480  1462A      1.829796  1463A      1.830381  
    1464A      1.830667  1465A      1.831795  1466A      1.831862  
    1467A      1.832472  1468A      1.833642  1469A      1.835842  
    1470A      1.836223  1471A      1.838445  1472A      1.850271  
    1473A      1.850507  1474A      1.853273  1475A      1.853427  
    1476A      1.858371  1477A      1.861345  1478A      1.862211  
    1479A      1.863272  1480A      1.864351  1481A      1.867642  
    1482A      1.868262  1483A      1.868806  1484A      1.870986  
    1485A      1.871669  1486A      1.872463  1487A      1.878081  
    1488A      1.879216  1489A      1.883537  1490A      1.884437  
    1491A      1.885721  1492A      1.886472  1493A      1.886918  
    1494A      1.887283  1495A      1.889265  1496A      1.890251  
    1497A      1.890659  1498A      1.891508  1499A      1.893383  
    1500A      1.898399  1501A      1.899864  1502A      1.902096  
    1503A      1.905579  1504A      1.905899  1505A      1.907849  
    1506A      1.907964  1507A      1.908408  1508A      1.913429  
    1509A      1.914503  1510A      1.915597  1511A      1.916544  
    1512A      1.917657  1513A      1.918528  1514A      1.919513  
    1515A      1.920096  1516A      1.927780  1517A      1.928665  
    1518A      1.931915  1519A      1.936552  1520A      1.939066  
    1521A      1.939287  1522A      1.940521  1523A      1.940947  
    1524A      1.942464  1525A      1.953544  1526A      1.954540  
    1527A      1.957368  1528A      1.958391  1529A      1.959329  
    1530A      1.962630  1531A      1.963183  1532A      1.963829  
    1533A      1.963994  1534A      1.965824  1535A      1.966122  
    1536A      1.966509  1537A      1.968370  1538A      1.971233  
    1539A      1.972367  1540A      1.976103  1541A      1.977764  
    1542A      1.979630  1543A      1.980803  1544A      1.982692  
    1545A      1.985769  1546A      1.988121  1547A      1.989132  
    1548A      1.989711  1549A      1.994033  1550A      1.996672  
    1551A      1.998982  1552A      2.000296  1553A      2.002752  
    1554A      2.003875  1555A      2.005537  1556A      2.006169  
    1557A      2.006777  1558A      2.007430  1559A      2.013196  
    1560A      2.015627  1561A      2.015763  1562A      2.017481  
    1563A      2.022152  1564A      2.024230  1565A      2.025650  
    1566A      2.026569  1567A      2.027361  1568A      2.027720  
    1569A      2.029584  1570A      2.029810  1571A      2.030170  
    1572A      2.030796  1573A      2.033454  1574A      2.035148  
    1575A      2.035536  1576A      2.036925  1577A      2.038033  
    1578A      2.038669  1579A      2.039242  1580A      2.040722  
    1581A      2.041444  1582A      2.043406  1583A      2.044051  
    1584A      2.045278  1585A      2.045726  1586A      2.048366  
    1587A      2.048498  1588A      2.049359  1589A      2.054088  
    1590A      2.057168  1591A      2.058764  1592A      2.058969  
    1593A      2.059014  1594A      2.059770  1595A      2.060263  
    1596A      2.061636  1597A      2.063587  1598A      2.065137  
    1599A      2.066526  1600A      2.072883  1601A      2.073382  
    1602A      2.073854  1603A      2.074223  1604A      2.074510  
    1605A      2.075333  1606A      2.075624  1607A      2.077517  
    1608A      2.081486  1609A      2.082101  1610A      2.082847  
    1611A      2.084319  1612A      2.086149  1613A      2.088710  
    1614A      2.089531  1615A      2.091235  1616A      2.092020  
    1617A      2.092795  1618A      2.101350  1619A      2.101459  
    1620A      2.103188  1621A      2.104145  1622A      2.105031  
    1623A      2.106056  1624A      2.106430  1625A      2.107366  
    1626A      2.110733  1627A      2.111154  1628A      2.117975  
    1629A      2.118314  1630A      2.119341  1631A      2.126616  
    1632A      2.127482  1633A      2.129322  1634A      2.129682  
    1635A      2.135037  1636A      2.135342  1637A      2.136612  
    1638A      2.136846  1639A      2.138453  1640A      2.140156  
    1641A      2.143112  1642A      2.143885  1643A      2.145162  
    1644A      2.146071  1645A      2.147724  1646A      2.148261  
    1647A      2.150812  1648A      2.151632  1649A      2.153154  
    1650A      2.154403  1651A      2.156150  1652A      2.160557  
    1653A      2.160941  1654A      2.166397  1655A      2.166761  
    1656A      2.170027  1657A      2.170608  1658A      2.170839  
    1659A      2.171081  1660A      2.172529  1661A      2.175814  
    1662A      2.177336  1663A      2.179653  1664A      2.180912  
    1665A      2.182430  1666A      2.183201  1667A      2.184884  
    1668A      2.185092  1669A      2.189024  1670A      2.193793  
    1671A      2.194821  1672A      2.196101  1673A      2.196883  
    1674A      2.209844  1675A      2.210611  1676A      2.211815  
    1677A      2.213475  1678A      2.214252  1679A      2.214686  
    1680A      2.218962  1681A      2.221690  1682A      2.230257  
    1683A      2.231474  1684A      2.237927  1685A      2.239422  
    1686A      2.240315  1687A      2.242520  1688A      2.244499  
    1689A      2.251121  1690A      2.251727  1691A      2.256213  
    1692A      2.259866  1693A      2.267040  1694A      2.270132  
    1695A      2.271849  1696A      2.272136  1697A      2.274425  
    1698A      2.276039  1699A      2.277886  1700A      2.278322  
    1701A      2.279038  1702A      2.280066  1703A      2.281893  
    1704A      2.285348  1705A      2.288284  1706A      2.288952  
    1707A      2.289265  1708A      2.291372  1709A      2.291903  
    1710A      2.292684  1711A      2.294860  1712A      2.295253  
    1713A      2.311390  1714A      2.312659  1715A      2.317141  
    1716A      2.317635  1717A      2.331253  1718A      2.334625  
    1719A      2.336151  1720A      2.337686  1721A      2.338999  
    1722A      2.342742  1723A      2.345051  1724A      2.353383  
    1725A      2.365384  1726A      2.366532  1727A      2.369906  
    1728A      2.374680  1729A      2.377974  1730A      2.388606  
    1731A      2.390374  1732A      2.398305  1733A      2.399413  
    1734A      2.411504  1735A      2.411589  1736A      2.414967  
    1737A      2.415147  1738A      2.419328  1739A      2.419625  
    1740A      2.439017  1741A      2.439496  1742A      2.440746  
    1743A      2.449660  1744A      2.454457  1745A      2.455272  
    1746A      2.459190  1747A      2.460734  1748A      2.464486  
    1749A      2.479201  1750A      2.485713  1751A      2.485789  
    1752A      2.487342  1753A      2.489545  1754A      2.490187  
    1755A      2.491458  1756A      2.494589  1757A      2.496048  
    1758A      2.497151  1759A      2.498916  1760A      2.501984  
    1761A      2.502167  1762A      2.510905  1763A      2.511873  
    1764A      2.518267  1765A      2.520295  1766A      2.528796  
    1767A      2.532492  1768A      2.532530  1769A      2.533224  
    1770A      2.533762  1771A      2.537689  1772A      2.538142  
    1773A      2.540424  1774A      2.543164  1775A      2.548929  
    1776A      2.549103  1777A      2.560130  1778A      2.560384  
    1779A      2.560749  1780A      2.561249  1781A      2.564660  
    1782A      2.565088  1783A      2.579605  1784A      2.587306  
    1785A      2.588230  1786A      2.589306  1787A      2.590486  
    1788A      2.592050  1789A      2.594707  1790A      2.595226  
    1791A      2.596475  1792A      2.600879  1793A      2.604004  
    1794A      2.604258  1795A      2.611378  1796A      2.612374  
    1797A      2.615587  1798A      2.618359  1799A      2.619090  
    1800A      2.619867  1801A      2.620089  1802A      2.625079  
    1803A      2.626031  1804A      2.631592  1805A      2.632514  
    1806A      2.633918  1807A      2.637825  1808A      2.638093  
    1809A      2.638363  1810A      2.639693  1811A      2.642761  
    1812A      2.644194  1813A      2.650824  1814A      2.653720  
    1815A      2.668787  1816A      2.675775  1817A      2.677549  
    1818A      2.677945  1819A      2.678906  1820A      2.680398  
    1821A      2.680908  1822A      2.697418  1823A      2.698754  
    1824A      2.700131  1825A      2.705190  1826A      2.705346  
    1827A      2.707369  1828A      2.717518  1829A      2.720991  
    1830A      2.721479  1831A      2.726171  1832A      2.727100  
    1833A      2.744634  1834A      2.745599  1835A      2.747024  
    1836A      2.747991  1837A      2.748119  1838A      2.749975  
    1839A      2.755235  1840A      2.758048  1841A      2.759623  
    1842A      2.760536  1843A      2.762353  1844A      2.762950  
    1845A      2.763755  1846A      2.773402  1847A      2.773711  
    1848A      2.786483  1849A      2.787086  1850A      2.788429  
    1851A      2.788601  1852A      2.792842  1853A      2.806282  
    1854A      2.810986  1855A      2.811352  1856A      2.815303  
    1857A      2.817640  1858A      2.818915  1859A      2.821154  
    1860A      2.840333  1861A      2.841254  1862A      2.857920  
    1863A      2.866161  1864A      2.866336  1865A      2.876090  
    1866A      2.878249  1867A      2.882930  1868A      2.883056  
    1869A      2.910643  1870A      2.912981  1871A      2.913465  
    1872A      2.924032  1873A      2.929820  1874A      2.940033  
    1875A      2.940166  1876A      2.975724  1877A      2.976539  
    1878A      2.983402  1879A      2.986823  1880A      2.989082  
    1881A      2.993804  1882A      2.994537  1883A      2.996731  
    1884A      3.003844  1885A      3.004025  1886A      3.013285  
    1887A      3.019799  1888A      3.056833  1889A      3.060811  
    1890A      3.061321  1891A      3.061664  1892A      3.069581  
    1893A      3.074015  1894A      3.074729  1895A      3.077428  
    1896A      3.079673  1897A      3.081763  1898A      3.090003  
    1899A      3.091257  1900A      3.095393  1901A      3.095630  
    1902A      3.097644  1903A      3.098437  1904A      3.102038  
    1905A      3.110928  1906A      3.113119  1907A      3.121448  
    1908A      3.123499  1909A      3.123749  1910A      3.141456  
    1911A      3.142394  1912A      3.168829  1913A      3.200269  
    1914A      3.207171  1915A      3.208035  1916A      3.208205  
    1917A      3.209147  1918A      3.211405  1919A      3.215492  
    1920A      3.218918  1921A      3.222518  1922A      3.222948  
    1923A      3.240152  1924A      3.242322  1925A      3.243503  
    1926A      3.250099  1927A      3.307142  1928A      3.308101  
    1929A      3.315779  1930A      3.361190  1931A      3.375096  
    1932A      3.377412  1933A      3.379613  1934A      3.389861  
    1935A      3.394646  1936A      3.405541  1937A      3.409836  
    1938A      3.410901  1939A      3.416710  1940A      3.419487  
    1941A      3.426645  1942A      3.431828  1943A      3.438949  
    1944A      3.452197  1945A      3.454470  1946A      3.484566  
    1947A      3.520122  1948A      3.521758  1949A      3.528918  
    1950A      3.536935  1951A      3.541342  1952A      3.584759  
    1953A      3.586566  1954A      3.610653  1955A      3.613576  
    1956A      3.650993  1957A      3.692640  1958A      3.696264  
    1959A      3.697028  1960A      3.708137  1961A      3.724278  
    1962A      3.726102  1963A      3.789028  1964A      3.790088  
    1965A      3.818528  1966A      3.821427  1967A      3.851242  
    1968A      3.858892  1969A      3.882467  1970A      3.884833  
    1971A      3.894841  1972A      3.895963  1973A      3.904174  
    1974A      3.908834  1975A      3.916037  1976A      3.969921  
    1977A      3.972405  1978A      4.015436  1979A      4.172841  
    1980A      4.244738  1981A      4.336313  

    Final Occupation by Irrep:
              A 
    DOCC [   326 ]
    NA   [   326 ]
    NB   [   326 ]

  @DF-RHF Final Energy: -3953.64765291068943

   => Energetics <=

    Nuclear Repulsion Energy =          17722.3625098934535345
    One-Electron Energy =              -40656.0027146047577844
    Two-Electron Energy =               18979.9925518006166385
    Total Energy =                      -3953.6476529106876114

Computation Completed


Properties will be evaluated at   0.000000,   0.000000,   0.000000 [a0]

Properties computed using the SCF density matrix


 Multipole Moments:

 ------------------------------------------------------------------------------------
     Multipole            Electronic (a.u.)      Nuclear  (a.u.)        Total (a.u.)
 ------------------------------------------------------------------------------------

 L = 1.  Multiply by 2.5417464519 to convert [e a0] to [Debye]
 Dipole X            :         -0.0025458            0.0004804           -0.0020654
 Dipole Y            :         -6.8807343            8.7122315            1.8314972
 Dipole Z            :         29.9650510          -40.6262058          -10.6611549
 Magnitude           :                                                   10.8173291

 ------------------------------------------------------------------------------------

*** tstop() called on n2cn0571 at Sat Jan 27 02:33:25 2024
Module time:
	user time   =   26280.70 seconds =     438.01 minutes
	system time =    2341.49 seconds =      39.02 minutes
	total time  =       8332 seconds =     138.87 minutes
Total time:
	user time   =   26280.70 seconds =     438.01 minutes
	system time =    2341.49 seconds =      39.02 minutes
	total time  =       8332 seconds =     138.87 minutes

  //>>>>>>>>>>>>>>>>>>>>>>>>>>>>>>>>>>>//
  //            Monomer A HF           //
  //<<<<<<<<<<<<<<<<<<<<<<<<<<<<<<<<<<<//

   => Libint2 <=

    Primary   basis highest AM E, G, H:  5, 4, 3
    Auxiliary basis highest AM E, G, H:  6, 5, 4
    Onebody   basis highest AM E, G, H:  6, 5, 4
    Solid Harmonics ordering:            gaussian

*** tstart() called on n2cn0571
*** at Sat Jan 27 02:33:25 2024

   => Loading Basis Set <=

    Name: JUN-CC-PVDZ
    Role: ORBITAL
    Keyword: BASIS
    atoms 1-2, 4-5, 10, 17-34, 41-53, 56-70, 73-89, 92-104, 109-119, 122-130 entry C          line   164 file /opt/software/pc2/EB-SW/software/PSI4/1.9-foss-2022a/share/psi4/basis/jun-cc-pvdz.gbs 
    atoms 3, 6                                                               entry N          line   198 file /opt/software/pc2/EB-SW/software/PSI4/1.9-foss-2022a/share/psi4/basis/jun-cc-pvdz.gbs 
    atoms 7-9, 11-16, 35-40, 54-55, 71-72, 90-91, 105-108, 120-121, 131-136  entry H          line    36 file /opt/software/pc2/EB-SW/software/PSI4/1.9-foss-2022a/share/psi4/basis/jun-cc-pvdz.gbs 


         ---------------------------------------------------------
                                   SCF
               by Justin Turney, Rob Parrish, Andy Simmonett
                          and Daniel G. A. Smith
                              RHF Reference
                       16 Threads,  61035 MiB Core
         ---------------------------------------------------------

  ==> Geometry <==

    Molecular point group: c1
    Full point group: C1

    Geometry (in Angstrom), charge = 1, multiplicity = 1:

       Center              X                  Y                   Z               Mass       
    ------------   -----------------  -----------------  -----------------  -----------------
         C            0.680062820275     1.308604348936    -7.682238848697    12.000000000000
         C           -0.680508179725     1.310632348936    -7.681854848697    12.000000000000
         N           -1.085639179725     1.311630348936    -6.363530848697    14.003074004430
         C            0.000103820275     1.314906348936    -5.582129848697    12.000000000000
[...]
    1579A      2.163012  1580A      2.165583  1581A      2.171387  
    1582A      2.171806  1583A      2.179641  1584A      2.180994  
    1585A      2.181409  1586A      2.182445  1587A      2.187905  
    1588A      2.188552  1589A      2.189443  1590A      2.190899  
    1591A      2.191653  1592A      2.193484  1593A      2.195244  
    1594A      2.196205  1595A      2.198008  1596A      2.198460  
    1597A      2.200495  1598A      2.200769  1599A      2.201018  
    1600A      2.201339  1601A      2.203697  1602A      2.204664  
    1603A      2.205497  1604A      2.208894  1605A      2.209608  
    1606A      2.213849  1607A      2.214374  1608A      2.220158  
    1609A      2.220620  1610A      2.222406  1611A      2.222831  
    1612A      2.224497  1613A      2.225008  1614A      2.225069  
    1615A      2.228877  1616A      2.232094  1617A      2.232389  
    1618A      2.233636  1619A      2.238836  1620A      2.239018  
    1621A      2.239678  1622A      2.241310  1623A      2.247127  
    1624A      2.248096  1625A      2.248239  1626A      2.249225  
    1627A      2.256792  1628A      2.260897  1629A      2.261592  
    1630A      2.263733  1631A      2.265056  1632A      2.266662  
    1633A      2.269757  1634A      2.275190  1635A      2.276091  
    1636A      2.282864  1637A      2.283983  1638A      2.284987  
    1639A      2.290372  1640A      2.291056  1641A      2.296425  
    1642A      2.296828  1643A      2.303800  1644A      2.304152  
    1645A      2.306956  1646A      2.309098  1647A      2.315881  
    1648A      2.324611  1649A      2.324943  1650A      2.325263  
    1651A      2.327182  1652A      2.329462  1653A      2.329817  
    1654A      2.330594  1655A      2.331117  1656A      2.333135  
    1657A      2.334455  1658A      2.335291  1659A      2.339912  
    1660A      2.341372  1661A      2.342183  1662A      2.342385  
    1663A      2.344807  1664A      2.345814  1665A      2.346334  
    1666A      2.349060  1667A      2.349427  1668A      2.353347  
    1669A      2.356071  1670A      2.368947  1671A      2.372973  
    1672A      2.373290  1673A      2.383821  1674A      2.388057  
    1675A      2.389875  1676A      2.391637  1677A      2.393616  
    1678A      2.396976  1679A      2.397628  1680A      2.418372  
    1681A      2.419604  1682A      2.423599  1683A      2.427621  
    1684A      2.432011  1685A      2.441784  1686A      2.443415  
    1687A      2.451978  1688A      2.453081  1689A      2.453528  
    1690A      2.457085  1691A      2.463479  1692A      2.464381  
    1693A      2.464910  1694A      2.467828  1695A      2.468131  
    1696A      2.471927  1697A      2.472183  1698A      2.475277  
    1699A      2.481724  1700A      2.491190  1701A      2.491639  
    1702A      2.494758  1703A      2.501877  1704A      2.506695  
    1705A      2.507169  1706A      2.511527  1707A      2.516312  
    1708A      2.522197  1709A      2.539182  1710A      2.539220  
    1711A      2.540207  1712A      2.542248  1713A      2.542851  
    1714A      2.545407  1715A      2.547722  1716A      2.548495  
    1717A      2.549265  1718A      2.551238  1719A      2.556576  
    1720A      2.556714  1721A      2.564238  1722A      2.571143  
    1723A      2.571700  1724A      2.579983  1725A      2.583375  
    1726A      2.583864  1727A      2.584715  1728A      2.585248  
    1729A      2.586253  1730A      2.588690  1731A      2.588932  
    1732A      2.593214  1733A      2.593536  1734A      2.601354  
    1735A      2.601496  1736A      2.612842  1737A      2.613055  
    1738A      2.613408  1739A      2.613818  1740A      2.617385  
    1741A      2.617802  1742A      2.632886  1743A      2.639566  
    1744A      2.640739  1745A      2.641669  1746A      2.643669  
    1747A      2.645446  1748A      2.647318  1749A      2.648672  
    1750A      2.649235  1751A      2.652541  1752A      2.653526  
    1753A      2.655955  1754A      2.656094  1755A      2.657214  
    1756A      2.665312  1757A      2.666091  1758A      2.666199  
    1759A      2.667577  1760A      2.670617  1761A      2.670667  
    1762A      2.673626  1763A      2.677055  1764A      2.677709  
    1765A      2.680384  1766A      2.684802  1767A      2.685810  
    1768A      2.687354  1769A      2.691251  1770A      2.691400  
    1771A      2.691608  1772A      2.692523  1773A      2.696096  
    1774A      2.697314  1775A      2.704370  1776A      2.720836  
    1777A      2.730736  1778A      2.730991  1779A      2.731102  
    1780A      2.731504  1781A      2.731800  1782A      2.743633  
    1783A      2.752195  1784A      2.753004  1785A      2.760406  
    1786A      2.760950  1787A      2.770685  1788A      2.772640  
    1789A      2.776122  1790A      2.780108  1791A      2.780642  
    1792A      2.799186  1793A      2.799885  1794A      2.801753  
    1795A      2.802187  1796A      2.802222  1797A      2.808664  
    1798A      2.812205  1799A      2.815168  1800A      2.815501  
    1801A      2.815861  1802A      2.816577  1803A      2.817829  
    1804A      2.828295  1805A      2.828451  1806A      2.840107  
    1807A      2.841008  1808A      2.841221  1809A      2.842241  
    1810A      2.844240  1811A      2.846027  1812A      2.861006  
    1813A      2.865466  1814A      2.865530  1815A      2.870274  
    1816A      2.871732  1817A      2.874781  1818A      2.884367  
    1819A      2.895920  1820A      2.896659  1821A      2.896824  
    1822A      2.913038  1823A      2.917021  1824A      2.917866  
    1825A      2.918272  1826A      2.927371  1827A      2.927540  
    1828A      2.929961  1829A      2.935050  1830A      2.935108  
    1831A      2.956040  1832A      2.963229  1833A      2.965026  
    1834A      2.965409  1835A      2.976146  1836A      2.978577  
    1837A      2.992385  1838A      2.992922  1839A      3.008616  
    1840A      3.021502  1841A      3.029339  1842A      3.030158  
    1843A      3.035874  1844A      3.038877  1845A      3.046931  
    1846A      3.047484  1847A      3.047668  1848A      3.048683  
    1849A      3.057544  1850A      3.057763  1851A      3.063559  
    1852A      3.072884  1853A      3.108731  1854A      3.112997  
    1855A      3.113250  1856A      3.122583  1857A      3.127452  
    1858A      3.128083  1859A      3.132651  1860A      3.134483  
    1861A      3.142124  1862A      3.143160  1863A      3.146148  
    1864A      3.148942  1865A      3.149193  1866A      3.149618  
    1867A      3.150195  1868A      3.153653  1869A      3.162229  
    1870A      3.167836  1871A      3.173183  1872A      3.175170  
    1873A      3.175344  1874A      3.193233  1875A      3.194114  
    1876A      3.220164  1877A      3.252914  1878A      3.259558  
    1879A      3.261086  1880A      3.261604  1881A      3.262126  
    1882A      3.264338  1883A      3.268237  1884A      3.271328  
    1885A      3.274837  1886A      3.275497  1887A      3.288266  
    1888A      3.293343  1889A      3.295587  1890A      3.297109  
    1891A      3.302978  1892A      3.313852  1893A      3.326376  
    1894A      3.361457  1895A      3.362341  1896A      3.370214  
    1897A      3.414348  1898A      3.416396  1899A      3.430096  
    1900A      3.432393  1901A      3.437033  1902A      3.445571  
    1903A      3.450376  1904A      3.461253  1905A      3.464561  
    1906A      3.465635  1907A      3.471332  1908A      3.474249  
    1909A      3.481357  1910A      3.487176  1911A      3.493959  
    1912A      3.509137  1913A      3.526220  1914A      3.539845  
    1915A      3.574212  1916A      3.574973  1917A      3.576169  
    1918A      3.583355  1919A      3.590054  1920A      3.639228  
    1921A      3.641153  1922A      3.646199  1923A      3.665011  
    1924A      3.666952  1925A      3.705078  1926A      3.747759  
    1927A      3.749396  1928A      3.750575  1929A      3.758677  
    1930A      3.763492  1931A      3.778691  1932A      3.779797  
    1933A      3.817353  1934A      3.841982  1935A      3.843444  
    1936A      3.869345  1937A      3.871543  1938A      3.874637  
    1939A      3.904839  1940A      3.913027  1941A      3.937900  
    1942A      3.940356  1943A      3.948299  1944A      3.949187  
    1945A      3.958517  1946A      3.964511  1947A      3.965768  
    1948A      3.971389  1949A      4.024671  1950A      4.027454  
    1951A      4.071200  1952A      4.208525  1953A      4.212210  
    1954A      4.229936  1955A      4.302237  1956A      4.354628  
    1957A      4.363847  1958A      4.393580  1959A      4.490489  
    1960A      4.742772  1961A      4.781398  1962A      4.833091  
    1963A      4.848471  1964A      4.938196  1965A      5.053958  
    1966A      5.059306  1967A      5.068471  1968A      5.112898  
    1969A      5.141716  1970A      5.394338  1971A      5.424096  
    1972A      5.734754  1973A      5.760463  1974A      6.068835  
    1975A     18.199595  1976A     18.457356  1977A     18.474393  
    1978A     18.561930  1979A     18.832957  1980A     25.340480  
    1981A     25.376512  

    Final Occupation by Irrep:
              A 
    DOCC [   300 ]
    NA   [   300 ]
    NB   [   300 ]

  @DF-RHF Final Energy: -3650.33804816611928

   => Energetics <=

    Nuclear Repulsion Energy =          15611.4211649754306563
    One-Electron Energy =              -36072.0907040568490629
    Two-Electron Energy =               16810.3314909153014014
    Total Energy =                      -3650.3380481661188242

Computation Completed


Properties will be evaluated at   0.000000,   0.000000,   0.000000 [a0]

Properties computed using the SCF density matrix


 Multipole Moments:

 ------------------------------------------------------------------------------------
     Multipole            Electronic (a.u.)      Nuclear  (a.u.)        Total (a.u.)
 ------------------------------------------------------------------------------------

 L = 1.  Multiply by 2.5417464519 to convert [e a0] to [Debye]
 Dipole X            :         -0.0009121            0.0002112           -0.0007009
 Dipole Y            :        123.2137720         -123.2131634            0.0006086
 Dipole Z            :       -605.1136840          605.1203250            0.0066410
 Magnitude           :                                                    0.0067056

 ------------------------------------------------------------------------------------

*** tstop() called on n2cn0571 at Sat Jan 27 04:40:56 2024
Module time:
	user time   =   19352.14 seconds =     322.54 minutes
	system time =    1667.21 seconds =      27.79 minutes
	total time  =       5430 seconds =      90.50 minutes
Total time:
	user time   =   51232.53 seconds =     853.88 minutes
	system time =    4553.44 seconds =      75.89 minutes
	total time  =      15983 seconds =     266.38 minutes
  Constructing Basis Sets for SAPT...

   => Loading Basis Set <=

    Name: (JUN-CC-PVDZ AUX)
    Role: RIFIT
    Keyword: DF_BASIS_SAPT
    atoms 1-2, 4-5, 10, 17-34, 41-53, 56-70, 73-89, 92-104, 109-119, 122-130 entry C          line   100 file /opt/software/pc2/EB-SW/software/PSI4/1.9-foss-2022a/share/psi4/basis/jun-cc-pvdz-ri.gbs 
    atoms 3, 6                                                               entry N          line   144 file /opt/software/pc2/EB-SW/software/PSI4/1.9-foss-2022a/share/psi4/basis/jun-cc-pvdz-ri.gbs 
    atoms 7-9, 11-16, 35-40, 54-55, 71-72, 90-91, 105-108, 120-121, 131-136  entry H          line    30 file /opt/software/pc2/EB-SW/software/PSI4/1.9-foss-2022a/share/psi4/basis/jun-cc-pvdz-ri.gbs 

   => Loading Basis Set <=

    Name: (JUN-CC-PVDZ AUX)
    Role: JKFIT
    Keyword: DF_BASIS_ELST
    atoms 1-2, 4-5, 10, 17-34, 41-53, 56-70, 73-89, 92-104, 109-119, 122-130 entry C          line   146 file /opt/software/pc2/EB-SW/software/PSI4/1.9-foss-2022a/share/psi4/basis/jun-cc-pvdz-jkfit.gbs 
    atoms 3, 6                                                               entry N          line   202 file /opt/software/pc2/EB-SW/software/PSI4/1.9-foss-2022a/share/psi4/basis/jun-cc-pvdz-jkfit.gbs 
    atoms 7-9, 11-16, 35-40, 54-55, 71-72, 90-91, 105-108, 120-121, 131-136  entry H          line    70 file /opt/software/pc2/EB-SW/software/PSI4/1.9-foss-2022a/share/psi4/basis/jun-cc-pvdz-jkfit.gbs 


  //>>>>>>>>>>>>>>>>>>>>>>>>>>>>>>>>>>>//
  //               SSAPT0              //
  //<<<<<<<<<<<<<<<<<<<<<<<<<<<<<<<<<<<//


*** tstart() called on n2cn0571
*** at Sat Jan 27 04:40:57 2024

        SAPT0  
    Ed Hohenstein
     6 June 2009

      Orbital Information
  --------------------------
    NSO        =      2019
    NMO        =      1981
    NRI        =      7157
    NRI (Elst) =      8896
    NOCC A     =        26
    NOCC B     =       300
    FOCC A     =         7
    FOCC B     =        96
    NVIR A     =      1955
    NVIR B     =      1681

    Elst10,r            =    -0.008581910949 [Eh]
    Exch10              =     0.000000566370 [Eh]
    Exch10 (S^2)        =     0.000000566370 [Eh]

    Iter     Energy [mEh]          dE [mEh]         Residual      Time [s]
       1      -0.01607357       0.016073567       1.196698439           466
       2      -0.01519408      -0.000879484       0.307084978          1038
       3      -0.01667109       0.001477003       0.083442182          1802
       4      -0.01675985       0.000088763       0.037312894          2649
       5      -0.01669355      -0.000066301       0.012004074          3265
       6      -0.01669293      -0.000000622       0.003898707          3823
       7      -0.01669805       0.000005123       0.001250814          4362
       8      -0.01669881       0.000000766       0.000360437          4739
       9      -0.01669858      -0.000000231       0.000124654          5057
      10      -0.01669848      -0.000000105       0.000033790          5358
      11      -0.01669849       0.000000008       0.000009275          5715
      12      -0.01669849       0.000000007       0.000002843          6023
      13      -0.01669849       0.000000001       0.000000949          6346

    CHF Iterations converged


    Iter     Energy [mEh]          dE [mEh]         Residual      Time [s]
       1      -5.57220343       5.572203432      40.616312936           544
       2      -3.60149197      -1.970711457       4.839982842          1047
       3      -3.58411533      -0.017376641       1.650167622          1549
       4      -3.65124931       0.067133976       0.546725259          2051
       5      -3.66050626       0.009256953       0.216537149          2477
       6      -3.65894463      -0.001561637       0.145947418          3049
       7      -3.65678265      -0.002161981       0.056282899          3522
       8      -3.65693515       0.000152507       0.023280097          4110
       9      -3.65726488       0.000329725       0.008240861          4593
      10      -3.65724951      -0.000015368       0.005136403          5185
      11      -3.65721155      -0.000037956       0.002488913          5825
      12      -3.65720404      -0.000007516       0.001629452          6484
      13      -3.65721467       0.000010633       0.001022236          7189
      14      -3.65721969       0.000005015       0.000662784          7899
      15      -3.65721705      -0.000002633       0.000449566          8491
      16      -3.65721356      -0.000003496       0.000184543          9266
      17      -3.65721500       0.000001440       0.000093227         10025
      18      -3.65721562       0.000000620       0.000049792         10973
      19      -3.65721540      -0.000000212       0.000036282         11853
      20      -3.65721518      -0.000000225       0.000014878         12641
      21      -3.65721522       0.000000042       0.000006980         13820
      22      -3.65721526       0.000000040       0.000002709         14730
      23      -3.65721526       0.000000000       0.000000957         15547

    CHF Iterations converged

    Ind20,r (A<-B)      =    -0.000016698494 [Eh]
    Ind20,r (B<-A)      =    -0.003657215262 [Eh]
    Ind20,r             =    -0.003673913756 [Eh]
    Exch-Ind20,r (A<-B) =     0.000000063967 [Eh]
    Exch-Ind20,r (B<-A) =     0.000000981250 [Eh]
    Exch-Ind20,r        =     0.000001045217 [Eh]
    Disp20              =    -0.001856554099 [Eh]
    Disp20 (SS)         =    -0.000928277050 [Eh]
    Disp20 (OS)         =    -0.000928277050 [Eh]
    Exch-Disp20         =     0.000000358757 [Eh]
    Exch-Disp20 (SS)    =     0.000000266229 [Eh]
    Exch-Disp20 (OS)    =     0.000000092529 [Eh]

    SAPT Results 
  --------------------------------------------------------------------------------------------------------
    Electrostatics                 -8.58191095 [mEh]      -5.38523042 [kcal/mol]     -22.53180409 [kJ/mol]
      Elst10,r                     -8.58191095 [mEh]      -5.38523042 [kcal/mol]     -22.53180409 [kJ/mol]

    Exchange                        0.00056637 [mEh]       0.00035540 [kcal/mol]       0.00148700 [kJ/mol]
      Exch10                        0.00056637 [mEh]       0.00035540 [kcal/mol]       0.00148700 [kJ/mol]
      Exch10(S^2)                   0.00056637 [mEh]       0.00035540 [kcal/mol]       0.00148700 [kJ/mol]

    Induction                      -3.74992281 [mEh]      -2.35311209 [kcal/mol]      -9.84542098 [kJ/mol]
      Ind20,r                      -3.67391376 [mEh]      -2.30541569 [kcal/mol]      -9.64585924 [kJ/mol]
      Exch-Ind20,r                  0.00104522 [mEh]       0.00065588 [kcal/mol]       0.00274422 [kJ/mol]
      delta HF,r (2)               -0.07705427 [mEh]      -0.04835228 [kcal/mol]      -0.20230596 [kJ/mol]

    Dispersion                     -1.85619534 [mEh]      -1.16478016 [kcal/mol]      -4.87344020 [kJ/mol]
      Disp20                       -1.85655410 [mEh]      -1.16500529 [kcal/mol]      -4.87438212 [kJ/mol]
      Exch-Disp20                   0.00035876 [mEh]       0.00022512 [kcal/mol]       0.00094192 [kJ/mol]
      Disp20 (SS)                  -0.92827705 [mEh]      -0.58250264 [kcal/mol]      -2.43719106 [kJ/mol]
      Disp20 (OS)                  -0.92827705 [mEh]      -0.58250264 [kcal/mol]      -2.43719106 [kJ/mol]
      Exch-Disp20 (SS)              0.00026623 [mEh]       0.00016706 [kcal/mol]       0.00069898 [kJ/mol]
      Exch-Disp20 (OS)              0.00009253 [mEh]       0.00005806 [kcal/mol]       0.00024293 [kJ/mol]

  Total HF                        -12.33126739 [mEh]      -7.73798711 [kcal/mol]     -32.37573807 [kJ/mol]
  Total SAPT0                     -14.18746273 [mEh]      -8.90276727 [kcal/mol]     -37.24917827 [kJ/mol]

  Special recipe for scaled SAPT0 (see Manual):
    Electrostatics sSAPT0          -8.58191095 [mEh]      -5.38523042 [kcal/mol]     -22.53180409 [kJ/mol]
    Exchange sSAPT0                 0.00056637 [mEh]       0.00035540 [kcal/mol]       0.00148700 [kJ/mol]
    Induction sSAPT0               -3.74992281 [mEh]      -2.35311209 [kcal/mol]      -9.84542098 [kJ/mol]
    Dispersion sSAPT0              -1.85619534 [mEh]      -1.16478016 [kcal/mol]      -4.87344020 [kJ/mol]
  Total sSAPT0                    -14.18746273 [mEh]      -8.90276727 [kcal/mol]     -37.24917827 [kJ/mol]
  --------------------------------------------------------------------------------------------------------

*** tstop() called on n2cn0571 at Sun Jan 28 15:29:44 2024
Module time:
	user time   =   67366.03 seconds =    1122.77 minutes
	system time =    4545.36 seconds =      75.76 minutes
	total time  =     125327 seconds =    2088.78 minutes
Total time:
	user time   =  118599.98 seconds =    1976.67 minutes
	system time =    9098.80 seconds =     151.65 minutes
	total time  =     141311 seconds =    2355.18 minutes

    Psi4 stopped on: Sunday, 28 January 2024 03:29PM
    Psi4 wall time for execution: 1 day, 15:15:12.96

*** Psi4 exiting successfully. Buy a developer a beer!
