created by fftool

8237 atoms
9216 bonds
11373 angles
18657 dihedrals
1950 impropers
18 atom types
16 bond types
12 angle types
17 dihedral types
1 improper types
0.000000 34.080000 xlo xhi
0.000000 34.433000 ylo yhi
0.000000 200.000000 zlo zhi

Masses

   1   12.011  # CB
   2   11.611  # CG DC
   3   10.411  # B DC
   4   18.598  # FB DC
   5   13.607  # NA DC
   6   11.611  # CR DC
   7   11.611  # CW DC
   8   11.611  # C1 DC
   9    1.008  # HCR
  10    1.008  # HCW
  11    1.008  # H1
  12    0.400  # CG DP
  13    0.400  # B DP
  14    0.400  # FB DP
  15    0.400  # NA DP
  16    0.400  # CR DP
  17    0.400  # CW DP
  18    0.400  # C1 DP

Bond Coeffs

   1   350.000000     1.420000  # C-C
   2   386.591778     1.394000  # B-F
   3   477.055449     1.315000  # CR-NA
   4   427.103250     1.378000  # CW-NA
   5   520.076482     1.341000  # CW-CW
   6   336.998088     1.466000  # NA-CT
   7   339.985660     1.080000  # CR-HA
   8   339.985660     1.080000  # CW-HA
   9   339.985660     1.090000  # HC-CT
  10   500.000000     0.000000  # CG DC-DP
  11   500.000000     0.000000  # B DC-DP
  12   500.000000     0.000000  # FB DC-DP
  13   500.000000     0.000000  # NA DC-DP
  14   500.000000     0.000000  # CR DC-DP
  15   500.000000     0.000000  # CW DC-DP
  16   500.000000     0.000000  # C1 DC-DP

Angle Coeffs

   1    cosine/squared 66.665   120.000000  # C-C-C
   2    harmonic       80.007170   109.500000  # F-B-F
   3    harmonic       70.004780   126.400000  # CR-NA-CT
   4    harmonic       70.004780   108.000000  # CW-NA-CR
   5    harmonic       70.004780   125.600000  # CW-NA-CT
   6    harmonic       70.004780   109.800000  # NA-CR-NA
   7    harmonic       35.002390   125.100000  # NA-CR-HA
   8    harmonic       70.004780   107.100000  # NA-CW-CW
   9    harmonic       35.002390   122.000000  # NA-CW-HA
  10    harmonic       35.002390   130.900000  # CW-CW-HA
  11    harmonic       37.500000   110.700000  # NA-CT-HC
  12    harmonic       32.994742   107.800000  # HC-CT-HC

Dihedral Coeffs

   1    harmonic      3.125000    -1            2                      # C-C-C-C
   2    opls          0.000000     4.651052     0.000000     0.000000  # CT-NA-CR-NA
   3    opls          0.000000     4.651052     0.000000     0.000000  # CW-NA-CR-NA
   4    opls          0.000000     4.651052     0.000000     0.000000  # CT-NA-CR-HA
   5    opls          0.000000     4.651052     0.000000     0.000000  # CW-NA-CR-HA
   6    opls          0.000000     3.000000     0.000000     0.000000  # CR-NA-CW-CW
   7    opls          0.000000     3.000000     0.000000     0.000000  # CT-NA-CW-CW
   8    opls          0.000000     3.000000     0.000000     0.000000  # CR-NA-CW-HA
   9    opls          0.000000     3.000000     0.000000     0.000000  # CT-NA-CW-HA
  10    opls          0.000000    10.750478     0.000000     0.000000  # NA-CW-CW-HA
  11    opls          0.000000    10.750478     0.000000     0.000000  # HA-CW-CW-HA
  12    opls          0.000000    10.750478     0.000000     0.000000  # NA-CW-CW-NA
  13    opls          0.000000     0.000000     0.000000     0.000000  # CR-NA-CT-HC
  14    opls          0.000000     0.000000     0.124044     0.000000  # CW-NA-CT-HC
  15    opls          0.000000     2.000000     0.000000     0.000000  # CR-CW-NA-CT
  16    opls          0.000000     2.200000     0.000000     0.000000  # NA-NA-CR-HA
  17    opls          0.000000     2.200000     0.000000     0.000000  # NA-CW-CW-HA

Improper Coeffs

   1    40.0         0.0                                 # C-C-C-C

Atoms

      1       1    1   0.000000  7.100000e-01  0.000000e+00  0.000000e+00  # CB graphene
      2       1    1   0.000000  2.130000e+00  0.000000e+00  0.000000e+00  # CB graphene
      3       1    1   0.000000  0.000000e+00  1.230000e+00  0.000000e+00  # CB graphene
      4       1    1   0.000000  2.840000e+00  1.230000e+00  0.000000e+00  # CB graphene
      5       1    1   0.000000  4.970000e+00  0.000000e+00  0.000000e+00  # CB graphene
      6       1    1   0.000000  6.390000e+00  0.000000e+00  0.000000e+00  # CB graphene
      7       1    1   0.000000  4.260000e+00  1.230000e+00  0.000000e+00  # CB graphene
      8       1    1   0.000000  7.100000e+00  1.230000e+00  0.000000e+00  # CB graphene
      9       1    1   0.000000  9.230000e+00  0.000000e+00  0.000000e+00  # CB graphene
     10       1    1   0.000000  1.065000e+01  0.000000e+00  0.000000e+00  # CB graphene
     11       1    1   0.000000  8.520000e+00  1.230000e+00  0.000000e+00  # CB graphene
     12       1    1   0.000000  1.136000e+01  1.230000e+00  0.000000e+00  # CB graphene
     13       1    1   0.000000  1.349000e+01  0.000000e+00  0.000000e+00  # CB graphene
     14       1    1   0.000000  1.491000e+01  0.000000e+00  0.000000e+00  # CB graphene
     15       1    1   0.000000  1.278000e+01  1.230000e+00  0.000000e+00  # CB graphene
     16       1    1   0.000000  1.562000e+01  1.230000e+00  0.000000e+00  # CB graphene
     17       1    1   0.000000  1.775000e+01  0.000000e+00  0.000000e+00  # CB graphene
     18       1    1   0.000000  1.917000e+01  0.000000e+00  0.000000e+00  # CB graphene
     19       1    1   0.000000  1.704000e+01  1.230000e+00  0.000000e+00  # CB graphene
     20       1    1   0.000000  1.988000e+01  1.230000e+00  0.000000e+00  # CB graphene
     21       1    1   0.000000  2.201000e+01  0.000000e+00  0.000000e+00  # CB graphene
     22       1    1   0.000000  2.343000e+01  0.000000e+00  0.000000e+00  # CB graphene
     23       1    1   0.000000  2.130000e+01  1.230000e+00  0.000000e+00  # CB graphene
     24       1    1   0.000000  2.414000e+01  1.230000e+00  0.000000e+00  # CB graphene
     25       1    1   0.000000  2.627000e+01  0.000000e+00  0.000000e+00  # CB graphene
     26       1    1   0.000000  2.769000e+01  0.000000e+00  0.000000e+00  # CB graphene
     27       1    1   0.000000  2.556000e+01  1.230000e+00  0.000000e+00  # CB graphene
     28       1    1   0.000000  2.840000e+01  1.230000e+00  0.000000e+00  # CB graphene
     29       1    1   0.000000  3.053000e+01  0.000000e+00  0.000000e+00  # CB graphene
     30       1    1   0.000000  3.195000e+01  0.000000e+00  0.000000e+00  # CB graphene
     31       1    1   0.000000  2.982000e+01  1.230000e+00  0.000000e+00  # CB graphene
     32       1    1   0.000000  3.266000e+01  1.230000e+00  0.000000e+00  # CB graphene
     33       1    1   0.000000  7.100000e-01  2.460000e+00  0.000000e+00  # CB graphene
     34       1    1   0.000000  2.130000e+00  2.460000e+00  0.000000e+00  # CB graphene
     35       1    1   0.000000  0.000000e+00  3.689000e+00  0.000000e+00  # CB graphene
     36       1    1   0.000000  2.840000e+00  3.689000e+00  0.000000e+00  # CB graphene
     37       1    1   0.000000  4.970000e+00  2.460000e+00  0.000000e+00  # CB graphene
     38       1    1   0.000000  6.390000e+00  2.460000e+00  0.000000e+00  # CB graphene
     39       1    1   0.000000  4.260000e+00  3.689000e+00  0.000000e+00  # CB graphene
     40       1    1   0.000000  7.100000e+00  3.689000e+00  0.000000e+00  # CB graphene
     41       1    1   0.000000  9.230000e+00  2.460000e+00  0.000000e+00  # CB graphene
     42       1    1   0.000000  1.065000e+01  2.460000e+00  0.000000e+00  # CB graphene
     43       1    1   0.000000  8.520000e+00  3.689000e+00  0.000000e+00  # CB graphene
     44       1    1   0.000000  1.136000e+01  3.689000e+00  0.000000e+00  # CB graphene
     45       1    1   0.000000  1.349000e+01  2.460000e+00  0.000000e+00  # CB graphene
     46       1    1   0.000000  1.491000e+01  2.460000e+00  0.000000e+00  # CB graphene
     47       1    1   0.000000  1.278000e+01  3.689000e+00  0.000000e+00  # CB graphene
     48       1    1   0.000000  1.562000e+01  3.689000e+00  0.000000e+00  # CB graphene
     49       1    1   0.000000  1.775000e+01  2.460000e+00  0.000000e+00  # CB graphene
     50       1    1   0.000000  1.917000e+01  2.460000e+00  0.000000e+00  # CB graphene
     51       1    1   0.000000  1.704000e+01  3.689000e+00  0.000000e+00  # CB graphene
     52       1    1   0.000000  1.988000e+01  3.689000e+00  0.000000e+00  # CB graphene
     53       1    1   0.000000  2.201000e+01  2.460000e+00  0.000000e+00  # CB graphene
     54       1    1   0.000000  2.343000e+01  2.460000e+00  0.000000e+00  # CB graphene
     55       1    1   0.000000  2.130000e+01  3.689000e+00  0.000000e+00  # CB graphene
     56       1    1   0.000000  2.414000e+01  3.689000e+00  0.000000e+00  # CB graphene
     57       1    1   0.000000  2.627000e+01  2.460000e+00  0.000000e+00  # CB graphene
     58       1    1   0.000000  2.769000e+01  2.460000e+00  0.000000e+00  # CB graphene
     59       1    1   0.000000  2.556000e+01  3.689000e+00  0.000000e+00  # CB graphene
     60       1    1   0.000000  2.840000e+01  3.689000e+00  0.000000e+00  # CB graphene
     61       1    1   0.000000  3.053000e+01  2.460000e+00  0.000000e+00  # CB graphene
     62       1    1   0.000000  3.195000e+01  2.460000e+00  0.000000e+00  # CB graphene
     63       1    1   0.000000  2.982000e+01  3.689000e+00  0.000000e+00  # CB graphene
     64       1    1   0.000000  3.266000e+01  3.689000e+00  0.000000e+00  # CB graphene
     65       1    1   0.000000  7.100000e-01  4.919000e+00  0.000000e+00  # CB graphene
     66       1    1   0.000000  2.130000e+00  4.919000e+00  0.000000e+00  # CB graphene
     67       1    1   0.000000  0.000000e+00  6.149000e+00  0.000000e+00  # CB graphene
     68       1    1   0.000000  2.840000e+00  6.149000e+00  0.000000e+00  # CB graphene
     69       1    1   0.000000  4.970000e+00  4.919000e+00  0.000000e+00  # CB graphene
     70       1    1   0.000000  6.390000e+00  4.919000e+00  0.000000e+00  # CB graphene
     71       1    1   0.000000  4.260000e+00  6.149000e+00  0.000000e+00  # CB graphene
     72       1    1   0.000000  7.100000e+00  6.149000e+00  0.000000e+00  # CB graphene
     73       1    1   0.000000  9.230000e+00  4.919000e+00  0.000000e+00  # CB graphene
     74       1    1   0.000000  1.065000e+01  4.919000e+00  0.000000e+00  # CB graphene
     75       1    1   0.000000  8.520000e+00  6.149000e+00  0.000000e+00  # CB graphene
     76       1    1   0.000000  1.136000e+01  6.149000e+00  0.000000e+00  # CB graphene
     77       1    1   0.000000  1.349000e+01  4.919000e+00  0.000000e+00  # CB graphene
     78       1    1   0.000000  1.491000e+01  4.919000e+00  0.000000e+00  # CB graphene
     79       1    1   0.000000  1.278000e+01  6.149000e+00  0.000000e+00  # CB graphene
     80       1    1   0.000000  1.562000e+01  6.149000e+00  0.000000e+00  # CB graphene
     81       1    1   0.000000  1.775000e+01  4.919000e+00  0.000000e+00  # CB graphene
     82       1    1   0.000000  1.917000e+01  4.919000e+00  0.000000e+00  # CB graphene
     83       1    1   0.000000  1.704000e+01  6.149000e+00  0.000000e+00  # CB graphene
     84       1    1   0.000000  1.988000e+01  6.149000e+00  0.000000e+00  # CB graphene
     85       1    1   0.000000  2.201000e+01  4.919000e+00  0.000000e+00  # CB graphene
     86       1    1   0.000000  2.343000e+01  4.919000e+00  0.000000e+00  # CB graphene
     87       1    1   0.000000  2.130000e+01  6.149000e+00  0.000000e+00  # CB graphene
     88       1    1   0.000000  2.414000e+01  6.149000e+00  0.000000e+00  # CB graphene
     89       1    1   0.000000  2.627000e+01  4.919000e+00  0.000000e+00  # CB graphene
     90       1    1   0.000000  2.769000e+01  4.919000e+00  0.000000e+00  # CB graphene
     91       1    1   0.000000  2.556000e+01  6.149000e+00  0.000000e+00  # CB graphene
     92       1    1   0.000000  2.840000e+01  6.149000e+00  0.000000e+00  # CB graphene
     93       1    1   0.000000  3.053000e+01  4.919000e+00  0.000000e+00  # CB graphene
     94       1    1   0.000000  3.195000e+01  4.919000e+00  0.000000e+00  # CB graphene
     95       1    1   0.000000  2.982000e+01  6.149000e+00  0.000000e+00  # CB graphene
     96       1    1   0.000000  3.266000e+01  6.149000e+00  0.000000e+00  # CB graphene
     97       1    1   0.000000  7.100000e-01  7.379000e+00  0.000000e+00  # CB graphene
     98       1    1   0.000000  2.130000e+00  7.379000e+00  0.000000e+00  # CB graphene
     99       1    1   0.000000  0.000000e+00  8.608000e+00  0.000000e+00  # CB graphene
    100       1    1   0.000000  2.840000e+00  8.608000e+00  0.000000e+00  # CB graphene
    101       1    1   0.000000  4.970000e+00  7.379000e+00  0.000000e+00  # CB graphene
    102       1    1   0.000000  6.390000e+00  7.379000e+00  0.000000e+00  # CB graphene
    103       1    1   0.000000  4.260000e+00  8.608000e+00  0.000000e+00  # CB graphene
    104       1    1   0.000000  7.100000e+00  8.608000e+00  0.000000e+00  # CB graphene
    105       1    1   0.000000  9.230000e+00  7.379000e+00  0.000000e+00  # CB graphene
    106       1    1   0.000000  1.065000e+01  7.379000e+00  0.000000e+00  # CB graphene
    107       1    1   0.000000  8.520000e+00  8.608000e+00  0.000000e+00  # CB graphene
    108       1    1   0.000000  1.136000e+01  8.608000e+00  0.000000e+00  # CB graphene
    109       1    1   0.000000  1.349000e+01  7.379000e+00  0.000000e+00  # CB graphene
    110       1    1   0.000000  1.491000e+01  7.379000e+00  0.000000e+00  # CB graphene
    111       1    1   0.000000  1.278000e+01  8.608000e+00  0.000000e+00  # CB graphene
    112       1    1   0.000000  1.562000e+01  8.608000e+00  0.000000e+00  # CB graphene
    113       1    1   0.000000  1.775000e+01  7.379000e+00  0.000000e+00  # CB graphene
    114       1    1   0.000000  1.917000e+01  7.379000e+00  0.000000e+00  # CB graphene
    115       1    1   0.000000  1.704000e+01  8.608000e+00  0.000000e+00  # CB graphene
    116       1    1   0.000000  1.988000e+01  8.608000e+00  0.000000e+00  # CB graphene
    117       1    1   0.000000  2.201000e+01  7.379000e+00  0.000000e+00  # CB graphene
    118       1    1   0.000000  2.343000e+01  7.379000e+00  0.000000e+00  # CB graphene
    119       1    1   0.000000  2.130000e+01  8.608000e+00  0.000000e+00  # CB graphene
    120       1    1   0.000000  2.414000e+01  8.608000e+00  0.000000e+00  # CB graphene
    121       1    1   0.000000  2.627000e+01  7.379000e+00  0.000000e+00  # CB graphene
    122       1    1   0.000000  2.769000e+01  7.379000e+00  0.000000e+00  # CB graphene
    123       1    1   0.000000  2.556000e+01  8.608000e+00  0.000000e+00  # CB graphene
    124       1    1   0.000000  2.840000e+01  8.608000e+00  0.000000e+00  # CB graphene
    125       1    1   0.000000  3.053000e+01  7.379000e+00  0.000000e+00  # CB graphene
    126       1    1   0.000000  3.195000e+01  7.379000e+00  0.000000e+00  # CB graphene
    127       1    1   0.000000  2.982000e+01  8.608000e+00  0.000000e+00  # CB graphene
    128       1    1   0.000000  3.266000e+01  8.608000e+00  0.000000e+00  # CB graphene
    129       1    1   0.000000  7.100000e-01  9.838000e+00  0.000000e+00  # CB graphene
    130       1    1   0.000000  2.130000e+00  9.838000e+00  0.000000e+00  # CB graphene
    131       1    1   0.000000  0.000000e+00  1.106800e+01  0.000000e+00  # CB graphene
    132       1    1   0.000000  2.840000e+00  1.106800e+01  0.000000e+00  # CB graphene
    133       1    1   0.000000  4.970000e+00  9.838000e+00  0.000000e+00  # CB graphene
    134       1    1   0.000000  6.390000e+00  9.838000e+00  0.000000e+00  # CB graphene
    135       1    1   0.000000  4.260000e+00  1.106800e+01  0.000000e+00  # CB graphene
    136       1    1   0.000000  7.100000e+00  1.106800e+01  0.000000e+00  # CB graphene
    137       1    1   0.000000  9.230000e+00  9.838000e+00  0.000000e+00  # CB graphene
    138       1    1   0.000000  1.065000e+01  9.838000e+00  0.000000e+00  # CB graphene
    139       1    1   0.000000  8.520000e+00  1.106800e+01  0.000000e+00  # CB graphene
    140       1    1   0.000000  1.136000e+01  1.106800e+01  0.000000e+00  # CB graphene
    141       1    1   0.000000  1.349000e+01  9.838000e+00  0.000000e+00  # CB graphene
    142       1    1   0.000000  1.491000e+01  9.838000e+00  0.000000e+00  # CB graphene
    143       1    1   0.000000  1.278000e+01  1.106800e+01  0.000000e+00  # CB graphene
    144       1    1   0.000000  1.562000e+01  1.106800e+01  0.000000e+00  # CB graphene
    145       1    1   0.000000  1.775000e+01  9.838000e+00  0.000000e+00  # CB graphene
    146       1    1   0.000000  1.917000e+01  9.838000e+00  0.000000e+00  # CB graphene
    147       1    1   0.000000  1.704000e+01  1.106800e+01  0.000000e+00  # CB graphene
    148       1    1   0.000000  1.988000e+01  1.106800e+01  0.000000e+00  # CB graphene
    149       1    1   0.000000  2.201000e+01  9.838000e+00  0.000000e+00  # CB graphene
    150       1    1   0.000000  2.343000e+01  9.838000e+00  0.000000e+00  # CB graphene
    151       1    1   0.000000  2.130000e+01  1.106800e+01  0.000000e+00  # CB graphene
    152       1    1   0.000000  2.414000e+01  1.106800e+01  0.000000e+00  # CB graphene
    153       1    1   0.000000  2.627000e+01  9.838000e+00  0.000000e+00  # CB graphene
    154       1    1   0.000000  2.769000e+01  9.838000e+00  0.000000e+00  # CB graphene
    155       1    1   0.000000  2.556000e+01  1.106800e+01  0.000000e+00  # CB graphene
    156       1    1   0.000000  2.840000e+01  1.106800e+01  0.000000e+00  # CB graphene
    157       1    1   0.000000  3.053000e+01  9.838000e+00  0.000000e+00  # CB graphene
    158       1    1   0.000000  3.195000e+01  9.838000e+00  0.000000e+00  # CB graphene
    159       1    1   0.000000  2.982000e+01  1.106800e+01  0.000000e+00  # CB graphene
    160       1    1   0.000000  3.266000e+01  1.106800e+01  0.000000e+00  # CB graphene
    161       1    1   0.000000  7.100000e-01  1.229800e+01  0.000000e+00  # CB graphene
    162       1    1   0.000000  2.130000e+00  1.229800e+01  0.000000e+00  # CB graphene
    163       1    1   0.000000  0.000000e+00  1.352700e+01  0.000000e+00  # CB graphene
    164       1    1   0.000000  2.840000e+00  1.352700e+01  0.000000e+00  # CB graphene
    165       1    1   0.000000  4.970000e+00  1.229800e+01  0.000000e+00  # CB graphene
    166       1    1   0.000000  6.390000e+00  1.229800e+01  0.000000e+00  # CB graphene
    167       1    1   0.000000  4.260000e+00  1.352700e+01  0.000000e+00  # CB graphene
    168       1    1   0.000000  7.100000e+00  1.352700e+01  0.000000e+00  # CB graphene
    169       1    1   0.000000  9.230000e+00  1.229800e+01  0.000000e+00  # CB graphene
    170       1    1   0.000000  1.065000e+01  1.229800e+01  0.000000e+00  # CB graphene
    171       1    1   0.000000  8.520000e+00  1.352700e+01  0.000000e+00  # CB graphene
    172       1    1   0.000000  1.136000e+01  1.352700e+01  0.000000e+00  # CB graphene
    173       1    1   0.000000  1.349000e+01  1.229800e+01  0.000000e+00  # CB graphene
    174       1    1   0.000000  1.491000e+01  1.229800e+01  0.000000e+00  # CB graphene
    175       1    1   0.000000  1.278000e+01  1.352700e+01  0.000000e+00  # CB graphene
    176       1    1   0.000000  1.562000e+01  1.352700e+01  0.000000e+00  # CB graphene
    177       1    1   0.000000  1.775000e+01  1.229800e+01  0.000000e+00  # CB graphene
    178       1    1   0.000000  1.917000e+01  1.229800e+01  0.000000e+00  # CB graphene
    179       1    1   0.000000  1.704000e+01  1.352700e+01  0.000000e+00  # CB graphene
    180       1    1   0.000000  1.988000e+01  1.352700e+01  0.000000e+00  # CB graphene
    181       1    1   0.000000  2.201000e+01  1.229800e+01  0.000000e+00  # CB graphene
    182       1    1   0.000000  2.343000e+01  1.229800e+01  0.000000e+00  # CB graphene
    183       1    1   0.000000  2.130000e+01  1.352700e+01  0.000000e+00  # CB graphene
    184       1    1   0.000000  2.414000e+01  1.352700e+01  0.000000e+00  # CB graphene
    185       1    1   0.000000  2.627000e+01  1.229800e+01  0.000000e+00  # CB graphene
    186       1    1   0.000000  2.769000e+01  1.229800e+01  0.000000e+00  # CB graphene
    187       1    1   0.000000  2.556000e+01  1.352700e+01  0.000000e+00  # CB graphene
    188       1    1   0.000000  2.840000e+01  1.352700e+01  0.000000e+00  # CB graphene
    189       1    1   0.000000  3.053000e+01  1.229800e+01  0.000000e+00  # CB graphene
    190       1    1   0.000000  3.195000e+01  1.229800e+01  0.000000e+00  # CB graphene
    191       1    1   0.000000  2.982000e+01  1.352700e+01  0.000000e+00  # CB graphene
    192       1    1   0.000000  3.266000e+01  1.352700e+01  0.000000e+00  # CB graphene
    193       1    1   0.000000  7.100000e-01  1.475700e+01  0.000000e+00  # CB graphene
    194       1    1   0.000000  2.130000e+00  1.475700e+01  0.000000e+00  # CB graphene
    195       1    1   0.000000  0.000000e+00  1.598700e+01  0.000000e+00  # CB graphene
    196       1    1   0.000000  2.840000e+00  1.598700e+01  0.000000e+00  # CB graphene
    197       1    1   0.000000  4.970000e+00  1.475700e+01  0.000000e+00  # CB graphene
    198       1    1   0.000000  6.390000e+00  1.475700e+01  0.000000e+00  # CB graphene
    199       1    1   0.000000  4.260000e+00  1.598700e+01  0.000000e+00  # CB graphene
    200       1    1   0.000000  7.100000e+00  1.598700e+01  0.000000e+00  # CB graphene
    201       1    1   0.000000  9.230000e+00  1.475700e+01  0.000000e+00  # CB graphene
    202       1    1   0.000000  1.065000e+01  1.475700e+01  0.000000e+00  # CB graphene
    203       1    1   0.000000  8.520000e+00  1.598700e+01  0.000000e+00  # CB graphene
    204       1    1   0.000000  1.136000e+01  1.598700e+01  0.000000e+00  # CB graphene
    205       1    1   0.000000  1.349000e+01  1.475700e+01  0.000000e+00  # CB graphene
    206       1    1   0.000000  1.491000e+01  1.475700e+01  0.000000e+00  # CB graphene
    207       1    1   0.000000  1.278000e+01  1.598700e+01  0.000000e+00  # CB graphene
    208       1    1   0.000000  1.562000e+01  1.598700e+01  0.000000e+00  # CB graphene
    209       1    1   0.000000  1.775000e+01  1.475700e+01  0.000000e+00  # CB graphene
    210       1    1   0.000000  1.917000e+01  1.475700e+01  0.000000e+00  # CB graphene
    211       1    1   0.000000  1.704000e+01  1.598700e+01  0.000000e+00  # CB graphene
    212       1    1   0.000000  1.988000e+01  1.598700e+01  0.000000e+00  # CB graphene
    213       1    1   0.000000  2.201000e+01  1.475700e+01  0.000000e+00  # CB graphene
    214       1    1   0.000000  2.343000e+01  1.475700e+01  0.000000e+00  # CB graphene
    215       1    1   0.000000  2.130000e+01  1.598700e+01  0.000000e+00  # CB graphene
    216       1    1   0.000000  2.414000e+01  1.598700e+01  0.000000e+00  # CB graphene
    217       1    1   0.000000  2.627000e+01  1.475700e+01  0.000000e+00  # CB graphene
    218       1    1   0.000000  2.769000e+01  1.475700e+01  0.000000e+00  # CB graphene
    219       1    1   0.000000  2.556000e+01  1.598700e+01  0.000000e+00  # CB graphene
    220       1    1   0.000000  2.840000e+01  1.598700e+01  0.000000e+00  # CB graphene
    221       1    1   0.000000  3.053000e+01  1.475700e+01  0.000000e+00  # CB graphene
    222       1    1   0.000000  3.195000e+01  1.475700e+01  0.000000e+00  # CB graphene
    223       1    1   0.000000  2.982000e+01  1.598700e+01  0.000000e+00  # CB graphene
    224       1    1   0.000000  3.266000e+01  1.598700e+01  0.000000e+00  # CB graphene
    225       1    1   0.000000  7.100000e-01  1.721700e+01  0.000000e+00  # CB graphene
    226       1    1   0.000000  2.130000e+00  1.721700e+01  0.000000e+00  # CB graphene
    227       1    1   0.000000  0.000000e+00  1.844600e+01  0.000000e+00  # CB graphene
    228       1    1   0.000000  2.840000e+00  1.844600e+01  0.000000e+00  # CB graphene
    229       1    1   0.000000  4.970000e+00  1.721700e+01  0.000000e+00  # CB graphene
    230       1    1   0.000000  6.390000e+00  1.721700e+01  0.000000e+00  # CB graphene
    231       1    1   0.000000  4.260000e+00  1.844600e+01  0.000000e+00  # CB graphene
    232       1    1   0.000000  7.100000e+00  1.844600e+01  0.000000e+00  # CB graphene
    233       1    1   0.000000  9.230000e+00  1.721700e+01  0.000000e+00  # CB graphene
    234       1    1   0.000000  1.065000e+01  1.721700e+01  0.000000e+00  # CB graphene
    235       1    1   0.000000  8.520000e+00  1.844600e+01  0.000000e+00  # CB graphene
    236       1    1   0.000000  1.136000e+01  1.844600e+01  0.000000e+00  # CB graphene
    237       1    1   0.000000  1.349000e+01  1.721700e+01  0.000000e+00  # CB graphene
    238       1    1   0.000000  1.491000e+01  1.721700e+01  0.000000e+00  # CB graphene
    239       1    1   0.000000  1.278000e+01  1.844600e+01  0.000000e+00  # CB graphene
    240       1    1   0.000000  1.562000e+01  1.844600e+01  0.000000e+00  # CB graphene
    241       1    1   0.000000  1.775000e+01  1.721700e+01  0.000000e+00  # CB graphene
    242       1    1   0.000000  1.917000e+01  1.721700e+01  0.000000e+00  # CB graphene
    243       1    1   0.000000  1.704000e+01  1.844600e+01  0.000000e+00  # CB graphene
    244       1    1   0.000000  1.988000e+01  1.844600e+01  0.000000e+00  # CB graphene
    245       1    1   0.000000  2.201000e+01  1.721700e+01  0.000000e+00  # CB graphene
    246       1    1   0.000000  2.343000e+01  1.721700e+01  0.000000e+00  # CB graphene
    247       1    1   0.000000  2.130000e+01  1.844600e+01  0.000000e+00  # CB graphene
    248       1    1   0.000000  2.414000e+01  1.844600e+01  0.000000e+00  # CB graphene
    249       1    1   0.000000  2.627000e+01  1.721700e+01  0.000000e+00  # CB graphene
    250       1    1   0.000000  2.769000e+01  1.721700e+01  0.000000e+00  # CB graphene
    251       1    1   0.000000  2.556000e+01  1.844600e+01  0.000000e+00  # CB graphene
    252       1    1   0.000000  2.840000e+01  1.844600e+01  0.000000e+00  # CB graphene
    253       1    1   0.000000  3.053000e+01  1.721700e+01  0.000000e+00  # CB graphene
    254       1    1   0.000000  3.195000e+01  1.721700e+01  0.000000e+00  # CB graphene
    255       1    1   0.000000  2.982000e+01  1.844600e+01  0.000000e+00  # CB graphene
    256       1    1   0.000000  3.266000e+01  1.844600e+01  0.000000e+00  # CB graphene
    257       1    1   0.000000  7.100000e-01  1.967600e+01  0.000000e+00  # CB graphene
    258       1    1   0.000000  2.130000e+00  1.967600e+01  0.000000e+00  # CB graphene
    259       1    1   0.000000  0.000000e+00  2.090600e+01  0.000000e+00  # CB graphene
    260       1    1   0.000000  2.840000e+00  2.090600e+01  0.000000e+00  # CB graphene
    261       1    1   0.000000  4.970000e+00  1.967600e+01  0.000000e+00  # CB graphene
    262       1    1   0.000000  6.390000e+00  1.967600e+01  0.000000e+00  # CB graphene
    263       1    1   0.000000  4.260000e+00  2.090600e+01  0.000000e+00  # CB graphene
    264       1    1   0.000000  7.100000e+00  2.090600e+01  0.000000e+00  # CB graphene
    265       1    1   0.000000  9.230000e+00  1.967600e+01  0.000000e+00  # CB graphene
    266       1    1   0.000000  1.065000e+01  1.967600e+01  0.000000e+00  # CB graphene
    267       1    1   0.000000  8.520000e+00  2.090600e+01  0.000000e+00  # CB graphene
    268       1    1   0.000000  1.136000e+01  2.090600e+01  0.000000e+00  # CB graphene
    269       1    1   0.000000  1.349000e+01  1.967600e+01  0.000000e+00  # CB graphene
    270       1    1   0.000000  1.491000e+01  1.967600e+01  0.000000e+00  # CB graphene
    271       1    1   0.000000  1.278000e+01  2.090600e+01  0.000000e+00  # CB graphene
    272       1    1   0.000000  1.562000e+01  2.090600e+01  0.000000e+00  # CB graphene
    273       1    1   0.000000  1.775000e+01  1.967600e+01  0.000000e+00  # CB graphene
    274       1    1   0.000000  1.917000e+01  1.967600e+01  0.000000e+00  # CB graphene
    275       1    1   0.000000  1.704000e+01  2.090600e+01  0.000000e+00  # CB graphene
    276       1    1   0.000000  1.988000e+01  2.090600e+01  0.000000e+00  # CB graphene
    277       1    1   0.000000  2.201000e+01  1.967600e+01  0.000000e+00  # CB graphene
    278       1    1   0.000000  2.343000e+01  1.967600e+01  0.000000e+00  # CB graphene
    279       1    1   0.000000  2.130000e+01  2.090600e+01  0.000000e+00  # CB graphene
    280       1    1   0.000000  2.414000e+01  2.090600e+01  0.000000e+00  # CB graphene
    281       1    1   0.000000  2.627000e+01  1.967600e+01  0.000000e+00  # CB graphene
    282       1    1   0.000000  2.769000e+01  1.967600e+01  0.000000e+00  # CB graphene
    283       1    1   0.000000  2.556000e+01  2.090600e+01  0.000000e+00  # CB graphene
    284       1    1   0.000000  2.840000e+01  2.090600e+01  0.000000e+00  # CB graphene
    285       1    1   0.000000  3.053000e+01  1.967600e+01  0.000000e+00  # CB graphene
    286       1    1   0.000000  3.195000e+01  1.967600e+01  0.000000e+00  # CB graphene
    287       1    1   0.000000  2.982000e+01  2.090600e+01  0.000000e+00  # CB graphene
    288       1    1   0.000000  3.266000e+01  2.090600e+01  0.000000e+00  # CB graphene
    289       1    1   0.000000  7.100000e-01  2.213600e+01  0.000000e+00  # CB graphene
    290       1    1   0.000000  2.130000e+00  2.213600e+01  0.000000e+00  # CB graphene
    291       1    1   0.000000  0.000000e+00  2.336500e+01  0.000000e+00  # CB graphene
    292       1    1   0.000000  2.840000e+00  2.336500e+01  0.000000e+00  # CB graphene
    293       1    1   0.000000  4.970000e+00  2.213600e+01  0.000000e+00  # CB graphene
    294       1    1   0.000000  6.390000e+00  2.213600e+01  0.000000e+00  # CB graphene
    295       1    1   0.000000  4.260000e+00  2.336500e+01  0.000000e+00  # CB graphene
    296       1    1   0.000000  7.100000e+00  2.336500e+01  0.000000e+00  # CB graphene