
    -----------------------------------------------------------------------
          Psi4: An Open-Source Ab Initio Electronic Structure Package
                               Psi4 1.9 release

                         Git: Rev {} zzzzzzz 


    D. G. A. Smith, L. A. Burns, A. C. Simmonett, R. M. Parrish,
    M. C. Schieber, R. Galvelis, P. Kraus, H. Kruse, R. Di Remigio,
    A. Alenaizan, A. M. James, S. Lehtola, J. P. Misiewicz, M. Scheurer,
    R. A. Shaw, J. B. Schriber, Y. Xie, Z. L. Glick, D. A. Sirianni,
    J. S. O'Brien, J. M. Waldrop, A. Kumar, E. G. Hohenstein,
    B. P. Pritchard, B. R. Brooks, H. F. Schaefer III, A. Yu. Sokolov,
    K. Patkowski, A. E. DePrince III, U. Bozkaya, R. A. King,
    F. A. Evangelista, J. M. Turney, T. D. Crawford, C. D. Sherrill,
    J. Chem. Phys. 152(18) 184108 (2020). https://doi.org/10.1063/5.0006002

                            Additional Code Authors
    E. T. Seidl, C. L. Janssen, E. F. Valeev, M. L. Leininger,
    J. F. Gonthier, R. M. Richard, H. R. McAlexander, M. Saitow, X. Wang,
    P. Verma, M. H. Lechner, A. Jiang, S. Behnle, A. G. Heide,
    M. F. Herbst, and D. L. Poole

             Previous Authors, Complete List of Code Contributors,
                       and Citations for Specific Modules
    https://github.com/psi4/psi4/blob/master/codemeta.json
    https://github.com/psi4/psi4/graphs/contributors
    http://psicode.org/psi4manual/master/introduction.html#citing-psifour

    -----------------------------------------------------------------------


    Psi4 started on: Wednesday, 07 February 2024 04:59PM

    Process ID: 188878
    Host:       n2cn0220.ab2021.local
    PSIDATADIR: /opt/software/pc2/EB-SW/software/PSI4/1.9-foss-2022a/share/psi4
    Memory:     500.0 MiB
    Threads:    16
    
  ==> Input File <==

--------------------------------------------------------------------------
memory 48 GB # how much memory is available ! Depends on the nodes/cores !

molecule dimer {
# monomer A
-1 1    # Charge and multiplicity
B -1.977592e-04  2.742729e-04 -3.099966
F  1.123153e-16  1.430594e-17 -1.687181
F  1.147860e+00  6.757812e-01 -3.571107
F  1.191806e-02 -1.332011e+00 -3.570905
F -1.159666e+00  6.560735e-01 -3.570826
--
# monomer B
0 1     # Charge and multiplicity
C   1.22531237526482      0.70753866091955      0.00613762728373
C   1.22532433589282     -0.70753852257020     -0.00619318228664
C   -0.00000567409046      1.41496628609039     -0.00672680580738
C   2.45644923379077      1.41832825917820      0.00902448468363
C   0.00001130712078     -1.41497612663474      0.00347275151708
C   -1.22530046906674      0.70754574598412      0.00838914760619
C   2.45643823516184     -1.41832293188077     -0.00843833914343
C   -0.00000085313587      2.83680140328112     -0.00913035594137
C   3.68182717731192      0.70931832800114     -0.00808954934571
C   2.45512052870677      2.83422403348893     -0.00819210630633
C   3.68182158506039     -0.70933346742900      0.00798293467272
C   -1.22531311884624     -0.70752714354401     -0.00512042085974
C   1.22670006104402      3.54346985599427      0.00816696660346
C   0.00000526469929     -2.83678176723568      0.00832091913869
C   -2.45643555300670      1.41831729028492      0.00842454345199
C   2.45512389762097     -2.83422965658853      0.00783102630520
C   -1.22671388474763      3.54346943575023      0.00827029982280
C   4.91451777504333      1.42717324448953     -0.00160886631602
C   3.69315067131765      3.54279566454522     -0.00155906667985
C   -2.45643712022637     -1.41831290883911     -0.00846337726810
C   1.22670532178455     -3.54347386990643     -0.00780316414624
C   -2.45512491866593      2.83421703463423     -0.00818572995999
C   4.91452486062398     -1.42718653794377      0.00136387641845
C   1.22142509354026      4.97013443726031      0.00150231067809
C   4.89300870916237      2.82518837202648     -0.00039219795739
C   -1.22669652864725     -3.54347062507680     -0.00753595973677
C   -3.68181849668397      0.70932533873199     -0.00807686886569
C   3.69314758099218     -3.54280096939050      0.00148176697923
C   -1.22143177215231      4.97012866986289      0.00168580605083
C   6.13477145276790      0.68054831910577     -0.00083909176631
C   3.65678936045204      4.97295361556775     -0.00065042889723
C   -2.45512642789169     -2.83421472106065      0.00758666850712
C   -3.68181869921921     -0.70932533146830      0.00810055625144
C   4.89301309775526     -2.82519973363176      0.00021895393805
C   -0.00000059327114      5.65044773803267      0.00045449734393
C   6.13477559217374     -0.68055448207492      0.00042622874941
C   2.47813196269732      5.65357712333155      0.00063835075260
C   1.22142288457925     -4.97012668293268     -0.00129718634452
C   -3.69316190412301      3.54279732619245     -0.00139355922051
C   -1.22142804110313     -4.97011793159564     -0.00140994817719
C   -4.91452132810043      1.42717581899491     -0.00153192130862
C   3.65678749952045     -4.97295485423912      0.00080007163680
C   -2.47813805026426      5.65357479452875      0.00092287576113
C   -3.69314125872231     -3.54278984697859      0.00136564082345
C   -4.91451200321153     -1.42718062802730      0.00139857359209
C   -0.00000552908399     -5.65043791501335      0.00005899322272
C   -4.89302000425900      2.82518897091939     -0.00040227981744
C   2.47812647313991     -5.65357317188818     -0.00029052915548
C   -3.65679823041642      4.97295655404175     -0.00047374852278
C   -4.89299899901461     -2.82519139505969      0.00006491824035
C   -2.47812801824129     -5.65356579800621     -0.00056571680280
C   -6.13477002348955      0.68054913825639     -0.00086464346868
C   -3.65678835334731     -4.97294365097028      0.00058578382008
C   -6.13476456307132     -0.68055354348201      0.00040575295444
H   5.83528897565761      3.36927626695423      0.00396712770529
H   7.07385965258860      1.22821762089947     -0.00037744837300
H   4.60066374401555      5.51238117445323     -0.00014522814529
H   5.83528386714679     -3.36930568472863     -0.00423551337640
H   -0.00001167146422      6.73853104613662     -0.00389474766392
H   7.07386165167227     -1.22822657074368     -0.00008250934481
H   2.47331421164041      6.74068466339473      0.00017162982210
H   4.60066897122302     -5.51237575717576      0.00039007446835
H   -2.47331820069565      6.74068209160650      0.00047297644710
H   -0.00000978838621     -6.73852780445195      0.00458867820736
H   -5.83530143450167      3.36927132229595      0.00410314985360
H   2.47330840367253     -6.74068500242887      0.00027980126949
H   -4.60067436136587      5.51237839860371      0.00002010017831
H   -5.83527902699321     -3.36928859177951     -0.00451481925734
H   -2.47329986759855     -6.74067870613986     -0.00016951527498
H   -7.07385728692578      1.22822084484047     -0.00046143985387
H   -4.60067330624313     -5.51236229778631      0.00021776644566
H   -7.07385645456741     -1.22822025997701     -0.00017736581114

    units angstrom      # Angstroms are the default
    no_reorient         # Geometry fixed, default
    symmetry c1         # C1 symmetry, default
}

set {
    scf_type DF         # Density fitting, faster than exact integrals
    freeze_core True    # Freeze core electrons
    basis jun-cc-pVDZ   # Jun-cc-pVDZ basis set, recommended for sSAPT0 in https://doi.org/10.1063/1.4867135
}

energy('ssapt0')        # Compute sSAPT0 energy, includes also SAPT0
--------------------------------------------------------------------------

  Memory set to  44.703 GiB by Python driver.

Scratch directory: /tmp/
   => Loading Basis Set <=

    Name: JUN-CC-PVDZ
    Role: ORBITAL
    Keyword: BASIS
    atoms 1     entry B          line   130 file /opt/software/pc2/EB-SW/software/PSI4/1.9-foss-2022a/share/psi4/basis/jun-cc-pvdz.gbs 
    atoms 2-5   entry F          line   266 file /opt/software/pc2/EB-SW/software/PSI4/1.9-foss-2022a/share/psi4/basis/jun-cc-pvdz.gbs 
    atoms 6-59  entry C          line   164 file /opt/software/pc2/EB-SW/software/PSI4/1.9-foss-2022a/share/psi4/basis/jun-cc-pvdz.gbs 
    atoms 60-77 entry H          line    36 file /opt/software/pc2/EB-SW/software/PSI4/1.9-foss-2022a/share/psi4/basis/jun-cc-pvdz.gbs 

   => Loading Basis Set <=

    Name: JUN-CC-PVDZ
    Role: ORBITAL
    Keyword: BASIS
    atoms 1     entry B          line   130 file /opt/software/pc2/EB-SW/software/PSI4/1.9-foss-2022a/share/psi4/basis/jun-cc-pvdz.gbs 
    atoms 2-5   entry F          line   266 file /opt/software/pc2/EB-SW/software/PSI4/1.9-foss-2022a/share/psi4/basis/jun-cc-pvdz.gbs 
    atoms 6-59  entry C          line   164 file /opt/software/pc2/EB-SW/software/PSI4/1.9-foss-2022a/share/psi4/basis/jun-cc-pvdz.gbs 
    atoms 60-77 entry H          line    36 file /opt/software/pc2/EB-SW/software/PSI4/1.9-foss-2022a/share/psi4/basis/jun-cc-pvdz.gbs 


  //>>>>>>>>>>>>>>>>>>>>>>>>>>>>>>>>>>>//
  //              Dimer HF             //
  //<<<<<<<<<<<<<<<<<<<<<<<<<<<<<<<<<<<//

   => Libint2 <=

    Primary   basis highest AM E, G, H:  5, 4, 3
    Auxiliary basis highest AM E, G, H:  6, 5, 4
    Onebody   basis highest AM E, G, H:  6, 5, 4
    Solid Harmonics ordering:            gaussian

*** tstart() called on n2cn0220.ab2021.local
*** at Wed Feb  7 16:59:43 2024

   => Loading Basis Set <=

    Name: JUN-CC-PVDZ
    Role: ORBITAL
    Keyword: BASIS
    atoms 1     entry B          line   130 file /opt/software/pc2/EB-SW/software/PSI4/1.9-foss-2022a/share/psi4/basis/jun-cc-pvdz.gbs 
    atoms 2-5   entry F          line   266 file /opt/software/pc2/EB-SW/software/PSI4/1.9-foss-2022a/share/psi4/basis/jun-cc-pvdz.gbs 
    atoms 6-59  entry C          line   164 file /opt/software/pc2/EB-SW/software/PSI4/1.9-foss-2022a/share/psi4/basis/jun-cc-pvdz.gbs 
    atoms 60-77 entry H          line    36 file /opt/software/pc2/EB-SW/software/PSI4/1.9-foss-2022a/share/psi4/basis/jun-cc-pvdz.gbs 


         ---------------------------------------------------------
                                   SCF
               by Justin Turney, Rob Parrish, Andy Simmonett
                          and Daniel G. A. Smith
                              RHF Reference
                       16 Threads,  45776 MiB Core
         ---------------------------------------------------------

  ==> Geometry <==

    Molecular point group: c1
    Full point group: C1

    Geometry (in Angstrom), charge = -1, multiplicity = 1:

       Center              X                  Y                   Z               Mass       
    ------------   -----------------  -----------------  -----------------  -----------------
         B           -0.000198161052     0.000273808717    -2.741852818387    11.009305360000
         F           -0.000000401852    -0.000000464183    -1.329067818387    18.998403162730
         F            1.147859598148     0.675780735817    -3.212993818387    18.998403162730
         F            0.011917658148    -1.332011464183    -3.212791818387    18.998403162730
         F           -1.159666401852     0.656073035817    -3.212712818387    18.998403162730
         C            1.225311973413     0.707538196736     0.364250808897    12.000000000000
         C            1.225323934041    -0.707538986754     0.351919999327    12.000000000000
         C           -0.000006075942     1.414965821907     0.351386375806    12.000000000000
         C            2.456448831939     1.418327794995     0.367137666297    12.000000000000
         C            0.000010905269    -1.414976590818     0.361585933130    12.000000000000
         C           -1.225300870919     0.707545281801     0.366502329219    12.000000000000
         C            2.456437833310    -1.418323396064     0.349674842470    12.000000000000
         C           -0.000001254988     2.836800939098     0.348982825672    12.000000000000
         C            3.681826775460     0.709317863818     0.350023632268    12.000000000000
         C            2.455120126855     2.834223569306     0.349921075307    12.000000000000
         C            3.681821183209    -0.709333931612     0.366096116286    12.000000000000
         C           -1.225313520698    -0.707527607727     0.352992760754    12.000000000000
         C            1.226699659192     3.543469391811     0.366280148217    12.000000000000
         C            0.000004862847    -2.836782231419     0.366434100752    12.000000000000
         C           -2.456435954859     1.418316826102     0.366537725065    12.000000000000
         C            2.455123495769    -2.834230120772     0.365944207918    12.000000000000
         C           -1.226714286599     3.543468971567     0.366383481436    12.000000000000
         C            4.914517373191     1.427172780306     0.356504315297    12.000000000000
         C            3.693150269466     3.542795200362     0.356554114933    12.000000000000
         C           -2.456437522078    -1.418313373022     0.349649804345    12.000000000000
         C            1.226704919933    -3.543474334090     0.350310017467    12.000000000000
         C           -2.455125320518     2.834216570451     0.349927451653    12.000000000000
         C            4.914524458772    -1.427187002127     0.359477058032    12.000000000000
         C            1.221424691688     4.970133973077     0.359615492291    12.000000000000
         C            4.893008307311     2.825187907843     0.357720983656    12.000000000000
         C           -1.226696930499    -3.543471089260     0.350577221877    12.000000000000
         C           -3.681818898536     0.709324874549     0.350036312748    12.000000000000
         C            3.693147179140    -3.542801433574     0.359594948593    12.000000000000
         C           -1.221432174004     4.970128205680     0.359798987664    12.000000000000
         C            6.134771050916     0.680547854922     0.357274089847    12.000000000000
         C            3.656788958600     4.972953151384     0.357462752716    12.000000000000
         C           -2.455126829744    -2.834215185244     0.365699850120    12.000000000000
         C           -3.681819101071    -0.709325795652     0.366213737865    12.000000000000
         C            4.893012695903    -2.825200197815     0.358332135551    12.000000000000
         C           -0.000000995123     5.650447273849     0.358567678957    12.000000000000
         C            6.134775190322    -0.680554946258     0.358539410363    12.000000000000
         C            2.478131560845     5.653576659148     0.358751532366    12.000000000000
         C            1.221422482727    -4.970127147116     0.356815995269    12.000000000000
         C           -3.693162305975     3.542796862009     0.356719622393    12.000000000000
         C           -1.221428442955    -4.970118395779     0.356703233436    12.000000000000
         C           -4.914521729952     1.427175354812     0.356581260305    12.000000000000
         C            3.656787097669    -4.972955318422     0.358913253250    12.000000000000
         C           -2.478138452116     5.653574330345     0.359036057374    12.000000000000
         C           -3.693141660574    -3.542790311162     0.359478822437    12.000000000000
         C           -4.914512405063    -1.427181092211     0.359511755205    12.000000000000
         C           -0.000005930936    -5.650438379197     0.358172174836    12.000000000000
         C           -4.893020406111     2.825188506736     0.357710901796    12.000000000000
         C            2.478126071288    -5.653573636072     0.357822652458    12.000000000000
         C           -3.656798632268     4.972956089858     0.357639433091    12.000000000000
         C           -4.892999400866    -2.825191859243     0.358178099854    12.000000000000
         C           -2.478128420093    -5.653566262190     0.357547464810    12.000000000000
         C           -6.134770425341     0.680548674073     0.357248538145    12.000000000000
         C           -3.656788755199    -4.972944115154     0.358698965433    12.000000000000
         C           -6.134764964923    -0.680554007665     0.358518934568    12.000000000000
         H            5.835288573806     3.369275802771     0.362080309319     1.007825032230
         H            7.073859250737     1.228217156716     0.357735733240     1.007825032230
         H            4.600663342164     5.512380710270     0.357967953468     1.007825032230
         H            5.835283465295    -3.369306148912     0.353877668237     1.007825032230
         H           -0.000012073316     6.738530581953     0.354218433949     1.007825032230
         H            7.073861249820    -1.228227034927     0.358030672268     1.007825032230
         H            2.473313809789     6.740684199211     0.358284811435     1.007825032230
         H            4.600668569371    -5.512376221359     0.358503256082     1.007825032230
         H           -2.473318602548     6.740681627423     0.358586158060     1.007825032230
         H           -0.000010190238    -6.738528268635     0.362701859821     1.007825032230
         H           -5.835301836354     3.369270858113     0.362216331467     1.007825032230
         H            2.473308001821    -6.740685466612     0.358392982883     1.007825032230
         H           -4.600674763218     5.512377934420     0.358133281792     1.007825032230
         H           -5.835279428845    -3.369289055963     0.353598362356     1.007825032230
         H           -2.473300269450    -6.740679170323     0.357943666338     1.007825032230
         H           -7.073857688778     1.228220380657     0.357651741759     1.007825032230
         H           -4.600673708095    -5.512362761970     0.358330948059     1.007825032230
         H           -7.073856856419    -1.228220724160     0.357935815802     1.007825032230

  Running in c1 symmetry.

  Rotational constants: A =      0.00200  B =      0.00200  C =      0.00110 [cm^-1]
  Rotational constants: A =     59.86808  B =     59.85979  C =     33.02251 [MHz]
  Nuclear repulsion = 8027.730472559173904

  Charge       = -1
  Multiplicity = 1
  Electrons    = 384
  Nalpha       = 192
  Nbeta        = 192

  ==> Algorithm <==

  SCF Algorithm Type is DF.
  DIIS enabled.
  MOM disabled.
  Fractional occupation disabled.
  Guess Type is SAD.
  Energy threshold   = 1.00e-08
  Density threshold  = 1.00e-08
  Integral threshold = 1.00e-12

  ==> Primary Basis <==

  Basis Set: JUN-CC-PVDZ
    Blend: JUN-CC-PVDZ
    Number of shells: 526
    Number of basis functions: 1152
    Number of Cartesian functions: 1211
    Spherical Harmonics?: true
    Max angular momentum: 2

   => Loading Basis Set <=

    Name: (JUN-CC-PVDZ AUX)
    Role: JKFIT
    Keyword: DF_BASIS_SCF
    atoms 1     entry B          line    90 file /opt/software/pc2/EB-SW/software/PSI4/1.9-foss-2022a/share/psi4/basis/jun-cc-pvdz-jkfit.gbs 
    atoms 2-5   entry F          line   314 file /opt/software/pc2/EB-SW/software/PSI4/1.9-foss-2022a/share/psi4/basis/jun-cc-pvdz-jkfit.gbs 
    atoms 6-59  entry C          line   146 file /opt/software/pc2/EB-SW/software/PSI4/1.9-foss-2022a/share/psi4/basis/jun-cc-pvdz-jkfit.gbs 
    atoms 60-77 entry H          line    70 file /opt/software/pc2/EB-SW/software/PSI4/1.9-foss-2022a/share/psi4/basis/jun-cc-pvdz-jkfit.gbs 

  ==> Integral Setup <==

  ==> DiskDFJK: Density-Fitted J/K Matrices <==

    J tasked:                  Yes
    K tasked:                  Yes
    wK tasked:                  No
    OpenMP threads:             16
    Integrals threads:          16
    Memory [MiB]:            34332
    Algorithm:                Core
    Integral Cache:           SAVE
    Schwarz Cutoff:          1E-12
    Fitting Condition:       1E-10

   => Auxiliary Basis Set <=

  Basis Set: (JUN-CC-PVDZ AUX)
    Blend: JUN-CC-PVDZ-JKFIT
    Number of shells: 1755
    Number of basis functions: 5075
    Number of Cartesian functions: 5819
    Spherical Harmonics?: true
    Max angular momentum: 3

  Minimum eigenvalue in the overlap matrix is 7.6915089837E-10.
  Reciprocal condition number of the overlap matrix is 3.1891414495E-11.
    Using canonical orthogonalization.
  Overall, 14 of 1152 possible MOs eliminated.


  ==> Pre-Iterations <==

  SCF Guess: Superposition of Atomic Densities via on-the-fly atomic UHF (no occupation information).

   -------------------------
    Irrep   Nso     Nmo    
   -------------------------
     A       1152    1138 
   -------------------------
    Total    1152    1138
   -------------------------

  ==> Iterations <==

                           Total Energy        Delta E     RMS |[F,P]|

   @DF-RHF iter SAD: -2483.94338541247862   -2.48394e+03   0.00000e+00 
   @DF-RHF iter   1: -2477.49566454401293    6.44772e+00   1.11106e-03 ADIIS/DIIS
   @DF-RHF iter   2: -2478.39559613854999   -8.99932e-01   5.02246e-04 ADIIS/DIIS
   @DF-RHF iter   3: -2478.54736563273900   -1.51769e-01   1.64623e-04 ADIIS/DIIS
   @DF-RHF iter   4: -2478.56540053992740   -1.80349e-02   8.26876e-05 DIIS
   @DF-RHF iter   5: -2478.57086809895281   -5.46756e-03   1.87754e-05 DIIS
   @DF-RHF iter   6: -2478.57120893091997   -3.40832e-04   5.30571e-06 DIIS
   @DF-RHF iter   7: -2478.57128601747172   -7.70866e-05   2.76590e-06 DIIS
   @DF-RHF iter   8: -2478.57130879795977   -2.27805e-05   1.24280e-06 DIIS
   @DF-RHF iter   9: -2478.57131674400352   -7.94604e-06   3.43858e-07 DIIS
   @DF-RHF iter  10: -2478.57131715193418   -4.07931e-07   1.24066e-07 DIIS
   @DF-RHF iter  11: -2478.57131718709888   -3.51647e-08   4.94615e-08 DIIS
   @DF-RHF iter  12: -2478.57131719498511   -7.88623e-09   2.08861e-08 DIIS
   @DF-RHF iter  13: -2478.57131719625704   -1.27193e-09   9.87912e-09 DIIS
  Energy and wave function converged.


  ==> Post-Iterations <==

    Orbital Energies [Eh]
    ---------------------

    Doubly Occupied:                                                      

       1A    -26.106136     2A    -26.094899     3A    -26.094814  
       4A    -26.094738     5A    -11.175234     6A    -11.175217  
       7A    -11.175216     8A    -11.175158     9A    -11.175142  
      10A    -11.175140    11A    -11.175035    12A    -11.175028  
      13A    -11.175026    14A    -11.174963    15A    -11.174955  
      16A    -11.174954    17A    -11.173571    18A    -11.173568  
      19A    -11.173566    20A    -11.173561    21A    -11.173558  
      22A    -11.173556    23A    -11.172207    24A    -11.172204  
      25A    -11.172202    26A    -11.172199    27A    -11.172197  
      28A    -11.172196    29A    -11.169562    30A    -11.169522  
      31A    -11.169516    32A    -11.169359    33A    -11.169355  
      34A    -11.169269    35A    -11.168720    36A    -11.168585  
      37A    -11.168578    38A    -11.168309    39A    -11.168307  
      40A    -11.168204    41A    -11.168190    42A    -11.168187  
      43A    -11.168186    44A    -11.167752    45A    -11.167742  
      46A    -11.167739    47A    -11.167392    48A    -11.167339  
      49A    -11.167336    50A    -11.167122    51A    -11.167109  
      52A    -11.167085    53A    -11.161291    54A    -11.160853  
      55A    -11.160801    56A    -11.159565    57A    -11.159507  
      58A    -11.159045    59A     -7.573120    60A     -1.460811  
      61A     -1.407702    62A     -1.378940    63A     -1.378787  
      64A     -1.151747    65A     -1.132187    66A     -1.132184  
      67A     -1.104019    68A     -1.104013    69A     -1.090327  
      70A     -1.074114    71A     -1.064005    72A     -1.047491  
      73A     -1.047474    74A     -1.029986    75A     -1.029981  
      76A     -0.995482    77A     -0.995470    78A     -0.991667  
      79A     -0.983281    80A     -0.983278    81A     -0.954833  
      82A     -0.935761    83A     -0.934852    84A     -0.933707  
      85A     -0.933654    86A     -0.930495    87A     -0.900692  
      88A     -0.900651    89A     -0.878346    90A     -0.878294  
      91A     -0.811171    92A     -0.811140    93A     -0.802551  
      94A     -0.796854    95A     -0.796800    96A     -0.795649  
      97A     -0.795597    98A     -0.778327    99A     -0.756786  
     100A     -0.734342   101A     -0.728997   102A     -0.727229  
     103A     -0.727226   104A     -0.712114   105A     -0.712104  
     106A     -0.671224   107A     -0.658643   108A     -0.649812  
     109A     -0.649609   110A     -0.649586   111A     -0.646815  
     112A     -0.646803   113A     -0.625119   114A     -0.615388  
     115A     -0.615374   116A     -0.610198   117A     -0.610176  
     118A     -0.579161   119A     -0.578773   120A     -0.572953  
     121A     -0.572937   122A     -0.567239   123A     -0.565441  
     124A     -0.565423   125A     -0.563763   126A     -0.556385  
     127A     -0.556382   128A     -0.542247   129A     -0.542234  
     130A     -0.541415   131A     -0.527489   132A     -0.516365  
     133A     -0.516333   134A     -0.515561   135A     -0.509289  
     136A     -0.509279   137A     -0.508521   138A     -0.508381  
     139A     -0.504974   140A     -0.496943   141A     -0.496871  
     142A     -0.486031   143A     -0.486012   144A     -0.480699  
     145A     -0.480686   146A     -0.480006   147A     -0.479992  
     148A     -0.472264   149A     -0.472060   150A     -0.472042  
     151A     -0.459229   152A     -0.456407   153A     -0.456402  
     154A     -0.453317   155A     -0.453311   156A     -0.447041  
     157A     -0.446987   158A     -0.445259   159A     -0.438632  
     160A     -0.438619   161A     -0.422329   162A     -0.422247  
     163A     -0.418509   164A     -0.413431   165A     -0.411778  
     166A     -0.410329   167A     -0.404938   168A     -0.403568  
     169A     -0.399365   170A     -0.396594   171A     -0.396571  
     172A     -0.372927   173A     -0.372891   174A     -0.362845  
     175A     -0.362760   176A     -0.357030   177A     -0.357023  
     178A     -0.318183   179A     -0.318157   180A     -0.298428  
     181A     -0.293718   182A     -0.293714   183A     -0.265349  
     184A     -0.246919   185A     -0.234241   186A     -0.234208  
     187A     -0.228477   188A     -0.215235   189A     -0.197425  
     190A     -0.197377   191A     -0.135299   192A     -0.135274  

    Virtual:                                                              

     193A      0.096156   194A      0.096224   195A      0.109320  
     196A      0.109329   197A      0.110654   198A      0.111767  
     199A      0.111772   200A      0.118452   201A      0.122592  
     202A      0.133630   203A      0.133631   204A      0.148331  
     205A      0.148334   206A      0.152262   207A      0.152297  
     208A      0.152907   209A      0.156487   210A      0.157486  
     211A      0.157498   212A      0.158572   213A      0.158589  
     214A      0.162382   215A      0.162386   216A      0.164254  
     217A      0.166439   218A      0.168169   219A      0.169216  
     220A      0.171666   221A      0.179206   222A      0.179214  
     223A      0.180566   224A      0.184414   225A      0.189817  
     226A      0.189821   227A      0.192329   228A      0.192334  
     229A      0.193009   230A      0.193033   231A      0.198489  
     232A      0.200753   233A      0.201202   234A      0.204619  
     235A      0.204642   236A      0.207588   237A      0.208364  
     238A      0.215656   239A      0.215659   240A      0.219160  
     241A      0.219172   242A      0.221416   243A      0.221420  
     244A      0.225114   245A      0.225117   246A      0.230627  
     247A      0.236856   248A      0.242483   249A      0.242514  
     250A      0.245930   251A      0.253395   252A      0.253399  
     253A      0.253565   254A      0.256091   255A      0.256110  
     256A      0.259264   257A      0.262807   258A      0.262846  
     259A      0.266640   260A      0.266653   261A      0.267879  
     262A      0.269731   263A      0.269737   264A      0.274130  
     265A      0.274840   266A      0.275587   267A      0.275598  
     268A      0.277217   269A      0.277222   270A      0.278709  
     271A      0.279890   272A      0.281443   273A      0.281475  
     274A      0.282326   275A      0.284527   276A      0.292138  
     277A      0.293644   278A      0.293658   279A      0.294587  
     280A      0.294599   281A      0.297250   282A      0.298524  
     283A      0.298528   284A      0.303892   285A      0.306672  
     286A      0.307437   287A      0.307446   288A      0.311243  
     289A      0.311246   290A      0.314242   291A      0.315776  
     292A      0.321952   293A      0.321980   294A      0.325342  
     295A      0.325350   296A      0.327454   297A      0.328987  
     298A      0.328992   299A      0.335655   300A      0.335685  
     301A      0.339225   302A      0.339281   303A      0.344274  
     304A      0.344279   305A      0.346888   306A      0.346890  
     307A      0.351702   308A      0.358043   309A      0.358056  
     310A      0.360683   311A      0.362166   312A      0.362205  
     313A      0.364567   314A      0.364591   315A      0.366606  
     316A      0.366653   317A      0.368180   318A      0.370747  
     319A      0.374105   320A      0.374125   321A      0.376335  
     322A      0.380756   323A      0.380796   324A      0.381569  
     325A      0.383865   326A      0.383905   327A      0.384714  
     328A      0.387116   329A      0.387153   330A      0.387156  
     331A      0.392392   332A      0.394403   333A      0.394576  
     334A      0.394789   335A      0.394810   336A      0.401644  
     337A      0.403506   338A      0.404416   339A      0.404533  
     340A      0.410910   341A      0.412008   342A      0.412037  
     343A      0.413594   344A      0.414667   345A      0.415906  
     346A      0.415916   347A      0.423085   348A      0.425034  
     349A      0.425041   350A      0.427719   351A      0.427784  
     352A      0.428111   353A      0.435821   354A      0.440874  
     355A      0.440901   356A      0.447282   357A      0.447315  
     358A      0.448552   359A      0.451391   360A      0.451427  
     361A      0.452497   362A      0.455482   363A      0.461081  
     364A      0.461194   365A      0.462368   366A      0.462376  
     367A      0.465425   368A      0.465482   369A      0.466371  
     370A      0.468946   371A      0.471898   372A      0.471966  
     373A      0.472827   374A      0.475525   375A      0.475545  
     376A      0.479577   377A      0.479606   378A      0.479808  
     379A      0.481630   380A      0.481697   381A      0.482761  
     382A      0.482835   383A      0.490359   384A      0.490367  
     385A      0.494378   386A      0.496259   387A      0.496317  
     388A      0.496449   389A      0.499155   390A      0.499251  
     391A      0.502971   392A      0.503276   393A      0.503307  
     394A      0.506191   395A      0.508432   396A      0.508534  
     397A      0.513575   398A      0.514414   399A      0.514915  
     400A      0.515093   401A      0.516903   402A      0.518304  
     403A      0.518499   404A      0.519278   405A      0.525523  
     406A      0.525537   407A      0.528859   408A      0.529941  
     409A      0.529951   410A      0.531976   411A      0.531993  
     412A      0.533756   413A      0.533925   414A      0.540188  
     415A      0.540193   416A      0.543469   417A      0.547668  
     418A      0.547826   419A      0.547843   420A      0.550296  
     421A      0.550337   422A      0.551779   423A      0.554087  
     424A      0.554124   425A      0.554170   426A      0.557039  
     427A      0.558009   428A      0.558048   429A      0.569703  
     430A      0.569766   431A      0.572119   432A      0.573537  
     433A      0.573576   434A      0.576045   435A      0.576061  
     436A      0.578063   437A      0.585711   438A      0.585753  
     439A      0.587185   440A      0.588331   441A      0.593756  
     442A      0.593776   443A      0.595812   444A      0.595909  
     445A      0.609983   446A      0.610312   447A      0.610436  
     448A      0.615324   449A      0.615454   450A      0.616966  
     451A      0.618724   452A      0.624353   453A      0.624554  
     454A      0.624759   455A      0.625207   456A      0.628871  
     457A      0.628907   458A      0.631029   459A      0.632638  
     460A      0.632773   461A      0.635014   462A      0.636115  
     463A      0.638064   464A      0.638129   465A      0.641350  
     466A      0.641737   467A      0.648344   468A      0.648384  
     469A      0.651217   470A      0.654786   471A      0.662508  
     472A      0.662885   473A      0.671769   474A      0.671890  
     475A      0.676524   476A      0.679418   477A      0.682269  
     478A      0.682320   479A      0.691676   480A      0.699301  
     481A      0.699372   482A      0.702740   483A      0.702823  
     484A      0.708168   485A      0.708214   486A      0.721940  
     487A      0.733741   488A      0.733904   489A      0.735226  
     490A      0.736767   491A      0.736785   492A      0.741228  
     493A      0.745655   494A      0.745708   495A      0.753104  
     496A      0.761054   497A      0.761079   498A      0.768905  
     499A      0.799899   500A      0.799918   501A      0.809184  
     502A      0.819934   503A      0.820008   504A      0.820918  
     505A      0.823364   506A      0.825948   507A      0.828484  
     508A      0.828495   509A      0.836210   510A      0.836254  
     511A      0.845172   512A      0.845210   513A      0.855627  
     514A      0.858031   515A      0.860003   516A      0.860214  
     517A      0.874764   518A      0.882800   519A      0.885667  
     520A      0.885732   521A      0.897303   522A      0.897475  
     523A      0.902513   524A      0.902639   525A      0.905393  
     526A      0.905618   527A      0.908712   528A      0.909174  
     529A      0.910235   530A      0.910249   531A      0.915143  
     532A      0.924375   533A      0.937534   534A      0.937539  
     535A      0.945778   536A      0.948031   537A      0.948089  
     538A      0.953819   539A      0.954805   540A      0.954997  
     541A      0.958336   542A      0.958470   543A      0.969114  
     544A      0.969202   545A      0.971883   546A      0.971918  
     547A      0.979774   548A      0.979845   549A      0.985117  
     550A      0.985185   551A      0.987166   552A      0.991942  
     553A      0.992582   554A      0.994706   555A      0.994784  
     556A      0.996528   557A      0.998363   558A      1.001090  
     559A      1.001173   560A      1.004709   561A      1.007369  
     562A      1.007469   563A      1.014892   564A      1.017837  
     565A      1.018065   566A      1.018654   567A      1.024755  
     568A      1.024927   569A      1.027842   570A      1.027965  
     571A      1.033143   572A      1.033179   573A      1.034576  
     574A      1.045191   575A      1.048955   576A      1.051552  
     577A      1.051598   578A      1.054908   579A      1.055243  
     580A      1.056238   581A      1.061788   582A      1.063381  
     583A      1.071065   584A      1.071121   585A      1.075207  
     586A      1.082521   587A      1.082689   588A      1.083131  
     589A      1.091934   590A      1.094201   591A      1.094203  
     592A      1.098043   593A      1.098085   594A      1.098610  
     595A      1.113251   596A      1.113300   597A      1.114494  
     598A      1.118215   599A      1.121063   600A      1.121091  
     601A      1.124102   602A      1.124124   603A      1.127320  
     604A      1.128323   605A      1.128350   606A      1.134215  
     607A      1.136391   608A      1.136444   609A      1.139424  
     610A      1.141020   611A      1.141191   612A      1.141638  
     613A      1.143451   614A      1.143868   615A      1.152398  
     616A      1.152427   617A      1.160412   618A      1.160589  
     619A      1.163290   620A      1.164707   621A      1.168840  
     622A      1.170196   623A      1.170243   624A      1.174839  
     625A      1.181346   626A      1.181378   627A      1.183526  
     628A      1.183563   629A      1.185660   630A      1.185736  
     631A      1.195548   632A      1.195683   633A      1.196673  
     634A      1.196709   635A      1.198061   636A      1.198071  
     637A      1.202283   638A      1.207228   639A      1.211223  
     640A      1.217125   641A      1.222188   642A      1.222502  
     643A      1.225366   644A      1.225462   645A      1.227616  
     646A      1.229137   647A      1.233426   648A      1.233549  
     649A      1.233635   650A      1.238342   651A      1.238459  
     652A      1.239026   653A      1.246097   654A      1.261320  
     655A      1.261425   656A      1.261446   657A      1.274221  
     658A      1.274312   659A      1.276197   660A      1.278428  
     661A      1.278587   662A      1.284004   663A      1.285563  
     664A      1.285682   665A      1.300776   666A      1.301658  
     667A      1.301674   668A      1.305632   669A      1.305992  
     670A      1.306119   671A      1.318289   672A      1.318388  
     673A      1.319864   674A      1.319921   675A      1.320061  
     676A      1.322537   677A      1.340526   678A      1.340723  
     679A      1.340913   680A      1.343064   681A      1.343125  
     682A      1.347432   683A      1.347540   684A      1.349831  
     685A      1.349905   686A      1.358178   687A      1.360247  
     688A      1.377777   689A      1.380400   690A      1.381077  
     691A      1.382176   692A      1.389246   693A      1.389282  
     694A      1.390554   695A      1.393859   696A      1.393948  
     697A      1.405092   698A      1.406929   699A      1.406946  
     700A      1.409397   701A      1.409407   702A      1.412102  
     703A      1.412168   704A      1.417380   705A      1.422967  
     706A      1.425853   707A      1.425953   708A      1.429001  
     709A      1.438105   710A      1.442306   711A      1.442353  
     712A      1.443972   713A      1.443997   714A      1.446383  
     715A      1.446416   716A      1.459417   717A      1.461294  
     718A      1.461336   719A      1.468535   720A      1.468606  
     721A      1.476286   722A      1.477429   723A      1.486897  
     724A      1.486933   725A      1.495005   726A      1.495026  
     727A      1.501699   728A      1.505203   729A      1.505218  
     730A      1.507159   731A      1.516216   732A      1.516509  
     733A      1.516686   734A      1.519198   735A      1.520139  
     736A      1.520154   737A      1.524155   738A      1.531229  
     739A      1.531551   740A      1.531605   741A      1.534200  
     742A      1.550685   743A      1.550759   744A      1.557683  
     745A      1.557744   746A      1.581863   747A      1.582136  
     748A      1.601133   749A      1.601228   750A      1.606810  
     751A      1.617622   752A      1.617644   753A      1.636472  
     754A      1.638229   755A      1.665623   756A      1.674651  
     757A      1.674783   758A      1.680816   759A      1.690664  
     760A      1.690969   761A      1.706866   762A      1.707023  
     763A      1.707203   764A      1.713270   765A      1.713350  
     766A      1.715756   767A      1.723547   768A      1.723578  
     769A      1.727786   770A      1.730270   771A      1.730555  
     772A      1.730694   773A      1.734974   774A      1.737374  
     775A      1.737685   776A      1.745184   777A      1.745299  
     778A      1.745686   779A      1.745722   780A      1.747563  
     781A      1.751665   782A      1.759680   783A      1.759691  
     784A      1.763499   785A      1.766704   786A      1.766760  
     787A      1.767532   788A      1.775569   789A      1.777841  
     790A      1.777859   791A      1.779398   792A      1.783970  
     793A      1.784012   794A      1.785159   795A      1.794742  
     796A      1.794763   797A      1.800451   798A      1.800465  
     799A      1.826520   800A      1.835008   801A      1.837950  
     802A      1.840301   803A      1.843000   804A      1.843013  
     805A      1.845835   806A      1.860777   807A      1.860804  
     808A      1.876319   809A      1.876330   810A      1.898529  
     811A      1.898553   812A      1.899361   813A      1.904498  
     814A      1.904535   815A      1.914731   816A      1.914813  
     817A      1.926575   818A      1.928352   819A      1.935137  
     820A      1.937051   821A      1.941950   822A      1.941955  
     823A      1.948907   824A      1.951484   825A      1.951528  
     826A      1.954611   827A      1.958285   828A      1.958357  
     829A      1.967793   830A      1.979868   831A      1.980077  
     832A      1.981666   833A      1.988907   834A      1.989051  
     835A      1.992826   836A      1.992946   837A      2.002349  
     838A      2.002463   839A      2.004335   840A      2.004419  
     841A      2.004650   842A      2.009946   843A      2.009998  
     844A      2.017273   845A      2.022837   846A      2.023462  
     847A      2.023619   848A      2.025977   849A      2.026027  
     850A      2.039074   851A      2.039160   852A      2.042770  
     853A      2.048823   854A      2.048883   855A      2.054514  
     856A      2.054668   857A      2.068780   858A      2.076394  
     859A      2.081234   860A      2.081563   861A      2.081869  
     862A      2.086225   863A      2.087338   864A      2.087652  
     865A      2.092332   866A      2.095212   867A      2.095727  
     868A      2.095969   869A      2.103248   870A      2.113463  
     871A      2.114196   872A      2.115345   873A      2.116375  
     874A      2.119176   875A      2.119563   876A      2.128738  
     877A      2.128876   878A      2.135270   879A      2.148304  
     880A      2.148639   881A      2.148775   882A      2.148892  
     883A      2.158386   884A      2.159497   885A      2.159754  
     886A      2.160840   887A      2.164510   888A      2.164567  
     889A      2.176301   890A      2.176508   891A      2.176588  
     892A      2.177712   893A      2.179999   894A      2.182031  
     895A      2.186984   896A      2.187219   897A      2.187378  
     898A      2.188336   899A      2.188817   900A      2.188921  
     901A      2.192426   902A      2.194769   903A      2.194841  
     904A      2.198513   905A      2.198543   906A      2.204744  
     907A      2.204828   908A      2.207892   909A      2.210456  
     910A      2.210555   911A      2.218476   912A      2.218742  
     913A      2.218931   914A      2.225479   915A      2.225516  
     916A      2.230708   917A      2.233634   918A      2.233805  
     919A      2.242645   920A      2.242708   921A      2.250494  
     922A      2.250520   923A      2.257523   924A      2.261576  
     925A      2.263567   926A      2.263696   927A      2.269249  
     928A      2.269412   929A      2.274351   930A      2.279425  
     931A      2.296082   932A      2.297773   933A      2.297825  
     934A      2.299492   935A      2.304808   936A      2.306044  
     937A      2.306119   938A      2.311216   939A      2.315948  
     940A      2.316403   941A      2.320876   942A      2.325493  
     943A      2.325786   944A      2.328537   945A      2.329515  
     946A      2.329711   947A      2.338870   948A      2.339007  
     949A      2.343647   950A      2.343817   951A      2.353407  
     952A      2.353415   953A      2.356254   954A      2.356322  
     955A      2.357905   956A      2.360218   957A      2.383415  
     958A      2.389624   959A      2.395405   960A      2.397310  
     961A      2.407305   962A      2.407569   963A      2.418434  
     964A      2.423101   965A      2.424490   966A      2.432802  
     967A      2.433210   968A      2.439780   969A      2.440298  
     970A      2.444525   971A      2.456343   972A      2.456631  
     973A      2.464658   974A      2.487167   975A      2.498948  
     976A      2.502138   977A      2.502214   978A      2.508893  
     979A      2.508951   980A      2.509057   981A      2.518732  
     982A      2.544629   983A      2.545032   984A      2.555330  
     985A      2.570884   986A      2.570935   987A      2.587577  
     988A      2.589201   989A      2.589926   990A      2.607302  
     991A      2.616781   992A      2.623183   993A      2.632235  
     994A      2.632283   995A      2.633564   996A      2.633578  
     997A      2.640381   998A      2.644443   999A      2.647469  
    1000A      2.647481  1001A      2.656201  1002A      2.656477  
    1003A      2.658315  1004A      2.658323  1005A      2.671583  
    1006A      2.675713  1007A      2.676499  1008A      2.676855  
    1009A      2.685009  1010A      2.691417  1011A      2.716078  
    1012A      2.716562  1013A      2.721704  1014A      2.721927  
    1015A      2.725249  1016A      2.725423  1017A      2.737924  
    1018A      2.738061  1019A      2.739200  1020A      2.741495  
    1021A      2.767316  1022A      2.772526  1023A      2.773313  
    1024A      2.776102  1025A      2.786986  1026A      2.787125  
    1027A      2.799221  1028A      2.799607  1029A      2.799659  
    1030A      2.807301  1031A      2.807358  1032A      2.809399  
    1033A      2.809590  1034A      2.841670  1035A      2.842130  
    1036A      2.864508  1037A      2.882803  1038A      2.882847  
    1039A      2.898558  1040A      2.913808  1041A      2.915319  
    1042A      2.916125  1043A      2.941809  1044A      2.941951  
    1045A      2.946346  1046A      2.947615  1047A      2.947695  
    1048A      2.949163  1049A      3.000388  1050A      3.000398  
    1051A      3.001882  1052A      3.021006  1053A      3.021043  
    1054A      3.041255  1055A      3.041329  1056A      3.046623  
    1057A      3.051248  1058A      3.087094  1059A      3.087251  
    1060A      3.092136  1061A      3.134624  1062A      3.153100  
    1063A      3.153213  1064A      3.153553  1065A      3.153659  
    1066A      3.169349  1067A      3.169501  1068A      3.202339  
    1069A      3.202742  1070A      3.210385  1071A      3.218116  
    1072A      3.218325  1073A      3.220801  1074A      3.231623  
    1075A      3.231651  1076A      3.233665  1077A      3.233718  
    1078A      3.235827  1079A      3.243649  1080A      3.243759  
    1081A      3.252178  1082A      3.252642  1083A      3.272734  
    1084A      3.291614  1085A      3.308688  1086A      3.320073  
    1087A      3.356510  1088A      3.362825  1089A      3.363512  
    1090A      3.372012  1091A      3.378038  1092A      3.378715  
    1093A      3.508376  1094A      3.508648  1095A      3.511777  
    1096A      3.577280  1097A      3.579217  1098A      3.593204  
    1099A      3.671583  1100A      3.677498  1101A      3.678978  
    1102A      3.686690  1103A      3.716764  1104A      3.718369  
    1105A      3.758619  1106A      3.780195  1107A      3.857034  
    1108A      3.879991  1109A      3.880745  1110A      3.954093  
    1111A      3.954122  1112A      3.997385  1113A      3.997427  
    1114A      4.066181  1115A      4.100172  1116A      4.147858  
    1117A      4.150610  1118A      4.156070  1119A      4.177013  
    1120A      4.190449  1121A      4.190533  1122A      4.198949  
    1123A      4.199756  1124A      4.235531  1125A      4.237499  
    1126A      4.288792  1127A      4.325425  1128A      4.343808  
    1129A      4.344376  1130A      4.438681  1131A      4.439087  
    1132A      4.443193  1133A      4.638122  1134A      4.647721  
    1135A      4.647770  1136A      4.737960  1137A      4.759796  
    1138A      4.760160  

    Final Occupation by Irrep:
              A 
    DOCC [   192 ]
    NA   [   192 ]
    NB   [   192 ]

  @DF-RHF Final Energy: -2478.57131719625704

   => Energetics <=

    Nuclear Repulsion Energy =           8027.7304725591739043
    One-Electron Energy =              -19414.4930922913445102
    Two-Electron Energy =                8908.1913025359135645
    Total Energy =                      -2478.5713171962561319

Computation Completed


Properties will be evaluated at   0.000000,   0.000000,   0.000000 [a0]

Properties computed using the SCF density matrix


 Multipole Moments:

 ------------------------------------------------------------------------------------
     Multipole            Electronic (a.u.)      Nuclear  (a.u.)        Total (a.u.)
 ------------------------------------------------------------------------------------

 L = 1.  Multiply by 2.5417464519 to convert [e a0] to [Debye]
 Dipole X            :         -0.0004280            0.0000481           -0.0003799
 Dipole Y            :          0.0007901           -0.0001453            0.0006448
 Dipole Z            :        -15.4612928           19.0041895            3.5428967
 Magnitude           :                                                    3.5428967

 ------------------------------------------------------------------------------------

*** tstop() called on n2cn0220.ab2021.local at Wed Feb  7 17:06:35 2024
Module time:
	user time   =    4561.43 seconds =      76.02 minutes
	system time =     321.22 seconds =       5.35 minutes
	total time  =        412 seconds =       6.87 minutes
Total time:
	user time   =    4561.43 seconds =      76.02 minutes
	system time =     321.22 seconds =       5.35 minutes
	total time  =        412 seconds =       6.87 minutes

  //>>>>>>>>>>>>>>>>>>>>>>>>>>>>>>>>>>>//
  //            Monomer A HF           //
  //<<<<<<<<<<<<<<<<<<<<<<<<<<<<<<<<<<<//

   => Libint2 <=

    Primary   basis highest AM E, G, H:  5, 4, 3
    Auxiliary basis highest AM E, G, H:  6, 5, 4
    Onebody   basis highest AM E, G, H:  6, 5, 4
    Solid Harmonics ordering:            gaussian

*** tstart() called on n2cn0220.ab2021.local
*** at Wed Feb  7 17:06:35 2024

   => Loading Basis Set <=

    Name: JUN-CC-PVDZ
    Role: ORBITAL
    Keyword: BASIS
    atoms 1     entry B          line   130 file /opt/software/pc2/EB-SW/software/PSI4/1.9-foss-2022a/share/psi4/basis/jun-cc-pvdz.gbs 
    atoms 2-5   entry F          line   266 file /opt/software/pc2/EB-SW/software/PSI4/1.9-foss-2022a/share/psi4/basis/jun-cc-pvdz.gbs 
    atoms 6-59  entry C          line   164 file /opt/software/pc2/EB-SW/software/PSI4/1.9-foss-2022a/share/psi4/basis/jun-cc-pvdz.gbs 
    atoms 60-77 entry H          line    36 file /opt/software/pc2/EB-SW/software/PSI4/1.9-foss-2022a/share/psi4/basis/jun-cc-pvdz.gbs 


         ---------------------------------------------------------
                                   SCF
               by Justin Turney, Rob Parrish, Andy Simmonett
                          and Daniel G. A. Smith
                              RHF Reference
                       16 Threads,  45776 MiB Core
         ---------------------------------------------------------

  ==> Geometry <==

    Molecular point group: c1
    Full point group: C1

    Geometry (in Angstrom), charge = -1, multiplicity = 1:

       Center              X                  Y                   Z               Mass       
    ------------   -----------------  -----------------  -----------------  -----------------
         B           -0.000198161052     0.000273808717    -2.741852818387    11.009305360000
         F           -0.000000401852    -0.000000464183    -1.329067818387    18.998403162730
         F            1.147859598148     0.675780735817    -3.212993818387    18.998403162730
         F            0.011917658148    -1.332011464183    -3.212791818387    18.998403162730
         F           -1.159666401852     0.656073035817    -3.212712818387    18.998403162730
      Gh(C)           1.225311973413     0.707538196736     0.364250808897    12.000000000000
      Gh(C)           1.225323934041    -0.707538986754     0.351919999327    12.000000000000
      Gh(C)          -0.000006075942     1.414965821907     0.351386375806    12.000000000000
      Gh(C)           2.456448831939     1.418327794995     0.367137666297    12.000000000000
      Gh(C)           0.000010905269    -1.414976590818     0.361585933130    12.000000000000
      Gh(C)          -1.225300870919     0.707545281801     0.366502329219    12.000000000000
      Gh(C)           2.456437833310    -1.418323396064     0.349674842470    12.000000000000
      Gh(C)          -0.000001254988     2.836800939098     0.348982825672    12.000000000000
      Gh(C)           3.681826775460     0.709317863818     0.350023632268    12.000000000000
      Gh(C)           2.455120126855     2.834223569306     0.349921075307    12.000000000000
      Gh(C)           3.681821183209    -0.709333931612     0.366096116286    12.000000000000
      Gh(C)          -1.225313520698    -0.707527607727     0.352992760754    12.000000000000
      Gh(C)           1.226699659192     3.543469391811     0.366280148217    12.000000000000
      Gh(C)           0.000004862847    -2.836782231419     0.366434100752    12.000000000000
      Gh(C)          -2.456435954859     1.418316826102     0.366537725065    12.000000000000
      Gh(C)           2.455123495769    -2.834230120772     0.365944207918    12.000000000000
      Gh(C)          -1.226714286599     3.543468971567     0.366383481436    12.000000000000
      Gh(C)           4.914517373191     1.427172780306     0.356504315297    12.000000000000
      Gh(C)           3.693150269466     3.542795200362     0.356554114933    12.000000000000
      Gh(C)          -2.456437522078    -1.418313373022     0.349649804345    12.000000000000
      Gh(C)           1.226704919933    -3.543474334090     0.350310017467    12.000000000000
      Gh(C)          -2.455125320518     2.834216570451     0.349927451653    12.000000000000
      Gh(C)           4.914524458772    -1.427187002127     0.359477058032    12.000000000000
      Gh(C)           1.221424691688     4.970133973077     0.359615492291    12.000000000000
      Gh(C)           4.893008307311     2.825187907843     0.357720983656    12.000000000000
      Gh(C)          -1.226696930499    -3.543471089260     0.350577221877    12.000000000000
      Gh(C)          -3.681818898536     0.709324874549     0.350036312748    12.000000000000
      Gh(C)           3.693147179140    -3.542801433574     0.359594948593    12.000000000000
      Gh(C)          -1.221432174004     4.970128205680     0.359798987664    12.000000000000
      Gh(C)           6.134771050916     0.680547854922     0.357274089847    12.000000000000
      Gh(C)           3.656788958600     4.972953151384     0.357462752716    12.000000000000
      Gh(C)          -2.455126829744    -2.834215185244     0.365699850120    12.000000000000
      Gh(C)          -3.681819101071    -0.709325795652     0.366213737865    12.000000000000
      Gh(C)           4.893012695903    -2.825200197815     0.358332135551    12.000000000000
      Gh(C)          -0.000000995123     5.650447273849     0.358567678957    12.000000000000
      Gh(C)           6.134775190322    -0.680554946258     0.358539410363    12.000000000000
      Gh(C)           2.478131560845     5.653576659148     0.358751532366    12.000000000000
      Gh(C)           1.221422482727    -4.970127147116     0.356815995269    12.000000000000
      Gh(C)          -3.693162305975     3.542796862009     0.356719622393    12.000000000000
      Gh(C)          -1.221428442955    -4.970118395779     0.356703233436    12.000000000000
      Gh(C)          -4.914521729952     1.427175354812     0.356581260305    12.000000000000
      Gh(C)           3.656787097669    -4.972955318422     0.358913253250    12.000000000000
      Gh(C)          -2.478138452116     5.653574330345     0.359036057374    12.000000000000
      Gh(C)          -3.693141660574    -3.542790311162     0.359478822437    12.000000000000
      Gh(C)          -4.914512405063    -1.427181092211     0.359511755205    12.000000000000
      Gh(C)          -0.000005930936    -5.650438379197     0.358172174836    12.000000000000
      Gh(C)          -4.893020406111     2.825188506736     0.357710901796    12.000000000000
      Gh(C)           2.478126071288    -5.653573636072     0.357822652458    12.000000000000
      Gh(C)          -3.656798632268     4.972956089858     0.357639433091    12.000000000000
      Gh(C)          -4.892999400866    -2.825191859243     0.358178099854    12.000000000000
      Gh(C)          -2.478128420093    -5.653566262190     0.357547464810    12.000000000000
      Gh(C)          -6.134770425341     0.680548674073     0.357248538145    12.000000000000
      Gh(C)          -3.656788755199    -4.972944115154     0.358698965433    12.000000000000
      Gh(C)          -6.134764964923    -0.680554007665     0.358518934568    12.000000000000
      Gh(H)           5.835288573806     3.369275802771     0.362080309319     1.007825032230
      Gh(H)           7.073859250737     1.228217156716     0.357735733240     1.007825032230
      Gh(H)           4.600663342164     5.512380710270     0.357967953468     1.007825032230
      Gh(H)           5.835283465295    -3.369306148912     0.353877668237     1.007825032230
      Gh(H)          -0.000012073316     6.738530581953     0.354218433949     1.007825032230
      Gh(H)           7.073861249820    -1.228227034927     0.358030672268     1.007825032230
      Gh(H)           2.473313809789     6.740684199211     0.358284811435     1.007825032230
      Gh(H)           4.600668569371    -5.512376221359     0.358503256082     1.007825032230
      Gh(H)          -2.473318602548     6.740681627423     0.358586158060     1.007825032230
      Gh(H)          -0.000010190238    -6.738528268635     0.362701859821     1.007825032230
      Gh(H)          -5.835301836354     3.369270858113     0.362216331467     1.007825032230
      Gh(H)           2.473308001821    -6.740685466612     0.358392982883     1.007825032230
      Gh(H)          -4.600674763218     5.512377934420     0.358133281792     1.007825032230
      Gh(H)          -5.835279428845    -3.369289055963     0.353598362356     1.007825032230
      Gh(H)          -2.473300269450    -6.740679170323     0.357943666338     1.007825032230
      Gh(H)          -7.073857688778     1.228220380657     0.357651741759     1.007825032230
      Gh(H)          -4.600673708095    -5.512362761970     0.358330948059     1.007825032230
      Gh(H)          -7.073856856419    -1.228220724160     0.357935815802     1.007825032230

  Running in c1 symmetry.

  Rotational constants: A =      0.00200  B =      0.00200  C =      0.00110 [cm^-1]
  Rotational constants: A =     59.86808  B =     59.85979  C =     33.02251 [MHz]
  Nuclear repulsion =  178.879455044809077

  Charge       = -1
  Multiplicity = 1
  Electrons    = 42
  Nalpha       = 21
  Nbeta        = 21

  ==> Algorithm <==

  SCF Algorithm Type is DF.
  DIIS enabled.
  MOM disabled.
  Fractional occupation disabled.
  Guess Type is SAD.
  Energy threshold   = 1.00e-08
  Density threshold  = 1.00e-08
  Integral threshold = 1.00e-12

  ==> Primary Basis <==

  Basis Set: JUN-CC-PVDZ
    Blend: JUN-CC-PVDZ
    Number of shells: 526
    Number of basis functions: 1152
    Number of Cartesian functions: 1211
    Spherical Harmonics?: true
    Max angular momentum: 2

   => Loading Basis Set <=

    Name: (JUN-CC-PVDZ AUX)
    Role: JKFIT
    Keyword: DF_BASIS_SCF
    atoms 1     entry B          line    90 file /opt/software/pc2/EB-SW/software/PSI4/1.9-foss-2022a/share/psi4/basis/jun-cc-pvdz-jkfit.gbs 
    atoms 2-5   entry F          line   314 file /opt/software/pc2/EB-SW/software/PSI4/1.9-foss-2022a/share/psi4/basis/jun-cc-pvdz-jkfit.gbs 
    atoms 6-59  entry C          line   146 file /opt/software/pc2/EB-SW/software/PSI4/1.9-foss-2022a/share/psi4/basis/jun-cc-pvdz-jkfit.gbs 
    atoms 60-77 entry H          line    70 file /opt/software/pc2/EB-SW/software/PSI4/1.9-foss-2022a/share/psi4/basis/jun-cc-pvdz-jkfit.gbs 

  ==> Integral Setup <==

  ==> DiskDFJK: Density-Fitted J/K Matrices <==

    J tasked:                  Yes
    K tasked:                  Yes
    wK tasked:                  No
    OpenMP threads:             16
    Integrals threads:          16
    Memory [MiB]:            34332
    Algorithm:                Core
    Integral Cache:           LOAD
    Schwarz Cutoff:          1E-12
    Fitting Condition:       1E-10

   => Auxiliary Basis Set <=

  Basis Set: (JUN-CC-PVDZ AUX)
    Blend: JUN-CC-PVDZ-JKFIT
    Number of shells: 1755
    Number of basis functions: 5075
    Number of Cartesian functions: 5819
    Spherical Harmonics?: true
    Max angular momentum: 3

  Minimum eigenvalue in the overlap matrix is 7.6915089837E-10.
  Reciprocal condition number of the overlap matrix is 3.1891414495E-11.
    Using canonical orthogonalization.
  Overall, 14 of 1152 possible MOs eliminated.


  ==> Pre-Iterations <==

  SCF Guess: Superposition of Atomic Densities via on-the-fly atomic UHF (no occupation information).

   -------------------------
    Irrep   Nso     Nmo    
   -------------------------
     A       1152    1138 
   -------------------------
    Total    1152    1138
   -------------------------

  ==> Iterations <==

                           Total Energy        Delta E     RMS |[F,P]|

   @DF-RHF iter SAD:  -421.23045934923886   -4.21230e+02   0.00000e+00 
   @DF-RHF iter   1:  -422.65287640743486   -1.42242e+00   5.30873e-04 ADIIS/DIIS
   @DF-RHF iter   2:  -422.73585170490952   -8.29753e-02   3.24093e-04 ADIIS/DIIS
   @DF-RHF iter   3:  -422.77426440325235   -3.84127e-02   1.75509e-05 DIIS
   @DF-RHF iter   4:  -422.77462797478449   -3.63572e-04   2.81706e-06 DIIS
   @DF-RHF iter   5:  -422.77463680601568   -8.83123e-06   7.48112e-07 DIIS
   @DF-RHF iter   6:  -422.77463743038516   -6.24369e-07   1.72024e-07 DIIS
   @DF-RHF iter   7:  -422.77463745561556   -2.52304e-08   5.88082e-08 DIIS
   @DF-RHF iter   8:  -422.77463745718848   -1.57291e-09   7.95026e-09 DIIS
  Energy and wave function converged.


  ==> Post-Iterations <==

    Orbital Energies [Eh]
    ---------------------

    Doubly Occupied:                                                      

       1A    -26.067545     2A    -26.066926     3A    -26.066833  
       4A    -26.066748     5A     -7.538016     6A     -1.410205  
       7A     -1.350804     8A     -1.350643     9A     -1.350182  
      10A     -0.601520    11A     -0.527783    12A     -0.527723  
      13A     -0.527692    14A     -0.446575    15A     -0.446533  
      16A     -0.408024    17A     -0.407911    18A     -0.407827  
      19A     -0.384583    20A     -0.384265    21A     -0.384203  

    Virtual:                                                              

      22A      0.093220    23A      0.093779    24A      0.093785  
      25A      0.100054    26A      0.100058    27A      0.111171  
      28A      0.111801    29A      0.127192    30A      0.127193  
      31A      0.127897    32A      0.137544    33A      0.137549  
      34A      0.145035    35A      0.145043    36A      0.147934  
      37A      0.150386    38A      0.150395    39A      0.152345  
      40A      0.152358    41A      0.162710    42A      0.162714  
      43A      0.164219    44A      0.166269    45A      0.166352  
      46A      0.171960    47A      0.173496    48A      0.179511  
      49A      0.179774    50A      0.182599    51A      0.184221  
      52A      0.184226    53A      0.190742    54A      0.190749  
      55A      0.191376    56A      0.191400    57A      0.197128  
      58A      0.197161    59A      0.203738    60A      0.203748  
      61A      0.204446    62A      0.206212    63A      0.206225  
      64A      0.208322    65A      0.208328    66A      0.211003  
      67A      0.215053    68A      0.215055    69A      0.217747  
      70A      0.217762    71A      0.221377    72A      0.224798  
      73A      0.224805    74A      0.226510    75A      0.227331  
      76A      0.235439    77A      0.235460    78A      0.235917  
      79A      0.238976    80A      0.238993    81A      0.239645  
      82A      0.239649    83A      0.244432    84A      0.247139  
      85A      0.247145    86A      0.248143    87A      0.251891  
      88A      0.251973    89A      0.259458    90A      0.260299  
      91A      0.260317    92A      0.261786    93A      0.266106  
      94A      0.271162    95A      0.271165    96A      0.272667  
      97A      0.275772    98A      0.278777    99A      0.278796  
     100A      0.281289   101A      0.281301   102A      0.283934  
     103A      0.283945   104A      0.285863   105A      0.285872  
     106A      0.289573   107A      0.290109   108A      0.290113  
     109A      0.295941   110A      0.298514   111A      0.302488  
     112A      0.302503   113A      0.306418   114A      0.306427  
     115A      0.313539   116A      0.313552   117A      0.313708  
     118A      0.314316   119A      0.314425   120A      0.314442  
     121A      0.318225   122A      0.323135   123A      0.328173  
     124A      0.328186   125A      0.328894   126A      0.328899  
     127A      0.331724   128A      0.331736   129A      0.332165  
     130A      0.340356   131A      0.340380   132A      0.341668  
     133A      0.344210   134A      0.344236   135A      0.350258  
     136A      0.350290   137A      0.350735   138A      0.354968  
     139A      0.356097   140A      0.356119   141A      0.357053  
     142A      0.359324   143A      0.359330   144A      0.362308  
     145A      0.362318   146A      0.366212   147A      0.375635  
     148A      0.375999   149A      0.384695   150A      0.388697  
     151A      0.388716   152A      0.391046   153A      0.391115  
     154A      0.391134   155A      0.395813   156A      0.395860  
     157A      0.398092   158A      0.404775   159A      0.404779  
     160A      0.404916   161A      0.410139   162A      0.411398  
     163A      0.411402   164A      0.413549   165A      0.413592  
     166A      0.414756   167A      0.417703   168A      0.425071  
     169A      0.429892   170A      0.430056   171A      0.433732  
     172A      0.433745   173A      0.436794   174A      0.440891  
     175A      0.441565   176A      0.441600   177A      0.444046  
     178A      0.445613   179A      0.445681   180A      0.447339  
     181A      0.447404   182A      0.449089   183A      0.449710  
     184A      0.449799   185A      0.456127   186A      0.459983  
     187A      0.460169   188A      0.462735   189A      0.465619  
     190A      0.465702   191A      0.466185   192A      0.468103  
     193A      0.468188   194A      0.472564   195A      0.472595  
     196A      0.481664   197A      0.481733   198A      0.486124  
     199A      0.486215   200A      0.492457   201A      0.492490  
     202A      0.493132   203A      0.501760   204A      0.503212  
     205A      0.503301   206A      0.503315   207A      0.507350  
     208A      0.507723   209A      0.512836   210A      0.512875  
     211A      0.518609   212A      0.519284   213A      0.519323  
     214A      0.519932   215A      0.519999   216A      0.521484  
     217A      0.522708   218A      0.522746   219A      0.526534  
     220A      0.528641   221A      0.528684   222A      0.532481  
     223A      0.533500   224A      0.533587   225A      0.536847  
     226A      0.538316   227A      0.538376   228A      0.538787  
     229A      0.552557   230A      0.552800   231A      0.554764  
     232A      0.554969   233A      0.555254   234A      0.559555  
     235A      0.565623   236A      0.565631   237A      0.566827  
     238A      0.568121   239A      0.568233   240A      0.569147  
     241A      0.569955   242A      0.570029   243A      0.574363  
     244A      0.574410   245A      0.580741   246A      0.585900  
     247A      0.588779   248A      0.588826   249A      0.596223  
     250A      0.596252   251A      0.596466   252A      0.599363  
     253A      0.602615   254A      0.602708   255A      0.603199  
     256A      0.608079   257A      0.608148   258A      0.609524  
     259A      0.612036   260A      0.613075   261A      0.613170  
     262A      0.615826   263A      0.615866   264A      0.616336  
     265A      0.620406   266A      0.622903   267A      0.637454  
     268A      0.637539   269A      0.639209   270A      0.643691  
     271A      0.643729   272A      0.647516   273A      0.648197  
     274A      0.648289   275A      0.650193   276A      0.650264  
     277A      0.657812   278A      0.659710   279A      0.660297  
     280A      0.663287   281A      0.663297   282A      0.671304  
     283A      0.671346   284A      0.679199   285A      0.679221  
     286A      0.680752   287A      0.680783   288A      0.685068  
     289A      0.691916   290A      0.692332   291A      0.692412  
     292A      0.696801   293A      0.696817   294A      0.698711  
     295A      0.698725   296A      0.699652   297A      0.708473  
     298A      0.708514   299A      0.713426   300A      0.718080  
     301A      0.722087   302A      0.722142   303A      0.722460  
     304A      0.723978   305A      0.723999   306A      0.726166  
     307A      0.730457   308A      0.732298   309A      0.740058  
     310A      0.742418   311A      0.742441   312A      0.747698  
     313A      0.749760   314A      0.749837   315A      0.751287  
     316A      0.754341   317A      0.754354   318A      0.758075  
     319A      0.761915   320A      0.761948   321A      0.766940  
     322A      0.766956   323A      0.772396   324A      0.774493  
     325A      0.781567   326A      0.781671   327A      0.784955  
     328A      0.787792   329A      0.787941   330A      0.788031  
     331A      0.791487   332A      0.796327   333A      0.796369  
     334A      0.798124   335A      0.798170   336A      0.812825  
     337A      0.812899   338A      0.817568   339A      0.817680  
     340A      0.827714   341A      0.829905   342A      0.829983  
     343A      0.830913   344A      0.830950   345A      0.832564  
     346A      0.838642   347A      0.840467   348A      0.845354  
     349A      0.845371   350A      0.854721   351A      0.854846  
     352A      0.859082   353A      0.861275   354A      0.861309  
     355A      0.865942   356A      0.865986   357A      0.873549  
     358A      0.878836   359A      0.879630   360A      0.879672  
     361A      0.881190   362A      0.882756   363A      0.882822  
     364A      0.887108   365A      0.887840   366A      0.891622  
     367A      0.891636   368A      0.895588   369A      0.897448  
     370A      0.904107   371A      0.904120   372A      0.905366  
     373A      0.905371   374A      0.917884   375A      0.917903  
     376A      0.920876   377A      0.929941   378A      0.939125  
     379A      0.939133   380A      0.953593   381A      0.963710  
     382A      0.970162   383A      0.970926   384A      0.970965  
     385A      0.975302   386A      0.975374   387A      0.987727  
     388A      0.987771   389A      0.989993   390A      0.990269  
     391A      0.990316   392A      0.992048   393A      0.992133  
     394A      0.996876   395A      1.001773   396A      1.001882  
     397A      1.033554   398A      1.042791   399A      1.042808  
     400A      1.049264   401A      1.049336   402A      1.056626  
     403A      1.059281   404A      1.059310   405A      1.064529  
     406A      1.068508   407A      1.072533   408A      1.072567  
     409A      1.084053   410A      1.084076   411A      1.105984  
     412A      1.109759   413A      1.120356   414A      1.143395  
     415A      1.143418   416A      1.151783   417A      1.151807  
     418A      1.152276   419A      1.156748   420A      1.156779  
     421A      1.167476   422A      1.169669   423A      1.169696  
     424A      1.186023   425A      1.186044   426A      1.188355  
     427A      1.206220   428A      1.249414   429A      1.257991  
     430A      1.258093   431A      1.260252   432A      1.260275  
     433A      1.266911   434A      1.266927   435A      1.292891  
     436A      1.292916   437A      1.293676   438A      1.316114  
     439A      1.316121   440A      1.322866   441A      1.330857  
     442A      1.335007   443A      1.390582   444A      1.400677  
     445A      1.400700   446A      1.401593   447A      1.401650  
     448A      1.408620   449A      1.416235   450A      1.416269  
     451A      1.428888   452A      1.440062   453A      1.440176  
     454A      1.440274   455A      1.450016   456A      1.470239  
     457A      1.470318   458A      1.531545   459A      1.557572  
     460A      1.557739   461A      1.568349   462A      1.568395  
     463A      1.576630   464A      1.577991   465A      1.578324  
     466A      1.589430   467A      1.590042   468A      1.636558  
     469A      1.640251   470A      1.654668   471A      1.655040  
     472A      1.655192   473A      1.663323   474A      1.663557  
     475A      1.677790   476A      1.686007   477A      1.686090  
     478A      1.696796   479A      1.740376   480A      1.741260  
     481A      1.748035   482A      1.761047   483A      1.769985  
     484A      1.770083   485A      1.781322   486A      1.790800  
     487A      1.791024   488A      1.802378   489A      1.815901  
     490A      1.815972   491A      1.828097   492A      1.837097  
     493A      1.838509   494A      1.839335   495A      1.840101  
     496A      1.840856   497A      1.847613   498A      1.848072  
     499A      1.860457   500A      1.864752   501A      1.868396  
     502A      1.868444   503A      1.878995   504A      1.880529  
     505A      1.884998   506A      1.889304   507A      1.889979  
     508A      1.913148   509A      1.916098   510A      1.916522  
     511A      1.921110   512A      1.921993   513A      1.922304  
     514A      1.928132   515A      1.928375   516A      1.932991  
     517A      1.934118   518A      1.934185   519A      1.937779  
     520A      1.940996   521A      1.941608   522A      1.942363  
     523A      1.942441   524A      1.947078   525A      1.968495  
     526A      1.970572   527A      1.976811   528A      1.981601  
     529A      1.982145   530A      1.983176   531A      1.983631  
     532A      1.985768   533A      1.986230   534A      1.992585  
     535A      1.996083   536A      1.996825   537A      2.008016  
     538A      2.008180   539A      2.015689   540A      2.018552  
     541A      2.019226   542A      2.021311   543A      2.021673  
     544A      2.022020   545A      2.032084   546A      2.032274  
     547A      2.035152   548A      2.037267   549A      2.047664  
     550A      2.047722   551A      2.059328   552A      2.059341  
     553A      2.067027   554A      2.072865   555A      2.072937  
     556A      2.076985   557A      2.077431   558A      2.084479  
     559A      2.088014   560A      2.088285   561A      2.088589  
     562A      2.089930   563A      2.091553   564A      2.091750  
     565A      2.097042   566A      2.098136   567A      2.105301  
     568A      2.105527   569A      2.115326   570A      2.115414  
     571A      2.127599   572A      2.127675   573A      2.145477  
     574A      2.153853   575A      2.154158   576A      2.168527  
     577A      2.169026   578A      2.169116   579A      2.171980  
     580A      2.177510   581A      2.179523   582A      2.179598  
     583A      2.185130   584A      2.192682   585A      2.193154  
     586A      2.193711   587A      2.198675   588A      2.206343  
     589A      2.209044   590A      2.209126   591A      2.224547  
     592A      2.224592   593A      2.227024   594A      2.227199  
     595A      2.228941   596A      2.230333   597A      2.230422  
     598A      2.231723   599A      2.236596   600A      2.236691  
     601A      2.238199   602A      2.242588   603A      2.242674  
     604A      2.243211   605A      2.246538   606A      2.246675  
     607A      2.246710   608A      2.248249   609A      2.252117  
     610A      2.253019   611A      2.253039   612A      2.255911  
     613A      2.258700   614A      2.258836   615A      2.263647  
     616A      2.264980   617A      2.265055   618A      2.266838  
     619A      2.266928   620A      2.268882   621A      2.268967  
     622A      2.276551   623A      2.276607   624A      2.276771  
     625A      2.278981   626A      2.284301   627A      2.284557  
     628A      2.289551   629A      2.289629   630A      2.294883  
     631A      2.295074   632A      2.295281   633A      2.297675  
     634A      2.313215   635A      2.323328   636A      2.323334  
     637A      2.325177   638A      2.336231   639A      2.336282  
     640A      2.338797   641A      2.346960   642A      2.349779  
     643A      2.349965   644A      2.350988   645A      2.351018  
     646A      2.364914   647A      2.365034   648A      2.368091  
     649A      2.368171   650A      2.370671   651A      2.371042  
     652A      2.371610   653A      2.376292   654A      2.376383  
     655A      2.382998   656A      2.383055   657A      2.391025  
     658A      2.392541   659A      2.392594   660A      2.398788  
     661A      2.398877   662A      2.404974   663A      2.417330  
     664A      2.423393   665A      2.423434   666A      2.428487  
     667A      2.444037   668A      2.446754   669A      2.446816  
     670A      2.449568   671A      2.449590   672A      2.453272  
     673A      2.455567   674A      2.455836   675A      2.461290  
     676A      2.463946   677A      2.466076   678A      2.466126  
     679A      2.473657   680A      2.473788   681A      2.473984  
     682A      2.475040   683A      2.479474   684A      2.479615  
     685A      2.481414   686A      2.494915   687A      2.495068  
     688A      2.495916   689A      2.499997   690A      2.507306  
     691A      2.507361   692A      2.512846   693A      2.512932  
     694A      2.513417   695A      2.520788   696A      2.527361  
     697A      2.527422   698A      2.540621   699A      2.540637  
     700A      2.549710   701A      2.558472   702A      2.558614  
     703A      2.564031   704A      2.564129   705A      2.567517  
     706A      2.572295   707A      2.576316   708A      2.576392  
     709A      2.579884   710A      2.581502   711A      2.581676  
     712A      2.585885   713A      2.593131   714A      2.593280  
     715A      2.597467   716A      2.597496   717A      2.606811  
     718A      2.607141   719A      2.607184   720A      2.617343  
     721A      2.620327   722A      2.630329   723A      2.635626  
     724A      2.636916   725A      2.642868   726A      2.642973  
     727A      2.650237   728A      2.650281   729A      2.658898  
     730A      2.659150   731A      2.659219   732A      2.665450  
     733A      2.667970   734A      2.672285   735A      2.672326  
     736A      2.677917   737A      2.678006   738A      2.699971  
     739A      2.700020   740A      2.708219   741A      2.718700  
     742A      2.718731   743A      2.724752   744A      2.725379  
     745A      2.725538   746A      2.725935   747A      2.733466  
     748A      2.733537   749A      2.742454   750A      2.745735  
     751A      2.746141   752A      2.746922   753A      2.751006  
     754A      2.751371   755A      2.769646   756A      2.770087  
     757A      2.775947   758A      2.776541   759A      2.776939  
     760A      2.785312   761A      2.785715   762A      2.795176  
     763A      2.795240   764A      2.799371   765A      2.801049  
     766A      2.805520   767A      2.805576   768A      2.812166  
     769A      2.812480   770A      2.817865   771A      2.817993  
     772A      2.818837   773A      2.833758   774A      2.837093  
     775A      2.837581   776A      2.841979   777A      2.848748  
[...]
     730A      1.464160   731A      1.464205   732A      1.485892  
     733A      1.485961   734A      1.503077   735A      1.503835  
     736A      1.503942   737A      1.521010   738A      1.521074  
     739A      1.533434   740A      1.552488   741A      1.572781  
     742A      1.572928   743A      1.576462   744A      1.595876  
     745A      1.596523   746A      1.602521   747A      1.608223  
     748A      1.608493   749A      1.609533   750A      1.612514  
     751A      1.612621   752A      1.620917   753A      1.628330  
     754A      1.628521   755A      1.642170   756A      1.642407  
     757A      1.643736   758A      1.644540   759A      1.644933  
     760A      1.645187   761A      1.649120   762A      1.661686  
     763A      1.661709   764A      1.667941   765A      1.674734  
     766A      1.674813   767A      1.677369   768A      1.679023  
     769A      1.679772   770A      1.679990   771A      1.680294  
     772A      1.680387   773A      1.689654   774A      1.689763  
     775A      1.694446   776A      1.696487   777A      1.700568  
     778A      1.701439   779A      1.701497   780A      1.706257  
     781A      1.706328   782A      1.715045   783A      1.715121  
     784A      1.741984   785A      1.751871   786A      1.754228  
     787A      1.754949   788A      1.754993   789A      1.761211  
     790A      1.762030   791A      1.764520   792A      1.764551  
     793A      1.782058   794A      1.782115   795A      1.794298  
     796A      1.794314   797A      1.815290   798A      1.818342  
     799A      1.818365   800A      1.820270   801A      1.821169  
     802A      1.821245   803A      1.839990   804A      1.840033  
     805A      1.842606   806A      1.843493   807A      1.854076  
     808A      1.862279   809A      1.862291   810A      1.862910  
     811A      1.865702   812A      1.868481   813A      1.868503  
     814A      1.869080   815A      1.878809   816A      1.878863  
     817A      1.895199   818A      1.895312   819A      1.895836  
     820A      1.899731   821A      1.899850   822A      1.904869  
     823A      1.910525   824A      1.910668   825A      1.916907  
     826A      1.916958   827A      1.919376   828A      1.919555  
     829A      1.919871   830A      1.928408   831A      1.928425  
     832A      1.939436   833A      1.941257   834A      1.943182  
     835A      1.945019   836A      1.945083   837A      1.947561  
     838A      1.947575   839A      1.956337   840A      1.956361  
     841A      1.958252   842A      1.960823   843A      1.960986  
     844A      1.987869   845A      1.988077   846A      1.992359  
     847A      1.997320   848A      1.998974   849A      1.999046  
     850A      2.002290   851A      2.007594   852A      2.008018  
     853A      2.009007   854A      2.015203   855A      2.015433  
     856A      2.028663   857A      2.029688   858A      2.031935  
     859A      2.032388   860A      2.032520   861A      2.047180  
     862A      2.047333   863A      2.048891   864A      2.049986  
     865A      2.055341   866A      2.055418   867A      2.064720  
     868A      2.064768   869A      2.071275   870A      2.077577  
     871A      2.077969   872A      2.078699   873A      2.078743  
     874A      2.082398   875A      2.091480   876A      2.091691  
     877A      2.093215   878A      2.096167   879A      2.098025  
     880A      2.099081   881A      2.102836   882A      2.102931  
     883A      2.106940   884A      2.108052   885A      2.108166  
     886A      2.110808   887A      2.113504   888A      2.113521  
     889A      2.116909   890A      2.117037   891A      2.117448  
     892A      2.122299   893A      2.122431   894A      2.131183  
     895A      2.131384   896A      2.134772   897A      2.136886  
     898A      2.137161   899A      2.139067   900A      2.141014  
     901A      2.141061   902A      2.154459   903A      2.154592  
     904A      2.164938   905A      2.164992   906A      2.166587  
     907A      2.166678   908A      2.173578   909A      2.180288  
     910A      2.180450   911A      2.185023   912A      2.192830  
     913A      2.194259   914A      2.194364   915A      2.196964  
     916A      2.204385   917A      2.219192   918A      2.219922  
     919A      2.221257   920A      2.221306   921A      2.229493  
     922A      2.231419   923A      2.231555   924A      2.235943  
     925A      2.243779   926A      2.244133   927A      2.245372  
     928A      2.245617   929A      2.248591   930A      2.251078  
     931A      2.251173   932A      2.266225   933A      2.266358  
     934A      2.271526   935A      2.271603   936A      2.273419  
     937A      2.273459   938A      2.281212   939A      2.301016  
     940A      2.306873   941A      2.318436   942A      2.318834  
     943A      2.329575   944A      2.340770   945A      2.342794  
     946A      2.344936   947A      2.345698   948A      2.349686  
     949A      2.352114   950A      2.352673   951A      2.363326  
     952A      2.367890   953A      2.368089   954A      2.372432  
     955A      2.373017   956A      2.375416   957A      2.404983  
     958A      2.416842   959A      2.424297   960A      2.424651  
     961A      2.424674   962A      2.436634   963A      2.458273  
     964A      2.458775   965A      2.470748   966A      2.485117  
     967A      2.485229   968A      2.491624   969A      2.491761  
     970A      2.502934   971A      2.523572   972A      2.531237  
     973A      2.545719   974A      2.549718   975A      2.549750  
     976A      2.555061   977A      2.555087   978A      2.555154  
     979A      2.560652   980A      2.562142   981A      2.562161  
     982A      2.573350   983A      2.573377   984A      2.577376  
     985A      2.577756   986A      2.589984   987A      2.590078  
     988A      2.591351   989A      2.592081   990A      2.609109  
     991A      2.609643   992A      2.632112   993A      2.632530  
     994A      2.636319   995A      2.636527   996A      2.643379  
     997A      2.643487   998A      2.655520   999A      2.655647  
    1000A      2.657204  1001A      2.662378  1002A      2.684377  
    1003A      2.687409  1004A      2.688276  1005A      2.698990  
    1006A      2.704698  1007A      2.704731  1008A      2.713326  
    1009A      2.713344  1010A      2.722039  1011A      2.722112  
    1012A      2.724634  1013A      2.724815  1014A      2.757909  
    1015A      2.758344  1016A      2.777587  1017A      2.794959  
    1018A      2.795069  1019A      2.818873  1020A      2.827385  
    1021A      2.829840  1022A      2.831516  1023A      2.856491  
    1024A      2.857475  1025A      2.857672  1026A      2.858675  
    1027A      2.861780  1028A      2.861910  1029A      2.879191  
    1030A      2.879701  1031A      2.920765  1032A      2.921728  
    1033A      2.921742  1034A      2.939302  1035A      2.939341  
    1036A      2.958607  1037A      2.958663  1038A      2.964212  
    1039A      2.970457  1040A      3.012476  1041A      3.013672  
    1042A      3.013692  1043A      3.038590  1044A      3.054276  
    1045A      3.064816  1046A      3.064837  1047A      3.074852  
    1048A      3.074904  1049A      3.120148  1050A      3.120559  
    1051A      3.132896  1052A      3.134024  1053A      3.134276  
    1054A      3.138010  1055A      3.149316  1056A      3.149327  
    1057A      3.150246  1058A      3.150269  1059A      3.153385  
    1060A      3.164252  1061A      3.164823  1062A      3.168093  
    1063A      3.168890  1064A      3.192001  1065A      3.211294  
    1066A      3.225032  1067A      3.250204  1068A      3.278941  
    1069A      3.279553  1070A      3.280717  1071A      3.293265  
    1072A      3.293929  1073A      3.421196  1074A      3.421433  
    1075A      3.452028  1076A      3.487701  1077A      3.489759  
    1078A      3.567020  1079A      3.591599  1080A      3.593158  
    1081A      3.597732  1082A      3.630851  1083A      3.632511  
    1084A      3.672512  1085A      3.690940  1086A      3.770817  
    1087A      3.793022  1088A      3.793648  1089A      3.871618  
    1090A      3.871652  1091A      3.915226  1092A      3.915246  
    1093A      3.977408  1094A      4.012202  1095A      4.062362  
    1096A      4.073018  1097A      4.221118  1098A      4.383802  
    1099A      4.383923  1100A      4.488851  1101A      4.723611  
    1102A      5.758240  1103A      5.768342  1104A      5.770868  
    1105A      5.770885  1106A      5.787967  1107A      5.788022  
    1108A      5.817172  1109A      5.817640  1110A      5.858492  
    1111A      5.916230  1112A      5.916810  1113A      6.031344  
    1114A      6.052484  1115A      6.052846  1116A      6.216169  
    1117A      6.340796  1118A      6.341134  1119A      6.395752  
    1120A      6.396081  1121A      6.402503  1122A      7.320854  
    1123A      7.323901  1124A      7.323990  1125A      7.409840  
    1126A      7.410081  1127A      7.453834  1128A      7.604398  
    1129A      7.604496  1130A      7.716875  1131A      7.717394  
    1132A      7.738464  1133A      8.018126  1134A     12.847494  
    1135A     42.950359  1136A     42.950424  1137A     42.965996  
    1138A     42.994237  

    Final Occupation by Irrep:
              A 
    DOCC [   171 ]
    NA   [   171 ]
    NB   [   171 ]

  @DF-RHF Final Energy: -2055.89428718463296

   => Energetics <=

    Nuclear Repulsion Energy =           6452.5568002797781446
    One-Electron Energy =              -15636.4964284844372742
    Two-Electron Energy =                7128.0453410200252620
    Total Energy =                      -2055.8942871846329581

Computation Completed


Properties will be evaluated at   0.000000,   0.000000,   0.000000 [a0]

Properties computed using the SCF density matrix


 Multipole Moments:

 ------------------------------------------------------------------------------------
     Multipole            Electronic (a.u.)      Nuclear  (a.u.)        Total (a.u.)
 ------------------------------------------------------------------------------------

 L = 1.  Multiply by 2.5417464519 to convert [e a0] to [Debye]
 Dipole X            :          0.0000191            0.0000419            0.0000610
 Dipole Y            :          0.0000608           -0.0000426            0.0000183
 Dipole Z            :       -231.4427975          231.4422127           -0.0005848
 Magnitude           :                                                    0.0005883

 ------------------------------------------------------------------------------------

*** tstop() called on n2cn0220.ab2021.local at Wed Feb  7 17:12:14 2024
Module time:
	user time   =    3010.97 seconds =      50.18 minutes
	system time =     117.33 seconds =       1.96 minutes
	total time  =        232 seconds =       3.87 minutes
Total time:
	user time   =    8817.76 seconds =     146.96 minutes
	system time =     462.86 seconds =       7.71 minutes
	total time  =        751 seconds =      12.52 minutes
  Constructing Basis Sets for SAPT...

   => Loading Basis Set <=

    Name: (JUN-CC-PVDZ AUX)
    Role: RIFIT
    Keyword: DF_BASIS_SAPT
    atoms 1     entry B          line    56 file /opt/software/pc2/EB-SW/software/PSI4/1.9-foss-2022a/share/psi4/basis/jun-cc-pvdz-ri.gbs 
    atoms 2-5   entry F          line   232 file /opt/software/pc2/EB-SW/software/PSI4/1.9-foss-2022a/share/psi4/basis/jun-cc-pvdz-ri.gbs 
    atoms 6-59  entry C          line   100 file /opt/software/pc2/EB-SW/software/PSI4/1.9-foss-2022a/share/psi4/basis/jun-cc-pvdz-ri.gbs 
    atoms 60-77 entry H          line    30 file /opt/software/pc2/EB-SW/software/PSI4/1.9-foss-2022a/share/psi4/basis/jun-cc-pvdz-ri.gbs 

   => Loading Basis Set <=

    Name: (JUN-CC-PVDZ AUX)
    Role: JKFIT
    Keyword: DF_BASIS_ELST
    atoms 1     entry B          line    90 file /opt/software/pc2/EB-SW/software/PSI4/1.9-foss-2022a/share/psi4/basis/jun-cc-pvdz-jkfit.gbs 
    atoms 2-5   entry F          line   314 file /opt/software/pc2/EB-SW/software/PSI4/1.9-foss-2022a/share/psi4/basis/jun-cc-pvdz-jkfit.gbs 
    atoms 6-59  entry C          line   146 file /opt/software/pc2/EB-SW/software/PSI4/1.9-foss-2022a/share/psi4/basis/jun-cc-pvdz-jkfit.gbs 
    atoms 60-77 entry H          line    70 file /opt/software/pc2/EB-SW/software/PSI4/1.9-foss-2022a/share/psi4/basis/jun-cc-pvdz-jkfit.gbs 


  //>>>>>>>>>>>>>>>>>>>>>>>>>>>>>>>>>>>//
  //               SSAPT0              //
  //<<<<<<<<<<<<<<<<<<<<<<<<<<<<<<<<<<<//


*** tstart() called on n2cn0220.ab2021.local
*** at Wed Feb  7 17:12:15 2024

        SAPT0  
    Ed Hohenstein
     6 June 2009

      Orbital Information
  --------------------------
    NSO        =      1152
    NMO        =      1138
    NRI        =      4087
    NRI (Elst) =      5075
    NOCC A     =        21
    NOCC B     =       171
    FOCC A     =         5
    FOCC B     =        54
    NVIR A     =      1117
    NVIR B     =       967

    Elst10,r            =    -0.066580244697 [Eh]
    Exch10              =     0.193585208280 [Eh]
    Exch10 (S^2)        =     0.189813531674 [Eh]

    Iter     Energy [mEh]          dE [mEh]         Residual      Time [s]
       1     -30.13961617      30.139616170      42.679059203            51
       2     -35.80175185       5.662135682      18.847473188            80
       3     -38.30972078       2.507968932       2.701969504            97
       4     -38.24888280      -0.060837986       0.831401843           114
       5     -38.21426383      -0.034618970       0.178658297           135
       6     -38.21475222       0.000488396       0.052068585           154
       7     -38.21685948       0.002107255       0.009875155           172
       8     -38.21662952      -0.000229962       0.002146174           189
       9     -38.21662369      -0.000005830       0.000324972           211
      10     -38.21663014       0.000006457       0.000054249           229
      11     -38.21662916      -0.000000986       0.000012842           246
      12     -38.21662923       0.000000073       0.000003266           262
      13     -38.21662926       0.000000028       0.000000985           279

    CHF Iterations converged


    Iter     Energy [mEh]          dE [mEh]         Residual      Time [s]
       1     -71.40964638      71.409646382     103.785249920            19
       2     -62.25257201      -9.157074371      19.764815856            34
       3     -65.88636600       3.633793988       7.851351880            47
       4     -67.15530412       1.268938119       1.495968987            61
       5     -67.09675911      -0.058545013       0.519025719            81
       6     -67.04538758      -0.051371523       0.178178484            96
       7     -67.05209405       0.006706472       0.081023372           110
       8     -67.05819740       0.006103346       0.033521286           123
       9     -67.05691400      -0.001283399       0.022652783           137
      10     -67.05576960      -0.001144407       0.013702677           154
      11     -67.05637512       0.000605521       0.008189814           168
      12     -67.05653278       0.000157667       0.004576881           181
      13     -67.05641238      -0.000120408       0.001572277           194
      14     -67.05636867      -0.000043703       0.000565133           208
      15     -67.05637884       0.000010171       0.000162591           226
      16     -67.05638293       0.000004090       0.000070844           241
      17     -67.05638192      -0.000001013       0.000031956           254
      18     -67.05638120      -0.000000716       0.000012617           268
      19     -67.05638122       0.000000017       0.000004740           281
      20     -67.05638136       0.000000137       0.000002528           295
      21     -67.05638135      -0.000000002       0.000001704           313
      22     -67.05638131      -0.000000042       0.000000871           329

    CHF Iterations converged

    Ind20,r (A<-B)      =    -0.038216629259 [Eh]
    Ind20,r (B<-A)      =    -0.067056381313 [Eh]
    Ind20,r             =    -0.105273010572 [Eh]
    Exch-Ind20,r (A<-B) =     0.033329977286 [Eh]
    Exch-Ind20,r (B<-A) =     0.042873493892 [Eh]
    Exch-Ind20,r        =     0.076203471178 [Eh]
    Disp20              =    -0.044986267349 [Eh]
    Disp20 (SS)         =    -0.022493133675 [Eh]
    Disp20 (OS)         =    -0.022493133675 [Eh]
    Exch-Disp20         =     0.013809532280 [Eh]
    Exch-Disp20 (SS)    =     0.007248410984 [Eh]
    Exch-Disp20 (OS)    =     0.006561121296 [Eh]

    SAPT Results 
  --------------------------------------------------------------------------------------------------------
    Electrostatics                -66.58024470 [mEh]     -41.77973431 [kcal/mol]    -174.80640837 [kJ/mol]
      Elst10,r                    -66.58024470 [mEh]     -41.77973431 [kcal/mol]    -174.80640837 [kJ/mol]

    Exchange                      193.58520828 [mEh]     121.47655218 [kcal/mol]     508.25789432 [kJ/mol]
      Exch10                      193.58520828 [mEh]     121.47655218 [kcal/mol]     508.25789432 [kJ/mol]
      Exch10(S^2)                 189.81353167 [mEh]     119.10978938 [kcal/mol]     498.35535875 [kJ/mol]

    Induction                     -29.39751802 [mEh]     -18.44722106 [kcal/mol]     -77.18317293 [kJ/mol]
      Ind20,r                    -105.27301057 [mEh]     -66.05981147 [kcal/mol]    -276.39425118 [kJ/mol]
      Exch-Ind20,r                 76.20347118 [mEh]      47.81840010 [kcal/mol]     200.07218601 [kJ/mol]
      delta HF,r (2)               -0.32797863 [mEh]      -0.20580970 [kcal/mol]      -0.86110776 [kJ/mol]

    Dispersion                    -31.17673507 [mEh]     -19.56369662 [kcal/mol]     -81.85450665 [kJ/mol]
      Disp20                      -44.98626735 [mEh]     -28.22930895 [kcal/mol]    -118.11142865 [kJ/mol]
      Exch-Disp20                  13.80953228 [mEh]       8.66561233 [kcal/mol]      36.25692201 [kJ/mol]
      Disp20 (SS)                 -22.49313367 [mEh]     -14.11465448 [kcal/mol]     -59.05571433 [kJ/mol]
      Disp20 (OS)                 -22.49313367 [mEh]     -14.11465448 [kcal/mol]     -59.05571433 [kJ/mol]
      Exch-Disp20 (SS)              7.24841098 [mEh]       4.54844656 [kcal/mol]      19.03070042 [kJ/mol]
      Exch-Disp20 (OS)              6.56112130 [mEh]       4.11716577 [kcal/mol]      17.22622159 [kJ/mol]

  Total HF                         97.60744556 [mEh]      61.24959680 [kcal/mol]     256.26831302 [kJ/mol]
  Total SAPT0                      66.43071049 [mEh]      41.68590019 [kcal/mol]     174.41380638 [kJ/mol]

  Special recipe for scaled SAPT0 (see Manual):
    Electrostatics sSAPT0         -66.58024470 [mEh]     -41.77973431 [kcal/mol]    -174.80640837 [kJ/mol]
    Exchange sSAPT0               193.58520828 [mEh]     121.47655218 [kcal/mol]     508.25789432 [kJ/mol]
    Induction sSAPT0              -24.76406964 [mEh]     -15.53968831 [kcal/mol]     -65.01805589 [kJ/mol]
    Dispersion sSAPT0             -30.33706525 [mEh]     -19.03679585 [kcal/mol]     -79.64995384 [kJ/mol]
  Total sSAPT0                     71.90382869 [mEh]      45.12033371 [kcal/mol]     188.78347622 [kJ/mol]
  --------------------------------------------------------------------------------------------------------

*** tstop() called on n2cn0220.ab2021.local at Wed Feb  7 17:41:17 2024
Module time:
	user time   =    8918.96 seconds =     148.65 minutes
	system time =     782.15 seconds =      13.04 minutes
	total time  =       1742 seconds =      29.03 minutes
Total time:
	user time   =   17737.43 seconds =     295.62 minutes
	system time =    1245.02 seconds =      20.75 minutes
	total time  =       2494 seconds =      41.57 minutes

    Psi4 stopped on: Wednesday, 07 February 2024 05:41PM
    Psi4 wall time for execution: 0:41:35.04

*** Psi4 exiting successfully. Buy a developer a beer!
