
    -----------------------------------------------------------------------
          Psi4: An Open-Source Ab Initio Electronic Structure Package
                               Psi4 1.9 release

                         Git: Rev {} zzzzzzz 


    D. G. A. Smith, L. A. Burns, A. C. Simmonett, R. M. Parrish,
    M. C. Schieber, R. Galvelis, P. Kraus, H. Kruse, R. Di Remigio,
    A. Alenaizan, A. M. James, S. Lehtola, J. P. Misiewicz, M. Scheurer,
    R. A. Shaw, J. B. Schriber, Y. Xie, Z. L. Glick, D. A. Sirianni,
    J. S. O'Brien, J. M. Waldrop, A. Kumar, E. G. Hohenstein,
    B. P. Pritchard, B. R. Brooks, H. F. Schaefer III, A. Yu. Sokolov,
    K. Patkowski, A. E. DePrince III, U. Bozkaya, R. A. King,
    F. A. Evangelista, J. M. Turney, T. D. Crawford, C. D. Sherrill,
    J. Chem. Phys. 152(18) 184108 (2020). https://doi.org/10.1063/5.0006002

                            Additional Code Authors
    E. T. Seidl, C. L. Janssen, E. F. Valeev, M. L. Leininger,
    J. F. Gonthier, R. M. Richard, H. R. McAlexander, M. Saitow, X. Wang,
    P. Verma, M. H. Lechner, A. Jiang, S. Behnle, A. G. Heide,
    M. F. Herbst, and D. L. Poole

             Previous Authors, Complete List of Code Contributors,
                       and Citations for Specific Modules
    https://github.com/psi4/psi4/blob/master/codemeta.json
    https://github.com/psi4/psi4/graphs/contributors
    http://psicode.org/psi4manual/master/introduction.html#citing-psifour

    -----------------------------------------------------------------------


    Psi4 started on: Wednesday, 24 January 2024 10:15PM

    Process ID: 2902699
    Host:       n2cn0303
    PSIDATADIR: /opt/software/pc2/EB-SW/software/PSI4/1.9-foss-2022a/share/psi4
    Memory:     500.0 MiB
    Threads:    16
    
  ==> Input File <==

--------------------------------------------------------------------------
memory 47 GB # how much memory is available ! Depends on the nodes/cores !

molecule dimer {
# monomer A
-1 1    # Charge and multiplicity
B -1.977592e-04  2.742729e-04 2.000034
F  1.123153e-16  1.430594e-17 3.412819
F  1.147860e+00  6.757812e-01 1.528893
F  1.191806e-02 -1.332011e+00 1.529095
F -1.159666e+00  6.560735e-01 1.529174
--
# monomer B
0 1     # Charge and multiplicity
C   -3.66844126402057      7.80375217008252      0.00190004133558
C   -4.84759871934653      7.13124183134024     -0.00046653359696
C   -4.89495929917518      5.69633040353158     -0.00103944469517
C   -3.65374067877320      4.98073034095895      0.00662099703436
C   -2.40942512149445      7.11398103667468      0.00209438359570
C   -2.42547734410473      5.68112195090346     -0.00491050527438
C   -1.19474401643570      7.78614419430947      0.00356656413763
C   0.03795902893699      7.09942164575698      0.00139585983271
C   0.03033258741920      5.66948955970466     -0.00408752508301
C   -1.20098450790502      4.96927034791531      0.00488220885047
C   1.27795782581485      7.77285944319479      0.00277170839332
C   2.48535808472416      7.08769688523756      0.00049722048857
C   2.48612868491717      5.65477081024076     -0.00644052849921
C   1.25408291964399      4.95607811366431      0.00518741308898
C   3.75171459140595      7.76391215098033      0.00062407186893
C   4.92356605618520      7.07878077698995     -0.00143240883900
C   4.95560727132542      5.64344746336949     -0.00159282164606
C   3.70680153420475      4.94121020833308      0.00349873852374
H   -3.65852113775815      8.89082741913536      0.00358502958574
H   -1.18921332975660      8.87412108735996      0.00753844057883
H   1.28429423888630      8.86083343548850      0.00693053253426
H   3.75354208679975      8.85103527897216      0.00214659618464
H   5.86995870320703      7.61379483465560     -0.00235777588134
H   -5.78823170750226      7.67630221293400     -0.00202638095293
C   -6.09197395869619      4.99326001364347     -0.00291168518608
C   -6.12866148031747      3.58258016879823     -0.00171050815740
C   -3.66457974004527      3.56418217974434     -0.00463560277484
C   -4.89429820469869      2.86108077590057      0.00453338221034
C   -2.43733499489796      2.84761165708481      0.00719617576166
C   -1.20922785759670      3.54788693497833     -0.00648285103018
C   1.24714157216223      3.53468075142962     -0.00729145743546
C   0.01517603956900      2.83311183930540      0.00439272578912
C   2.46764517244071      2.82128997725533      0.00449278391269
C   3.70254947457969      3.52466015442405     -0.00899517692985
C   6.14498038638375      4.92757236613191     -0.00282626685777
C   6.16658835886151      3.51658447594213     -0.00065971342101
C   4.92460995845939      2.80840792535402      0.00587903281610
H   7.08990550964105      5.46688776622306     -0.00658814770723
H   -7.03104175110130      5.54268795285765     -0.00714490013730
C   -7.33969804112295      2.85841153457957     -0.00333767559888
C   -7.36488195805880      1.47032337158330     -0.00157213747140
C   -4.90350460894690      1.44442681216000     -0.00628840166334
C   -6.13225715261081      0.73993935705394      0.00600164231964
C   -3.67687480051673      0.72669714267312      0.00433931473643
C   -2.44565658606518      1.42964113326212     -0.00597039546461
C   -1.22360068130162      0.71532450163492      0.00545886906656
C   0.00763786931376      1.41738314923765      0.00392452278437
C   1.23121980774686      0.70211669058719     -0.01490206287210
C   2.46082110053113      1.40329203612573      0.00460244601878
C   3.68443025419614      0.68719842821222      0.00377365974158
C   4.91870890153864      1.39173456118907     -0.00862816189375
C   7.36980207796101      2.77948220318441     -0.00242013321349
C   7.38016266612146      1.39121750785509     -0.00087345036788
C   6.13979953912259      0.67411862320065      0.00545489144369
H   -8.27919079934664      3.40711804112415     -0.00763522772059
H   8.31511347147953      3.31811809662368     -0.00663070901292
C   -8.59175593758115      0.72483255304480     -0.00123170985383
C   -8.59902460370342     -0.63263980622873      0.00089141472904
C   -6.13981313911873     -0.67413663715361     -0.00609792660607
C   -7.38018411213749     -1.39126618958160      0.00131813493501
C   -4.91868448025621     -1.39175501803000      0.00624257154343
C   -3.68443829568458     -0.68723731573599     -0.00478966852105
C   -2.46081704024768     -1.40334517882457      0.00575341766833
C   -1.23116201232071     -0.70217386488055     -0.00636696112346
C   -0.00756962538737     -1.41741884941102      0.00108956317991
C   1.22364771588843     -0.71527537726392      0.01109518512883
C   2.44567064933149     -1.42964328900682     -0.00065482763106
C   3.67686670284649     -0.72670743155550     -0.00479541202602
C   6.13224884641929     -0.73997883984993     -0.00632338623858
C   4.90351914550401     -1.44445752054090      0.00751768830159
C   8.59901484869081      0.63260386666793     -0.00101133422380
C   8.59174548810050     -0.72485086719319      0.00072504603735
C   7.36486276438985     -1.47033266560598      0.00049486934466
H   -9.52830597181814      1.27684744919284     -0.00270163681798
H   9.54141097460619      1.17457248844457     -0.00206336648518
C   -7.36983790976868     -2.77954514593389      0.00312634335708
C   -4.92459910905015     -2.80843725734101     -0.00460528907921
C   -6.16662249566744     -3.51665219282533      0.00169655107992
C   -3.70251035970491     -3.52468154912026      0.00571878010666
C   -2.46764698511392     -2.82132596280400     -0.00632585824990
C   -0.01513347410770     -2.83314164539971     -0.00604426974092
C   -1.24712184122656     -3.53473217556300      0.00551968366725
C   1.20924506964357     -3.54791467864352      0.00805871345849
C   2.43733602215464     -2.84764173817541     -0.00608104485234
C   4.89430234377080     -2.86112296828604     -0.00526030478103
C   3.66461525504104     -3.56421984553201      0.00761911515957
C   6.12863901474565     -3.58258405771778      0.00096495711699
C   7.33967266469532     -2.85841330737039      0.00248018319869
H   -9.54144911125902     -1.17456346666430      0.00226083090216
H   9.52826186807155     -1.27691907390448      0.00197485379837
H   -8.31516504384864     -3.31814985321231      0.00729857188773
H   8.27915514249207     -3.40714078989363      0.00681973918158
C   -6.14499418870218     -4.92764727278338      0.00302254913999
C   -3.70678334799751     -4.94126171411716     -0.00679841894792
C   -4.95559005800169     -5.64349397349412      0.00116871569699
C   -2.48612132622665     -5.65478557440947      0.00614125209662
C   -1.25405833548005     -4.95612205000132     -0.00503435388927
C   1.20101257386816     -4.96928038819302     -0.00385322963129
C   -0.03033667441341     -5.66952030313900      0.00398997003238
C   3.65375010132847     -4.98074377541453     -0.00309522988330
C   2.42549269587528     -5.68117463552727      0.00628170066869
C   6.09196561781097     -4.99325796338655      0.00325918379042
C   4.89497644461045     -5.69634842095790      0.00202298796027
H   -7.08989238804069     -5.46699984223871      0.00742531082125
H   7.03105520920009     -5.54265853633254      0.00683896355417
C   -4.92354532219813     -7.07882109967734      0.00061394679214
C   -2.48534208823777     -7.08772807792913     -0.00189594564379
C   -3.75168589177895     -7.76394715763627     -0.00170126671874
C   -0.03794895698805     -7.09946487446944     -0.00168022049625
C   -1.27795610040136     -7.77290438466689     -0.00366491325785
C   2.40944432072629     -7.11402201200282     -0.00081701968533
C   1.19474993715296     -7.78618536556242     -0.00296931056689
C   4.84762105249800     -7.13126211057943      0.00168979497423
C   3.66847160587561     -7.80378799294376     -0.00065863938960
H   -5.86994035041618     -7.61383059804164      0.00215798365757
H   5.78824962538815     -7.67633218931421      0.00281691445618
H   -3.75352693944918     -8.85107156923607     -0.00353718114765
H   -1.28430440589466     -8.86087539249706     -0.00809229711623
H   1.18922157469537     -8.87416062058945     -0.00706194725726
H   3.65854661482387     -8.89086063405326     -0.00231318081200

    units angstrom      # Angstroms are the default
    no_reorient         # Geometry fixed, default
    symmetry c1         # C1 symmetry, default
}

set {
    scf_type DF         # Density fitting, faster than exact integrals
    freeze_core True    # Freeze core electrons
    basis jun-cc-pVDZ   # Jun-cc-pVDZ basis set, recommended for sSAPT0 in https://doi.org/10.1063/1.4867135
}

energy('ssapt0')        # Compute sSAPT0 energy, includes also SAPT0
--------------------------------------------------------------------------

  Memory set to  43.772 GiB by Python driver.

Scratch directory: /tmp/
   => Loading Basis Set <=

    Name: JUN-CC-PVDZ
    Role: ORBITAL
    Keyword: BASIS
    atoms 1                                                   entry B          line   130 file /opt/software/pc2/EB-SW/software/PSI4/1.9-foss-2022a/share/psi4/basis/jun-cc-pvdz.gbs 
    atoms 2-5                                                 entry F          line   266 file /opt/software/pc2/EB-SW/software/PSI4/1.9-foss-2022a/share/psi4/basis/jun-cc-pvdz.gbs 
    atoms 6-23, 30-42, 45-59, 62-78, 81-93, 98-108, 111-119   entry C          line   164 file /opt/software/pc2/EB-SW/software/PSI4/1.9-foss-2022a/share/psi4/basis/jun-cc-pvdz.gbs 
    atoms 24-29, 43-44, 60-61, 79-80, 94-97, 109-110, 120-125 entry H          line    36 file /opt/software/pc2/EB-SW/software/PSI4/1.9-foss-2022a/share/psi4/basis/jun-cc-pvdz.gbs 

   => Loading Basis Set <=

    Name: JUN-CC-PVDZ
    Role: ORBITAL
    Keyword: BASIS
    atoms 1                                                   entry B          line   130 file /opt/software/pc2/EB-SW/software/PSI4/1.9-foss-2022a/share/psi4/basis/jun-cc-pvdz.gbs 
    atoms 2-5                                                 entry F          line   266 file /opt/software/pc2/EB-SW/software/PSI4/1.9-foss-2022a/share/psi4/basis/jun-cc-pvdz.gbs 
    atoms 6-23, 30-42, 45-59, 62-78, 81-93, 98-108, 111-119   entry C          line   164 file /opt/software/pc2/EB-SW/software/PSI4/1.9-foss-2022a/share/psi4/basis/jun-cc-pvdz.gbs 
    atoms 24-29, 43-44, 60-61, 79-80, 94-97, 109-110, 120-125 entry H          line    36 file /opt/software/pc2/EB-SW/software/PSI4/1.9-foss-2022a/share/psi4/basis/jun-cc-pvdz.gbs 


  //>>>>>>>>>>>>>>>>>>>>>>>>>>>>>>>>>>>//
  //              Dimer HF             //
  //<<<<<<<<<<<<<<<<<<<<<<<<<<<<<<<<<<<//

   => Libint2 <=

    Primary   basis highest AM E, G, H:  5, 4, 3
    Auxiliary basis highest AM E, G, H:  6, 5, 4
    Onebody   basis highest AM E, G, H:  6, 5, 4
    Solid Harmonics ordering:            gaussian

*** tstart() called on n2cn0303
*** at Wed Jan 24 22:15:58 2024

   => Loading Basis Set <=

    Name: JUN-CC-PVDZ
    Role: ORBITAL
    Keyword: BASIS
    atoms 1                                                   entry B          line   130 file /opt/software/pc2/EB-SW/software/PSI4/1.9-foss-2022a/share/psi4/basis/jun-cc-pvdz.gbs 
    atoms 2-5                                                 entry F          line   266 file /opt/software/pc2/EB-SW/software/PSI4/1.9-foss-2022a/share/psi4/basis/jun-cc-pvdz.gbs 
    atoms 6-23, 30-42, 45-59, 62-78, 81-93, 98-108, 111-119   entry C          line   164 file /opt/software/pc2/EB-SW/software/PSI4/1.9-foss-2022a/share/psi4/basis/jun-cc-pvdz.gbs 
    atoms 24-29, 43-44, 60-61, 79-80, 94-97, 109-110, 120-125 entry H          line    36 file /opt/software/pc2/EB-SW/software/PSI4/1.9-foss-2022a/share/psi4/basis/jun-cc-pvdz.gbs 


         ---------------------------------------------------------
                                   SCF
               by Justin Turney, Rob Parrish, Andy Simmonett
                          and Daniel G. A. Smith
                              RHF Reference
                       16 Threads,  44822 MiB Core
         ---------------------------------------------------------

  ==> Geometry <==

    Molecular point group: c1
    Full point group: C1

    Geometry (in Angstrom), charge = -1, multiplicity = 1:

       Center              X                  Y                   Z               Mass       
    ------------   -----------------  -----------------  -----------------  -----------------
         B           -0.000201921932     0.000288800891     1.862279824961    11.009305360000
         F           -0.000004162732     0.000014527991     3.275064824961    18.998403162730
         F            1.147855837268     0.675795727991     1.391138824961    18.998403162730
         F            0.011913897268    -1.331996472009     1.391340824961    18.998403162730
         F           -1.159670162732     0.656088027991     1.391419824961    18.998403162730
         C           -3.668445426752     7.803766698073    -0.135854133703    12.000000000000
         C           -4.847602882078     7.131256359331    -0.138220708635    12.000000000000
         C           -4.894963461907     5.696344931522    -0.138793619734    12.000000000000
         C           -3.653744841505     4.980744868950    -0.131133178004    12.000000000000
         C           -2.409429284226     7.113995564665    -0.135659791443    12.000000000000
         C           -2.425481506836     5.681136478894    -0.142664680313    12.000000000000
         C           -1.194748179167     7.786158722300    -0.134187610901    12.000000000000
         C            0.037954866205     7.099436173748    -0.136358315206    12.000000000000
         C            0.030328424687     5.669504087695    -0.141841700122    12.000000000000
         C           -1.200988670637     4.969284875906    -0.132871966188    12.000000000000
         C            1.277953663083     7.772873971185    -0.134982466645    12.000000000000
         C            2.485353921992     7.087711413228    -0.137256954550    12.000000000000
         C            2.486124522185     5.654785338231    -0.144194703538    12.000000000000
         C            1.254078756912     4.956092641655    -0.132566761950    12.000000000000
         C            3.751710428674     7.763926678971    -0.137130103170    12.000000000000
         C            4.923561893453     7.078795304981    -0.139186583878    12.000000000000
         C            4.955603108594     5.643461991360    -0.139346996685    12.000000000000
         C            3.706797371473     4.941224736324    -0.134255436515    12.000000000000
         H           -3.658525300490     8.890841947126    -0.134169145453     1.007825032230
         H           -1.189217492488     8.874135615351    -0.130215734460     1.007825032230
         H            1.284290076155     8.860847963479    -0.130823642504     1.007825032230
         H            3.753537924068     8.851049806963    -0.135607578854     1.007825032230
         H            5.869954540475     7.613809362646    -0.140111950920     1.007825032230
         H           -5.788235870234     7.676316740925    -0.139780555991     1.007825032230
         C           -6.091978121428     4.993274541634    -0.140665860225    12.000000000000
         C           -6.128665643049     3.582594696789    -0.139464683196    12.000000000000
         C           -3.664583902777     3.564196707735    -0.142389777813    12.000000000000
         C           -4.894302367430     2.861095303891    -0.133220792828    12.000000000000
         C           -2.437339157630     2.847626185075    -0.130557999277    12.000000000000
         C           -1.209232020328     3.547901462969    -0.144237026069    12.000000000000
         C            1.247137409430     3.534695279420    -0.145045632474    12.000000000000
         C            0.015171876837     2.833126367296    -0.133361449249    12.000000000000
         C            2.467641009709     2.821304505246    -0.133261391126    12.000000000000
         C            3.702545311848     3.524674682415    -0.146749351968    12.000000000000
         C            6.144976223652     4.927586894122    -0.140580441896    12.000000000000
         C            6.166584196130     3.516599003933    -0.138413888460    12.000000000000
         C            4.924605795728     2.808422453345    -0.131875142222    12.000000000000
         H            7.089901346909     5.466902294214    -0.144342322746     1.007825032230
         H           -7.031045913833     5.542702480848    -0.144899075176     1.007825032230
         C           -7.339702203855     2.858426062570    -0.141091850637    12.000000000000
         C           -7.364886120791     1.470337899574    -0.139326312510    12.000000000000
         C           -4.903508771679     1.444441340151    -0.144042576702    12.000000000000
         C           -6.132261315343     0.739953885044    -0.131752532719    12.000000000000
         C           -3.676878963248     0.726711670664    -0.133414860302    12.000000000000
         C           -2.445660748797     1.429655661253    -0.143724570503    12.000000000000
         C           -1.223604844033     0.715339029625    -0.132295305972    12.000000000000
         C            0.007633706582     1.417397677228    -0.133829652254    12.000000000000
         C            1.231215645015     0.702131218578    -0.152656237911    12.000000000000
         C            2.460816937799     1.403306564116    -0.133151729020    12.000000000000
         C            3.684426091464     0.687212956203    -0.133980515297    12.000000000000
         C            4.918704738807     1.391749089180    -0.146382336932    12.000000000000
         C            7.369797915229     2.779496731175    -0.140174308252    12.000000000000
         C            7.380158503390     1.391232035846    -0.138627625406    12.000000000000
         C            6.139795376391     0.674133151191    -0.132299283595    12.000000000000
         H           -8.279194962078     3.407132569115    -0.145389402759     1.007825032230
         H            8.315109308748     3.318132624614    -0.144384884051     1.007825032230
         C           -8.591760100313     0.724847081035    -0.138985884892    12.000000000000
         C           -8.599028766435    -0.632625278238    -0.136862760309    12.000000000000
         C           -6.139817301850    -0.674122109163    -0.143852101645    12.000000000000
         C           -7.380188274869    -1.391251661591    -0.136436040104    12.000000000000
         C           -4.918688642988    -1.391740490039    -0.131511603495    12.000000000000
         C           -3.684442458416    -0.687222787745    -0.142543843560    12.000000000000
         C           -2.460821202979    -1.403330650834    -0.132000757370    12.000000000000
         C           -1.231166175052    -0.702159336890    -0.144121136162    12.000000000000
         C           -0.007573788119    -1.417404321420    -0.136664611859    12.000000000000
         C            1.223643553157    -0.715260849273    -0.126658989910    12.000000000000
         C            2.445666486600    -1.429628761016    -0.138409002670    12.000000000000
         C            3.676862540115    -0.726692903565    -0.142549587065    12.000000000000
         C            6.132244683688    -0.739964311859    -0.144077561277    12.000000000000
         C            4.903514982772    -1.444442992550    -0.130236486737    12.000000000000
         C            8.599010685959     0.632618394658    -0.138765509262    12.000000000000
         C            8.591741325369    -0.724836339203    -0.137029129001    12.000000000000
         C            7.364858601658    -1.470318137615    -0.137259305694    12.000000000000
         H           -9.528310134550     1.276861977183    -0.140455811857     1.007825032230
         H            9.541406811874     1.174587016435    -0.139817541524     1.007825032230
         C           -7.369842072500    -2.779530617943    -0.134627831681    12.000000000000
         C           -4.924603271782    -2.808422729350    -0.142359464118    12.000000000000
         C           -6.166626658399    -3.516637664835    -0.136057623959    12.000000000000
         C           -3.702514522437    -3.524667021130    -0.132035394932    12.000000000000
         C           -2.467651147846    -2.821311434813    -0.144080033288    12.000000000000
         C           -0.015137636839    -2.833127117409    -0.143798444779    12.000000000000
         C           -1.247126003958    -3.534717647572    -0.132234491371    12.000000000000
         C            1.209240906912    -3.547900150653    -0.129695461580    12.000000000000
         C            2.437331859423    -2.847627210185    -0.143835219891    12.000000000000
         C            4.894298181039    -2.861108440295    -0.143014479820    12.000000000000
         C            3.664611092309    -3.564205317541    -0.130135059879    12.000000000000
         C            6.128634852014    -3.582569529727    -0.136789217922    12.000000000000
         C            7.339668501964    -2.858398779380    -0.135273991840    12.000000000000
         H           -9.541453273991    -1.174548938674    -0.135493344136     1.007825032230
         H            9.528257705340    -1.276904545914    -0.135779321240     1.007825032230
         H           -8.315169206580    -3.318135325222    -0.130455603151     1.007825032230
         H            8.279150979760    -3.407126261903    -0.130934435857     1.007825032230
         C           -6.144998351434    -4.927632744793    -0.134731625899    12.000000000000
         C           -3.706787510729    -4.941247186127    -0.144552593986    12.000000000000
         C           -4.955594220733    -5.643479445504    -0.136585459342    12.000000000000
         C           -2.486125488958    -5.654771046419    -0.131612922942    12.000000000000
         C           -1.254062498212    -4.956107522011    -0.142788528928    12.000000000000
         C            1.201008411136    -4.969265860202    -0.141607404670    12.000000000000
         C           -0.030340837145    -5.669505775148    -0.133764205006    12.000000000000
         C            3.653745938597    -4.980729247424    -0.140849404922    12.000000000000
         C            2.425488533144    -5.681160107537    -0.131472474370    12.000000000000
         C            6.091961455079    -4.993243435396    -0.134494991248    12.000000000000
         C            4.894972281879    -5.696333892967    -0.135731187078    12.000000000000
         H           -7.089896550772    -5.466985314248    -0.130328864217     1.007825032230
         H            7.031051046468    -5.542644008342    -0.130915211484     1.007825032230
         C           -4.923549484930    -7.078806571687    -0.137140228246    12.000000000000
         C           -2.485346250970    -7.087713549939    -0.139650120682    12.000000000000
         C           -3.751690054511    -7.763932629646    -0.139455441757    12.000000000000
         C           -0.037953119720    -7.099450346479    -0.139434395535    12.000000000000
         C           -1.277960263133    -7.772889856676    -0.141419088296    12.000000000000
         C            2.409440157995    -7.114007484012    -0.138571194724    12.000000000000
         C            1.194745774421    -7.786170837572    -0.140723485605    12.000000000000
         C            4.847616889766    -7.131247582589    -0.136064380064    12.000000000000
         C            3.668467443144    -7.803773464953    -0.138412814428    12.000000000000
         H           -5.869944513148    -7.613816070051    -0.135596191381     1.007825032230
         H            5.788245462656    -7.676317661324    -0.134937260582     1.007825032230
         H           -3.753531102181    -8.851057041246    -0.141291356186     1.007825032230
         H           -1.284308568626    -8.860860864507    -0.145846472155     1.007825032230
         H            1.189217411964    -8.874146092599    -0.144816122296     1.007825032230
         H            3.658542452092    -8.890846106063    -0.140067355851     1.007825032230

  Running in c1 symmetry.

  Rotational constants: A =      0.00069  B =      0.00069  C =      0.00035 [cm^-1]
  Rotational constants: A =     20.77915  B =     20.77549  C =     10.55117 [MHz]
  Nuclear repulsion = 18088.839344623880606

  Charge       = -1
  Multiplicity = 1
  Electrons    = 642
  Nalpha       = 321
  Nbeta        = 321

  ==> Algorithm <==

  SCF Algorithm Type is DF.
  DIIS enabled.
  MOM disabled.
  Fractional occupation disabled.
  Guess Type is SAD.
  Energy threshold   = 1.00e-08
  Density threshold  = 1.00e-08
  Integral threshold = 1.00e-12

  ==> Primary Basis <==

  Basis Set: JUN-CC-PVDZ
    Blend: JUN-CC-PVDZ
    Number of shells: 880
    Number of basis functions: 1938
    Number of Cartesian functions: 2039
    Spherical Harmonics?: true
    Max angular momentum: 2

   => Loading Basis Set <=

    Name: (JUN-CC-PVDZ AUX)
    Role: JKFIT
    Keyword: DF_BASIS_SCF
    atoms 1                                                   entry B          line    90 file /opt/software/pc2/EB-SW/software/PSI4/1.9-foss-2022a/share/psi4/basis/jun-cc-pvdz-jkfit.gbs 
    atoms 2-5                                                 entry F          line   314 file /opt/software/pc2/EB-SW/software/PSI4/1.9-foss-2022a/share/psi4/basis/jun-cc-pvdz-jkfit.gbs 
    atoms 6-23, 30-42, 45-59, 62-78, 81-93, 98-108, 111-119   entry C          line   146 file /opt/software/pc2/EB-SW/software/PSI4/1.9-foss-2022a/share/psi4/basis/jun-cc-pvdz-jkfit.gbs 
    atoms 24-29, 43-44, 60-61, 79-80, 94-97, 109-110, 120-125 entry H          line    70 file /opt/software/pc2/EB-SW/software/PSI4/1.9-foss-2022a/share/psi4/basis/jun-cc-pvdz-jkfit.gbs 

  ==> Integral Setup <==

  ==> DiskDFJK: Density-Fitted J/K Matrices <==

    J tasked:                  Yes
    K tasked:                  Yes
    wK tasked:                  No
    OpenMP threads:             16
    Integrals threads:          16
    Memory [MiB]:            33617
    Algorithm:                Disk
    Integral Cache:           SAVE
    Schwarz Cutoff:          1E-12
    Fitting Condition:       1E-10

   => Auxiliary Basis Set <=

  Basis Set: (JUN-CC-PVDZ AUX)
    Blend: JUN-CC-PVDZ-JKFIT
    Number of shells: 2943
    Number of basis functions: 8531
    Number of Cartesian functions: 9791
    Spherical Harmonics?: true
    Max angular momentum: 3

  Minimum eigenvalue in the overlap matrix is 5.6823166206E-11.
  Reciprocal condition number of the overlap matrix is 2.2097029467E-12.
    Using canonical orthogonalization.
  Overall, 39 of 1938 possible MOs eliminated.


  ==> Pre-Iterations <==

  SCF Guess: Superposition of Atomic Densities via on-the-fly atomic UHF (no occupation information).

   -------------------------
    Irrep   Nso     Nmo    
   -------------------------
     A       1938    1899 
   -------------------------
    Total    1938    1899
   -------------------------

  ==> Iterations <==

                           Total Energy        Delta E     RMS |[F,P]|

   @DF-RHF iter SAD: -4088.35242309595424   -4.08835e+03   0.00000e+00 
   @DF-RHF iter   1: -4070.86478629480416    1.74876e+01   7.86649e-04 DIIS/ADIIS
   @DF-RHF iter   2: -4072.31760629767723   -1.45282e+00   2.84851e-04 DIIS/ADIIS
   @DF-RHF iter   3: -4072.47730337943904   -1.59697e-01   1.12640e-04 DIIS/ADIIS
   @DF-RHF iter   4: -4072.50422513183912   -2.69218e-02   4.80118e-05 DIIS
   @DF-RHF iter   5: -4072.50990208901658   -5.67696e-03   1.30362e-05 DIIS
   @DF-RHF iter   6: -4072.51068173723070   -7.79648e-04   6.59595e-06 DIIS
   @DF-RHF iter   7: -4072.51118668291747   -5.04946e-04   4.22230e-06 DIIS
   @DF-RHF iter   8: -4072.51142163073519   -2.34948e-04   2.69829e-06 DIIS
   @DF-RHF iter   9: -4072.51154126914389   -1.19638e-04   1.43200e-06 DIIS
   @DF-RHF iter  10: -4072.51157018540653   -2.89163e-05   9.39793e-07 DIIS
   @DF-RHF iter  11: -4072.51158464790296   -1.44625e-05   4.92631e-07 DIIS
   @DF-RHF iter  12: -4072.51158979921911   -5.15132e-06   2.60333e-07 DIIS
   @DF-RHF iter  13: -4072.51159080929801   -1.01008e-06   1.14648e-07 DIIS
   @DF-RHF iter  14: -4072.51159099434881   -1.85051e-07   6.54014e-08 DIIS
   @DF-RHF iter  15: -4072.51159102942574   -3.50769e-08   2.34886e-08 DIIS
   @DF-RHF iter  16: -4072.51159103316377   -3.73802e-09   1.27152e-08 DIIS
   @DF-RHF iter  17: -4072.51159103387545   -7.11680e-10   5.72325e-09 DIIS
  Energy and wave function converged.


  ==> Post-Iterations <==

    Orbital Energies [Eh]
    ---------------------

    Doubly Occupied:                                                      

       1A    -26.262136     2A    -26.260262     3A    -26.254150  
       4A    -26.197969     5A    -11.236156     6A    -11.235461  
       7A    -11.232946     8A    -11.188566     9A    -11.188542  
      10A    -11.188513    11A    -11.188401    12A    -11.188370  
      13A    -11.188345    14A    -11.188041    15A    -11.187985  
      16A    -11.187935    17A    -11.187910    18A    -11.187817  
      19A    -11.187772    20A    -11.187702    21A    -11.187604  
      22A    -11.187597    23A    -11.187544    24A    -11.187507  
      25A    -11.187480    26A    -11.187258    27A    -11.187201  
      28A    -11.187190    29A    -11.187180    30A    -11.187142  
      31A    -11.187129    32A    -11.187125    33A    -11.187089  
      34A    -11.187055    35A    -11.186495    36A    -11.186436  
      37A    -11.186368    38A    -11.186337    39A    -11.186302  
      40A    -11.186284    41A    -11.185785    42A    -11.185640  
      43A    -11.185631    44A    -11.185623    45A    -11.185603  
      46A    -11.185422    47A    -11.184745    48A    -11.184676  
      49A    -11.184616    50A    -11.184579    51A    -11.184527  
      52A    -11.184453    53A    -11.183683    54A    -11.183649  
      55A    -11.183576    56A    -11.183542    57A    -11.183536  
      58A    -11.183468    59A    -11.183452    60A    -11.183438  
      61A    -11.183425    62A    -11.183411    63A    -11.183374  
      64A    -11.183335    65A    -11.182474    66A    -11.182281  
      67A    -11.182137    68A    -11.180574    69A    -11.180476  
      70A    -11.180364    71A    -11.180323    72A    -11.180236  
      73A    -11.180224    74A    -11.174049    75A    -11.173999  
      76A    -11.173782    77A    -11.173650    78A    -11.173506  
      79A    -11.173501    80A    -11.172778    81A    -11.172757  
      82A    -11.172405    83A    -11.168763    84A    -11.168713  
      85A    -11.168477    86A    -11.168313    87A    -11.168146  
      88A    -11.168097    89A    -11.163349    90A    -11.163165  
      91A    -11.162748    92A    -11.162469    93A    -11.162465  
      94A    -11.162431    95A    -11.154901    96A    -11.153943  
      97A    -11.153760    98A    -11.144325    99A    -11.143867  
     100A    -11.142788   101A     -7.724960   102A     -1.662886  
     103A     -1.614220   104A     -1.608745   105A     -1.492173  
     106A     -1.173668   107A     -1.158579   108A     -1.158567  
     109A     -1.142588   110A     -1.141549   111A     -1.141464  
     112A     -1.124260   113A     -1.117301   114A     -1.110594  
     115A     -1.110446   116A     -1.097367   117A     -1.097350  
     118A     -1.081523   119A     -1.076042   120A     -1.075972  
     121A     -1.069169   122A     -1.069131   123A     -1.049844  
     124A     -1.041828   125A     -1.041480   126A     -1.039266  
     127A     -1.036297   128A     -1.034102   129A     -1.011659  
     130A     -1.011641   131A     -1.003214   132A     -1.003144  
     133A     -0.993074   134A     -0.990771   135A     -0.990747  
     136A     -0.972067   137A     -0.971958   138A     -0.963935  
     139A     -0.963924   140A     -0.962919   141A     -0.951635  
     142A     -0.951249   143A     -0.949304   144A     -0.933556  
     145A     -0.928082   146A     -0.927941   147A     -0.925515  
     148A     -0.925428   149A     -0.915810   150A     -0.898045  
     151A     -0.897889   152A     -0.882914   153A     -0.882849  
     154A     -0.861132   155A     -0.844964   156A     -0.844865  
     157A     -0.831541   158A     -0.831495   159A     -0.819834  
     160A     -0.819711   161A     -0.819121   162A     -0.816746  
     163A     -0.816498   164A     -0.811737   165A     -0.797585  
     166A     -0.796245   167A     -0.776844   168A     -0.776415  
     169A     -0.775745   170A     -0.764736   171A     -0.764427  
     172A     -0.763673   173A     -0.760493   174A     -0.756212  
     175A     -0.756128   176A     -0.742613   177A     -0.742402  
     178A     -0.729045   179A     -0.712624   180A     -0.712029  
     181A     -0.710230   182A     -0.710163   183A     -0.696150  
     184A     -0.696039   185A     -0.695549   186A     -0.694097  
     187A     -0.686694   188A     -0.676873   189A     -0.673755  
     190A     -0.672797   191A     -0.658849   192A     -0.654504  
     193A     -0.653813   194A     -0.647012   195A     -0.646665  
     196A     -0.646478   197A     -0.644264   198A     -0.644003  
     199A     -0.640486   200A     -0.637930   201A     -0.624233  
     202A     -0.623969   203A     -0.617771   204A     -0.617041  
     205A     -0.610255   206A     -0.610223   207A     -0.608621  
     208A     -0.604395   209A     -0.604358   210A     -0.602752  
     211A     -0.592859   212A     -0.574785   213A     -0.574721  
     214A     -0.574199   215A     -0.569563   216A     -0.566962  
     217A     -0.566936   218A     -0.563391   219A     -0.562773  
     220A     -0.559800   221A     -0.559625   222A     -0.556182  
     223A     -0.556090   224A     -0.551443   225A     -0.542544  
     226A     -0.542390   227A     -0.537866   228A     -0.537689  
     229A     -0.533010   230A     -0.532980   231A     -0.525928  
     232A     -0.521642   233A     -0.519825   234A     -0.519618  
     235A     -0.519567   236A     -0.518950   237A     -0.518910  
     238A     -0.518349   239A     -0.515956   240A     -0.515935  
     241A     -0.513498   242A     -0.513471   243A     -0.508206  
     244A     -0.505831   245A     -0.503934   246A     -0.503863  
     247A     -0.497860   248A     -0.497789   249A     -0.496707  
     250A     -0.491503   251A     -0.491465   252A     -0.488280  
     253A     -0.488112   254A     -0.487498   255A     -0.483875  
     256A     -0.479916   257A     -0.479884   258A     -0.475538  
     259A     -0.475096   260A     -0.475090   261A     -0.467946  
     262A     -0.458027   263A     -0.457957   264A     -0.453162  
     265A     -0.452021   266A     -0.452002   267A     -0.447431  
     268A     -0.443343   269A     -0.443224   270A     -0.441381  
     271A     -0.441365   272A     -0.439615   273A     -0.439600  
     274A     -0.434317   275A     -0.434289   276A     -0.420918  
     277A     -0.419198   278A     -0.419152   279A     -0.412983  
     280A     -0.412918   281A     -0.405963   282A     -0.402479  
     283A     -0.402457   284A     -0.397148   285A     -0.389185  
     286A     -0.388620   287A     -0.388559   288A     -0.381786  
     289A     -0.372393   290A     -0.366639   291A     -0.366537  
     292A     -0.363489   293A     -0.361269   294A     -0.344448  
     295A     -0.344265   296A     -0.343114   297A     -0.329176  
     298A     -0.329144   299A     -0.309643   300A     -0.309590  
     301A     -0.305963   302A     -0.305914   303A     -0.277438  
     304A     -0.276007   305A     -0.276000   306A     -0.274467  
     307A     -0.259717   308A     -0.259706   309A     -0.247383  
     310A     -0.233731   311A     -0.233408   312A     -0.227588  
     313A     -0.218894   314A     -0.213000   315A     -0.212722  
     316A     -0.200286   317A     -0.185829   318A     -0.156102  
     319A     -0.155098   320A     -0.120718   321A     -0.120088  

    Virtual:                                                              

     322A      0.068389   323A      0.068574   324A      0.097532  
     325A      0.097563   326A      0.098369   327A      0.100945  
     328A      0.101017   329A      0.106407   330A      0.108201  
     331A      0.108639   332A      0.113850   333A      0.113858  
     334A      0.119615   335A      0.119876   336A      0.122327  
     337A      0.125217   338A      0.125228   339A      0.134100  
     340A      0.136602   341A      0.136814   342A      0.139182  
     343A      0.142299   344A      0.143106   345A      0.144174  
     346A      0.144227   347A      0.144722   348A      0.147793  
     349A      0.148063   350A      0.149972   351A      0.151865  
     352A      0.152025   353A      0.152372   354A      0.152428  
     355A      0.152729   356A      0.152772   357A      0.154050  
     358A      0.157678   359A      0.161511   360A      0.161592  
     361A      0.165136   362A      0.165393   363A      0.167241  
     364A      0.167301   365A      0.167928   366A      0.167983  
     367A      0.168165   368A      0.175697   369A      0.177243  
     370A      0.180078   371A      0.180431   372A      0.180597  
     373A      0.180905   374A      0.181043   375A      0.182581  
     376A      0.182938   377A      0.183017   378A      0.193416  
     379A      0.193455   380A      0.193907   381A      0.195589  
     382A      0.196846   383A      0.197407   384A      0.198832  
     385A      0.198953   386A      0.201714   387A      0.201719  
     388A      0.207306   389A      0.207315   390A      0.209316  
     391A      0.213279   392A      0.213477   393A      0.216536  
     394A      0.216935   395A      0.218381   396A      0.218483  
     397A      0.219342   398A      0.220711   399A      0.221403  
     400A      0.221706   401A      0.222657   402A      0.226519  
     403A      0.227303   404A      0.227320   405A      0.227928  
     406A      0.229034   407A      0.229198   408A      0.231725  
     409A      0.231901   410A      0.231944   411A      0.235222  
     412A      0.236074   413A      0.237229   414A      0.237440  
     415A      0.245389   416A      0.245409   417A      0.246168  
     418A      0.246495   419A      0.246538   420A      0.247085  
     421A      0.247154   422A      0.252699   423A      0.254076  
     424A      0.254984   425A      0.255081   426A      0.255242  
     427A      0.259957   428A      0.260186   429A      0.261380  
     430A      0.263432   431A      0.263871   432A      0.265965  
     433A      0.266312   434A      0.267168   435A      0.267894  
     436A      0.269014   437A      0.269218   438A      0.270496  
     439A      0.270614   440A      0.274844   441A      0.274870  
     442A      0.276195   443A      0.276230   444A      0.276801  
     445A      0.277817   446A      0.278062   447A      0.278256  
     448A      0.279301   449A      0.279379   450A      0.280377  
     451A      0.280400   452A      0.283263   453A      0.283339  
     454A      0.285993   455A      0.288196   456A      0.288626  
     457A      0.295063   458A      0.295206   459A      0.296590  
     460A      0.297280   461A      0.297922   462A      0.298051  
     463A      0.298291   464A      0.298687   465A      0.298728  
     466A      0.298865   467A      0.298981   468A      0.301559  
     469A      0.304010   470A      0.308156   471A      0.308661  
     472A      0.308829   473A      0.312486   474A      0.312775  
     475A      0.313353   476A      0.317611   477A      0.317811  
     478A      0.318225   479A      0.320111   480A      0.320238  
     481A      0.324386   482A      0.324990   483A      0.325075  
     484A      0.326119   485A      0.326140   486A      0.328244  
     487A      0.328298   488A      0.328838   489A      0.329900  
     490A      0.330295   491A      0.332246   492A      0.332282  
     493A      0.332880   494A      0.333044   495A      0.340366  
     496A      0.343001   497A      0.343075   498A      0.343215  
     499A      0.343249   500A      0.343901   501A      0.343943  
     502A      0.346692   503A      0.347531   504A      0.347566  
     505A      0.349018   506A      0.351782   507A      0.351967  
     508A      0.353740   509A      0.356479   510A      0.356504  
     511A      0.356695   512A      0.359554   513A      0.360475  
     514A      0.363204   515A      0.363221   516A      0.363924  
     517A      0.368666   518A      0.368830   519A      0.370611  
     520A      0.370766   521A      0.371711   522A      0.371797  
     523A      0.372296   524A      0.374313   525A      0.374358  
     526A      0.375797   527A      0.375870   528A      0.376113  
     529A      0.376209   530A      0.379472   531A      0.381362  
     532A      0.381918   533A      0.381956   534A      0.382227  
     535A      0.385940   536A      0.386007   537A      0.387792  
     538A      0.387883   539A      0.389565   540A      0.389708  
     541A      0.392144   542A      0.392545   543A      0.392760  
     544A      0.394500   545A      0.394691   546A      0.396492  
     547A      0.396683   548A      0.396848   549A      0.397318  
     550A      0.398382   551A      0.400438   552A      0.400878  
     553A      0.400920   554A      0.401086   555A      0.402815  
     556A      0.406030   557A      0.406087   558A      0.407737  
     559A      0.410635   560A      0.411478   561A      0.413274  
     562A      0.413345   563A      0.414478   564A      0.416777  
     565A      0.417146   566A      0.417480   567A      0.419100  
     568A      0.419656   569A      0.423578   570A      0.425264  
     571A      0.426114   572A      0.429199   573A      0.429357  
     574A      0.429639   575A      0.433037   576A      0.434892  
     577A      0.435329   578A      0.436723   579A      0.436760  
     580A      0.437017   581A      0.438870   582A      0.438905  
     583A      0.439907   584A      0.442653   585A      0.442830  
     586A      0.443292   587A      0.444655   588A      0.446181  
     589A      0.447921   590A      0.448033   591A      0.448794  
     592A      0.448838   593A      0.451280   594A      0.451444  
     595A      0.456338   596A      0.458742   597A      0.458980  
     598A      0.459037   599A      0.461844   600A      0.461892  
     601A      0.464300   602A      0.465226   603A      0.465401  
     604A      0.467679   605A      0.467747   606A      0.469464  
     607A      0.469605   608A      0.469721   609A      0.470775  
     610A      0.471007   611A      0.471055   612A      0.471784  
     613A      0.473756   614A      0.474467   615A      0.475127  
     616A      0.475609   617A      0.475674   618A      0.476175  
     619A      0.476958   620A      0.477526   621A      0.477621  
     622A      0.479677   623A      0.480120   624A      0.480330  
     625A      0.480760   626A      0.480792   627A      0.482792  
     628A      0.482954   629A      0.483387   630A      0.484258  
     631A      0.484393   632A      0.487767   633A      0.490008  
     634A      0.491739   635A      0.491814   636A      0.491973  
     637A      0.494249   638A      0.494430   639A      0.495190  
     640A      0.496391   641A      0.499357   642A      0.499609  
     643A      0.502415   644A      0.502735   645A      0.503584  
     646A      0.504104   647A      0.506269   648A      0.506442  
     649A      0.507386   650A      0.507622   651A      0.508355  
     652A      0.508409   653A      0.508504   654A      0.509835  
     655A      0.510858   656A      0.511666   657A      0.511800  
     658A      0.513119   659A      0.517355   660A      0.517505  
     661A      0.520275   662A      0.520922   663A      0.521247  
     664A      0.521383   665A      0.523405   666A      0.524053  
     667A      0.524504   668A      0.525271   669A      0.525659  
     670A      0.526105   671A      0.526796   672A      0.527718  
     673A      0.528455   674A      0.529376   675A      0.532845  
     676A      0.533089   677A      0.535925   678A      0.536781  
     679A      0.536981   680A      0.538943   681A      0.539153  
     682A      0.540673   683A      0.541268   684A      0.543303  
     685A      0.543477   686A      0.543959   687A      0.544305  
     688A      0.544837   689A      0.545464   690A      0.548586  
     691A      0.548610   692A      0.550283   693A      0.551524  
     694A      0.553916   695A      0.554253   696A      0.554443  
     697A      0.556455   698A      0.557048   699A      0.557328  
     700A      0.557669   701A      0.558470   702A      0.558833  
     703A      0.560362   704A      0.561425   705A      0.561608  
     706A      0.562349   707A      0.563635   708A      0.564288  
     709A      0.564937   710A      0.568430   711A      0.568995  
     712A      0.571448   713A      0.571937   714A      0.572492  
     715A      0.572767   716A      0.573230   717A      0.573410  
     718A      0.573609   719A      0.574249   720A      0.577344  
     721A      0.579909   722A      0.580908   723A      0.581425  
     724A      0.583136   725A      0.583413   726A      0.587339  
     727A      0.587389   728A      0.588058   729A      0.589186  
     730A      0.590325   731A      0.591972   732A      0.592124  
     733A      0.593789   734A      0.594101   735A      0.594548  
     736A      0.597293   737A      0.602475   738A      0.604714  
     739A      0.605708   740A      0.606244   741A      0.609956  
     742A      0.611875   743A      0.614528   744A      0.615260  
     745A      0.616282   746A      0.617509   747A      0.618353  
     748A      0.618644   749A      0.620736   750A      0.621971  
     751A      0.628662   752A      0.629204   753A      0.629623  
     754A      0.630834   755A      0.632835   756A      0.633481  
     757A      0.634058   758A      0.634324   759A      0.636318  
     760A      0.636543   761A      0.639376   762A      0.639810  
     763A      0.640220   764A      0.640390   765A      0.641762  
     766A      0.642633   767A      0.645192   768A      0.648843  
     769A      0.652743   770A      0.655113   771A      0.655256  
     772A      0.655932   773A      0.656421   774A      0.656660  
     775A      0.662258   776A      0.662372   777A      0.664534  
     778A      0.668970   779A      0.670217   780A      0.674478  
     781A      0.675063   782A      0.676088   783A      0.676271  
     784A      0.677082   785A      0.679449   786A      0.680563  
     787A      0.681304   788A      0.687242   789A      0.687824  
     790A      0.689072   791A      0.689661   792A      0.692264  
     793A      0.696216   794A      0.700312   795A      0.700363  
     796A      0.702803   797A      0.703383   798A      0.707287  
     799A      0.710725   800A      0.714789   801A      0.715498  
     802A      0.715807   803A      0.717358   804A      0.718091  
     805A      0.727140   806A      0.729868   807A      0.730211  
     808A      0.731667   809A      0.731875   810A      0.732473  
     811A      0.736333   812A      0.736460   813A      0.740329  
     814A      0.741197   815A      0.741633   816A      0.748095  
     817A      0.748846   818A      0.755600   819A      0.756348  
     820A      0.760212   821A      0.761136   822A      0.762815  
     823A      0.762972   824A      0.764349   825A      0.766668  
     826A      0.766945   827A      0.770616   828A      0.770799  
     829A      0.775069   830A      0.779894   831A      0.780779  
     832A      0.785829   833A      0.786869   834A      0.787250  
     835A      0.790617   836A      0.803863   837A      0.806593  
     838A      0.806818   839A      0.809026   840A      0.809497  
     841A      0.810358   842A      0.818765   843A      0.820250  
     844A      0.820815   845A      0.825134   846A      0.828336  
     847A      0.828404   848A      0.829526   849A      0.846371  
     850A      0.846771   851A      0.853026   852A      0.859191  
     853A      0.862654   854A      0.862787   855A      0.865174  
     856A      0.868584   857A      0.869436   858A      0.870177  
     859A      0.871768   860A      0.874323   861A      0.876790  
     862A      0.877611   863A      0.879043   864A      0.879668  
     865A      0.885638   866A      0.886606   867A      0.886967  
     868A      0.887737   869A      0.888409   870A      0.889098  
     871A      0.889291   872A      0.890673   873A      0.898622  
     874A      0.899455   875A      0.900215   876A      0.905391  
     877A      0.908261   878A      0.909407   879A      0.912505  
     880A      0.916463   881A      0.917205   882A      0.918652  
     883A      0.919918   884A      0.920223   885A      0.921703  
     886A      0.923067   887A      0.931078   888A      0.931411  
     889A      0.933977   890A      0.934500   891A      0.936112  
     892A      0.936795   893A      0.937698   894A      0.938524  
     895A      0.939421   896A      0.940295   897A      0.945393  
     898A      0.945442   899A      0.947518   900A      0.948240  
     901A      0.951604   902A      0.952929   903A      0.955496  
     904A      0.958215   905A      0.958641   906A      0.960555  
     907A      0.960929   908A      0.963266   909A      0.964622  
     910A      0.965446   911A      0.967560   912A      0.968052  
     913A      0.969540   914A      0.973905   915A      0.973934  
     916A      0.978420   917A      0.978661   918A      0.985154  
     919A      0.985340   920A      0.987988   921A      0.988468  
     922A      0.990168   923A      0.990379   924A      0.991616  
     925A      0.992972   926A      0.993277   927A      0.995350  
     928A      0.997477   929A      0.997949   930A      1.000979  
     931A      1.001379   932A      1.001778   933A      1.005099  
     934A      1.005297   935A      1.007805   936A      1.009886  
     937A      1.013329   938A      1.013586   939A      1.016852  
     940A      1.019297   941A      1.019632   942A      1.020262  
     943A      1.021829   944A      1.024534   945A      1.024827  
     946A      1.025013   947A      1.025394   948A      1.025643  
     949A      1.026797   950A      1.029750   951A      1.030063  
     952A      1.032423   953A      1.032787   954A      1.036048  
     955A      1.037540   956A      1.037990   957A      1.040521  
     958A      1.041620   959A      1.047592   960A      1.048414  
     961A      1.049427   962A      1.054301   963A      1.057991  
     964A      1.059376   965A      1.064108   966A      1.064246  
     967A      1.067918   968A      1.068239   969A      1.071311  
     970A      1.074936   971A      1.075989   972A      1.076262  
     973A      1.077210   974A      1.078784   975A      1.079561  
     976A      1.079667   977A      1.087802   978A      1.088096  
     979A      1.088592   980A      1.090671   981A      1.091742  
     982A      1.092207   983A      1.095081   984A      1.097291  
     985A      1.098012   986A      1.100898   987A      1.106069  
     988A      1.109042   989A      1.109360   990A      1.112194  
     991A      1.112387   992A      1.118353   993A      1.118863  
     994A      1.119051   995A      1.119488   996A      1.122500  
     997A      1.122813   998A      1.123378   999A      1.125782  
    1000A      1.126198  1001A      1.127062  1002A      1.127479  
    1003A      1.129901  1004A      1.130295  1005A      1.131354  
    1006A      1.134978  1007A      1.136295  1008A      1.136812  
    1009A      1.137113  1010A      1.137754  1011A      1.138449  
    1012A      1.138721  1013A      1.142702  1014A      1.144145  
    1015A      1.144207  1016A      1.144810  1017A      1.146417  
    1018A      1.146876  1019A      1.148179  1020A      1.148450  
    1021A      1.150339  1022A      1.150654  1023A      1.151681  
    1024A      1.152074  1025A      1.153452  1026A      1.153961  
    1027A      1.155245  1028A      1.155505  1029A      1.155982  
    1030A      1.156254  1031A      1.159111  1032A      1.159259  
    1033A      1.159488  1034A      1.160256  1035A      1.160480  
    1036A      1.161127  1037A      1.161551  1038A      1.161774  
    1039A      1.162872  1040A      1.163612  1041A      1.166448  
    1042A      1.166671  1043A      1.170265  1044A      1.170564  
    1045A      1.171453  1046A      1.172110  1047A      1.172876  
    1048A      1.175805  1049A      1.176488  1050A      1.180029  
    1051A      1.180788  1052A      1.181508  1053A      1.183723  
    1054A      1.186973  1055A      1.187049  1056A      1.188793  
    1057A      1.191024  1058A      1.191914  1059A      1.194280  
    1060A      1.196452  1061A      1.197037  1062A      1.200059  
    1063A      1.200476  1064A      1.206499  1065A      1.206965  
    1066A      1.207288  1067A      1.211282  1068A      1.211511  
    1069A      1.213506  1070A      1.215212  1071A      1.215757  
    1072A      1.216167  1073A      1.217404  1074A      1.220474  
    1075A      1.223901  1076A      1.224881  1077A      1.225280  
    1078A      1.228300  1079A      1.230634  1080A      1.231049  
    1081A      1.231376  1082A      1.236034  1083A      1.236174  
    1084A      1.238878  1085A      1.239500  1086A      1.243513  
    1087A      1.244647  1088A      1.245162  1089A      1.246475  
    1090A      1.248000  1091A      1.249553  1092A      1.253789  
    1093A      1.256198  1094A      1.257918  1095A      1.260955  
    1096A      1.262046  1097A      1.262730  1098A      1.264683  
    1099A      1.265405  1100A      1.272431  1101A      1.273479  
    1102A      1.277674  1103A      1.277860  1104A      1.281872  
    1105A      1.282411  1106A      1.283956  1107A      1.284703  
    1108A      1.285222  1109A      1.286318  1110A      1.290032  
    1111A      1.290585  1112A      1.290854  1113A      1.292404  
    1114A      1.294423  1115A      1.295542  1116A      1.296244  
    1117A      1.296945  1118A      1.297393  1119A      1.301406  
    1120A      1.301940  1121A      1.305834  1122A      1.306751  
    1123A      1.320608  1124A      1.327052  1125A      1.327442  
    1126A      1.327700  1127A      1.333530  1128A      1.336516  
    1129A      1.336668  1130A      1.339596  1131A      1.340567  
    1132A      1.341820  1133A      1.342298  1134A      1.342774  
    1135A      1.343303  1136A      1.348652  1137A      1.349193  
    1138A      1.355460  1139A      1.355652  1140A      1.359961  
    1141A      1.362255  1142A      1.362432  1143A      1.368537  
    1144A      1.369172  1145A      1.369577  1146A      1.371029  
    1147A      1.372064  1148A      1.378602  1149A      1.379462  
    1150A      1.379995  1151A      1.383348  1152A      1.386355  
    1153A      1.388996  1154A      1.389919  1155A      1.390541  
    1156A      1.390734  1157A      1.394002  1158A      1.397236  
    1159A      1.400502  1160A      1.401174  1161A      1.402352  
    1162A      1.403269  1163A      1.403587  1164A      1.405740  
    1165A      1.406501  1166A      1.408193  1167A      1.410322  
    1168A      1.410468  1169A      1.411311  1170A      1.413271  
    1171A      1.413906  1172A      1.422865  1173A      1.423667  
    1174A      1.430682  1175A      1.430844  1176A      1.434740  
    1177A      1.435129  1178A      1.435619  1179A      1.435768  
    1180A      1.438615  1181A      1.438923  1182A      1.439957  
    1183A      1.446269  1184A      1.447850  1185A      1.452882  
    1186A      1.454261  1187A      1.454426  1188A      1.455953  
    1189A      1.462204  1190A      1.462518  1191A      1.462851  
    1192A      1.466350  1193A      1.466472  1194A      1.469972  
    1195A      1.477180  1196A      1.477585  1197A      1.479859  
    1198A      1.483018  1199A      1.484642  1200A      1.484818  
    1201A      1.485271  1202A      1.486340  1203A      1.486398  
    1204A      1.489599  1205A      1.492056  1206A      1.492239  
    1207A      1.496420  1208A      1.496871  1209A      1.499282  
    1210A      1.499683  1211A      1.507378  1212A      1.507975  
    1213A      1.508304  1214A      1.509323  1215A      1.510989  
    1216A      1.511647  1217A      1.512297  1218A      1.514542  
    1219A      1.515308  1220A      1.519128  1221A      1.519944  
    1222A      1.523768  1223A      1.527579  1224A      1.527918  
    1225A      1.530348  1226A      1.531336  1227A      1.539951  
    1228A      1.540207  1229A      1.543831  1230A      1.543938  
    1231A      1.546708  1232A      1.548256  1233A      1.550894  
    1234A      1.550987  1235A      1.551235  1236A      1.558057  
    1237A      1.562012  1238A      1.562206  1239A      1.562668  
    1240A      1.569253  1241A      1.569678  1242A      1.575195  
    1243A      1.575278  1244A      1.575701  1245A      1.577996  
    1246A      1.589476  1247A      1.589797  1248A      1.589987  
    1249A      1.610503  1250A      1.610633  1251A      1.616100  
    1252A      1.621393  1253A      1.621939  1254A      1.623453  
    1255A      1.637258  1256A      1.637335  1257A      1.654260  
    1258A      1.662876  1259A      1.663908  1260A      1.668846  
    1261A      1.671195  1262A      1.682785  1263A      1.683880  
    1264A      1.685861  1265A      1.686482  1266A      1.687481  
    1267A      1.687803  1268A      1.690807  1269A      1.691437  
    1270A      1.693903  1271A      1.694354  1272A      1.694522  
    1273A      1.697779  1274A      1.698938  1275A      1.701679  
    1276A      1.703096  1277A      1.703645  1278A      1.705582  
    1279A      1.707611  1280A      1.709100  1281A      1.710378  
    1282A      1.711686  1283A      1.713281  1284A      1.715211  
    1285A      1.716475  1286A      1.717207  1287A      1.718861  
    1288A      1.719962  1289A      1.721541  1290A      1.722240  
    1291A      1.724816  1292A      1.725554  1293A      1.726631  
    1294A      1.727311  1295A      1.730398  1296A      1.731543  
    1297A      1.737216  1298A      1.738162  1299A      1.738595  
    1300A      1.743977  1301A      1.745149  1302A      1.745432  
    1303A      1.745624  1304A      1.747871  1305A      1.748837  
    1306A      1.749070  1307A      1.750532  1308A      1.751227  
    1309A      1.752183  1310A      1.758022  1311A      1.759709  
    1312A      1.760835  1313A      1.763973  1314A      1.767824  
    1315A      1.768500  1316A      1.769231  1317A      1.773164  
    1318A      1.775624  1319A      1.776204  1320A      1.780328  
    1321A      1.780595  1322A      1.785776  1323A      1.786037  
    1324A      1.786264  1325A      1.788634  1326A      1.792152  
    1327A      1.794548  1328A      1.796198  1329A      1.797002  
    1330A      1.803007  1331A      1.803163  1332A      1.804234  
    1333A      1.813965  1334A      1.818382  1335A      1.818861  
    1336A      1.823123  1337A      1.823799  1338A      1.829833  
    1339A      1.830903  1340A      1.834669  1341A      1.836584  
    1342A      1.842760  1343A      1.847337  1344A      1.854517  
    1345A      1.857030  1346A      1.858960  1347A      1.859203  
    1348A      1.865934  1349A      1.882191  1350A      1.883845  
    1351A      1.885468  1352A      1.890810  1353A      1.891017  
    1354A      1.897099  1355A      1.899656  1356A      1.899993  
    1357A      1.902467  1358A      1.903546  1359A      1.908077  
    1360A      1.908270  1361A      1.909561  1362A      1.913326  
    1363A      1.918432  1364A      1.918816  1365A      1.922586  
    1366A      1.923593  1367A      1.925580  1368A      1.927973  
    1369A      1.929242  1370A      1.929940  1371A      1.938562  
    1372A      1.938958  1373A      1.940368  1374A      1.940554  
    1375A      1.946333  1376A      1.947426  1377A      1.947737  
    1378A      1.949275  1379A      1.949831  1380A      1.952514  
    1381A      1.953912  1382A      1.955877  1383A      1.956643  
    1384A      1.957254  1385A      1.957539  1386A      1.961199  
    1387A      1.961520  1388A      1.962245  1389A      1.967442  
    1390A      1.970964  1391A      1.977165  1392A      1.979287  
    1393A      1.979850  1394A      1.980374  1395A      1.984203  
    1396A      1.990501  1397A      1.990903  1398A      1.993530  
    1399A      1.996043  1400A      1.996855  1401A      2.000330  
    1402A      2.001747  1403A      2.005784  1404A      2.006129  
    1405A      2.008491  1406A      2.008569  1407A      2.012210  
    1408A      2.013161  1409A      2.015202  1410A      2.016607  
    1411A      2.018900  1412A      2.020134  1413A      2.020746  
    1414A      2.022408  1415A      2.022997  1416A      2.028165  
    1417A      2.029094  1418A      2.030067  1419A      2.034511  
    1420A      2.035132  1421A      2.036518  1422A      2.037754  
    1423A      2.038063  1424A      2.043577  1425A      2.045190  
    1426A      2.049773  1427A      2.050305  1428A      2.050627  
    1429A      2.054733  1430A      2.056939  1431A      2.058182  
    1432A      2.058804  1433A      2.059857  1434A      2.062900  
    1435A      2.063104  1436A      2.063284  1437A      2.066709  
    1438A      2.073757  1439A      2.079015  1440A      2.080878  
    1441A      2.081236  1442A      2.083270  1443A      2.084300  
    1444A      2.089914  1445A      2.090757  1446A      2.091635  
    1447A      2.092872  1448A      2.093587  1449A      2.095173  
    1450A      2.095792  1451A      2.098510  1452A      2.098859  
    1453A      2.099971  1454A      2.106702  1455A      2.107241  
    1456A      2.109223  1457A      2.109736  1458A      2.112450  
    1459A      2.113021  1460A      2.114599  1461A      2.115215  
    1462A      2.121111  1463A      2.122735  1464A      2.123396  
    1465A      2.127613  1466A      2.128381  1467A      2.128419  
    1468A      2.133465  1469A      2.136697  1470A      2.137870  
    1471A      2.138107  1472A      2.143217  1473A      2.145648  
    1474A      2.146524  1475A      2.147829  1476A      2.148916  
    1477A      2.150027  1478A      2.153903  1479A      2.154162  
    1480A      2.155597  1481A      2.155949  1482A      2.158126  
    1483A      2.160737  1484A      2.161192  1485A      2.161433  
    1486A      2.161699  1487A      2.163820  1488A      2.164010  
    1489A      2.164892  1490A      2.165273  1491A      2.167987  
    1492A      2.168238  1493A      2.172409  1494A      2.176031  
    1495A      2.176282  1496A      2.177118  1497A      2.177663  
    1498A      2.178120  1499A      2.178725  1500A      2.179263  
    1501A      2.182834  1502A      2.184073  1503A      2.185240  
    1504A      2.185706  1505A      2.188884  1506A      2.189855  
    1507A      2.194840  1508A      2.195185  1509A      2.196477  
    1510A      2.196617  1511A      2.197628  1512A      2.200604  
    1513A      2.201226  1514A      2.202099  1515A      2.203897  
    1516A      2.204532  1517A      2.205508  1518A      2.206534  
    1519A      2.207468  1520A      2.209472  1521A      2.209881  
    1522A      2.215252  1523A      2.215990  1524A      2.217083  
    1525A      2.218412  1526A      2.220444  1527A      2.221239  
    1528A      2.222908  1529A      2.230452  1530A      2.231413  
    1531A      2.231976  1532A      2.237219  1533A      2.237548  
    1534A      2.238602  1535A      2.239164  1536A      2.240014  
    1537A      2.240456  1538A      2.243196  1539A      2.247547  
    1540A      2.247644  1541A      2.251687  1542A      2.252607  
    1543A      2.253216  1544A      2.256978  1545A      2.258882  
    1546A      2.259034  1547A      2.265624  1548A      2.267721  
    1549A      2.269595  1550A      2.270932  1551A      2.271418  
    1552A      2.271776  1553A      2.275023  1554A      2.275537  
    1555A      2.276060  1556A      2.276396  1557A      2.279393  
    1558A      2.280453  1559A      2.285769  1560A      2.286794  
    1561A      2.289807  1562A      2.294041  1563A      2.294898  
    1564A      2.296255  1565A      2.298324  1566A      2.301296  
    1567A      2.301734  1568A      2.302330  1569A      2.303034  
    1570A      2.305170  1571A      2.305510  1572A      2.307659  
    1573A      2.308796  1574A      2.309844  1575A      2.311103  
    1576A      2.313875  1577A      2.317105  1578A      2.321012  
    1579A      2.321401  1580A      2.327907  1581A      2.329407  
    1582A      2.332916  1583A      2.333859  1584A      2.335857  
    1585A      2.337805  1586A      2.345110  1587A      2.348594  
    1588A      2.349689  1589A      2.350274  1590A      2.351575  
    1591A      2.355603  1592A      2.362506  1593A      2.363347  
    1594A      2.366937  1595A      2.373900  1596A      2.376160  
    1597A      2.377276  1598A      2.379127  1599A      2.381008  
    1600A      2.382975  1601A      2.386703  1602A      2.387349  
    1603A      2.402063  1604A      2.402620  1605A      2.403802  
    1606A      2.405437  1607A      2.406985  1608A      2.407432  
    1609A      2.410104  1610A      2.413261  1611A      2.414363  
    1612A      2.414830  1613A      2.417051  1614A      2.419619  
    1615A      2.421801  1616A      2.422754  1617A      2.423302  
    1618A      2.430053  1619A      2.431647  1620A      2.432260  
    1621A      2.446560  1622A      2.447264  1623A      2.447395  
    1624A      2.456603  1625A      2.459425  1626A      2.465225  
    1627A      2.468826  1628A      2.474635  1629A      2.484017  
    1630A      2.492339  1631A      2.492634  1632A      2.498074  
    1633A      2.499551  1634A      2.505983  1635A      2.507447  
    1636A      2.515561  1637A      2.519976  1638A      2.524261  
    1639A      2.533974  1640A      2.537736  1641A      2.538749  
    1642A      2.539745  1643A      2.543628  1644A      2.544291  
    1645A      2.546527  1646A      2.550142  1647A      2.555144  
    1648A      2.558642  1649A      2.560347  1650A      2.574181  
    1651A      2.576265  1652A      2.578568  1653A      2.582954  
    1654A      2.583271  1655A      2.585553  1656A      2.608178  
    1657A      2.608700  1658A      2.610153  1659A      2.616453  
    1660A      2.617436  1661A      2.618613  1662A      2.619936  
    1663A      2.626560  1664A      2.629446  1665A      2.631388  
    1666A      2.632049  1667A      2.633742  1668A      2.637030  
    1669A      2.642098  1670A      2.644627  1671A      2.644855  
    1672A      2.650174  1673A      2.651375  1674A      2.652991  
    1675A      2.658560  1676A      2.660117  1677A      2.661663  
    1678A      2.662212  1679A      2.665299  1680A      2.666647  
    1681A      2.669447  1682A      2.671856  1683A      2.676794  
    1684A      2.678776  1685A      2.679074  1686A      2.689554  
    1687A      2.689847  1688A      2.696338  1689A      2.697811  
    1690A      2.699403  1691A      2.703160  1692A      2.704557  
    1693A      2.708981  1694A      2.719051  1695A      2.722321  
    1696A      2.723301  1697A      2.724048  1698A      2.725136  
    1699A      2.729333  1700A      2.732607  1701A      2.733077  
    1702A      2.736014  1703A      2.744903  1704A      2.745211  
    1705A      2.745600  1706A      2.747323  1707A      2.747527  
    1708A      2.752264  1709A      2.755944  1710A      2.758735  
    1711A      2.761809  1712A      2.768689  1713A      2.768805  
    1714A      2.771648  1715A      2.773179  1716A      2.773561  
    1717A      2.777118  1718A      2.778336  1719A      2.783800  
    1720A      2.784743  1721A      2.787018  1722A      2.802878  
    1723A      2.804567  1724A      2.805825  1725A      2.806133  
    1726A      2.812343  1727A      2.812879  1728A      2.825784  
    1729A      2.849012  1730A      2.857744  1731A      2.858760  
    1732A      2.866024  1733A      2.867474  1734A      2.869170  
    1735A      2.880518  1736A      2.881008  1737A      2.881592  
    1738A      2.882105  1739A      2.889935  1740A      2.893974  
    1741A      2.894898  1742A      2.895639  1743A      2.899699  
    1744A      2.902289  1745A      2.910115  1746A      2.911912  
    1747A      2.915538  1748A      2.916983  1749A      2.919955  
    1750A      2.928051  1751A      2.931219  1752A      2.943708  
    1753A      2.943884  1754A      2.944326  1755A      2.946027  
    1756A      2.951972  1757A      2.968725  1758A      2.969193  
    1759A      2.971547  1760A      2.972453  1761A      2.991522  
    1762A      2.991711  1763A      2.997227  1764A      3.000358  
    1765A      3.003220  1766A      3.018176  1767A      3.018422  
    1768A      3.038287  1769A      3.041986  1770A      3.042403  
    1771A      3.051112  1772A      3.070299  1773A      3.071370  
    1774A      3.083722  1775A      3.107777  1776A      3.108053  
    1777A      3.119809  1778A      3.121162  1779A      3.130957  
    1780A      3.132406  1781A      3.132996  1782A      3.136857  
    1783A      3.137064  1784A      3.138477  1785A      3.151707  
    1786A      3.184631  1787A      3.189322  1788A      3.189808  
    1789A      3.201428  1790A      3.206278  1791A      3.206618  
    1792A      3.213137  1793A      3.213999  1794A      3.217151  
    1795A      3.217657  1796A      3.224450  1797A      3.224934  
    1798A      3.228500  1799A      3.234862  1800A      3.239834  
    1801A      3.240738  1802A      3.245473  1803A      3.250525  
    1804A      3.254124  1805A      3.254955  1806A      3.268282  
    1807A      3.269044  1808A      3.294001  1809A      3.332923  
    1810A      3.338134  1811A      3.339364  1812A      3.340345  
    1813A      3.341517  1814A      3.342601  1815A      3.350290  
    1816A      3.350740  1817A      3.351541  1818A      3.352870  
    1819A      3.376294  1820A      3.377817  1821A      3.385853  
    1822A      3.391251  1823A      3.395696  1824A      3.439653  
    1825A      3.440133  1826A      3.472863  1827A      3.493002  
    1828A      3.513134  1829A      3.518655  1830A      3.526816  
    1831A      3.540373  1832A      3.546986  1833A      3.547709  
    1834A      3.563775  1835A      3.565805  1836A      3.571465  
    1837A      3.586366  1838A      3.588032  1839A      3.597075  
    1840A      3.622923  1841A      3.624110  1842A      3.652936  
    1843A      3.666962  1844A      3.669349  1845A      3.671152  
    1846A      3.688312  1847A      3.708601  1848A      3.721508  
    1849A      3.755008  1850A      3.755315  1851A      3.758654  
    1852A      3.776041  1853A      3.796358  1854A      3.799921  
    1855A      3.837547  1856A      3.841185  1857A      3.854477  
    1858A      3.885442  1859A      3.887189  1860A      3.926571  
    1861A      3.931766  1862A      3.959415  1863A      3.966574  
    1864A      4.000786  1865A      4.002301  1866A      4.026091  
    1867A      4.028348  1868A      4.049470  1869A      4.054114  
    1870A      4.069991  1871A      4.076523  1872A      4.098210  
    1873A      4.108135  1874A      4.122610  1875A      4.126919  
    1876A      4.150550  1877A      4.178648  1878A      4.179846  
    1879A      4.188343  1880A      4.211424  1881A      4.248460  
    1882A      4.262132  1883A      4.308132  1884A      4.330200  
    1885A      4.333754  1886A      4.397949  1887A      4.404179  
    1888A      4.464320  1889A      4.469850  1890A      4.511817  
    1891A      4.534753  1892A      4.544086  1893A      4.568595  
    1894A      4.634848  1895A      4.642159  1896A      4.674860  
    1897A      4.682726  1898A      4.784961  1899A      5.088932  

    Final Occupation by Irrep:
              A 
    DOCC [   321 ]
    NA   [   321 ]
    NB   [   321 ]

  @DF-RHF Final Energy: -4072.51159103387545

   => Energetics <=

    Nuclear Repulsion Energy =          18088.8393446238806064
    One-Electron Energy =              -41664.1639696319980430
    Two-Electron Energy =               19502.8130339742419892
    Total Energy =                      -4072.5115910338754475

Computation Completed


Properties will be evaluated at   0.000000,   0.000000,   0.000000 [a0]

Properties computed using the SCF density matrix


 Multipole Moments:

 ------------------------------------------------------------------------------------
     Multipole            Electronic (a.u.)      Nuclear  (a.u.)        Total (a.u.)
 ------------------------------------------------------------------------------------

 L = 1.  Multiply by 2.5417464519 to convert [e a0] to [Debye]
 Dipole X            :          0.0221449           -0.0000548            0.0220902
 Dipole Y            :          0.0123694           -0.0002464            0.0121230
 Dipole Z            :         11.4691675          -11.9026900           -0.4335225
 Magnitude           :                                                    0.4342542

 ------------------------------------------------------------------------------------

*** tstop() called on n2cn0303 at Thu Jan 25 01:57:08 2024
Module time:
	user time   =   28713.58 seconds =     478.56 minutes
	system time =    2003.37 seconds =      33.39 minutes
	total time  =      13270 seconds =     221.17 minutes
Total time:
	user time   =   28713.58 seconds =     478.56 minutes
	system time =    2003.37 seconds =      33.39 minutes
	total time  =      13270 seconds =     221.17 minutes

  //>>>>>>>>>>>>>>>>>>>>>>>>>>>>>>>>>>>//
  //            Monomer A HF           //
  //<<<<<<<<<<<<<<<<<<<<<<<<<<<<<<<<<<<//

   => Libint2 <=

    Primary   basis highest AM E, G, H:  5, 4, 3
    Auxiliary basis highest AM E, G, H:  6, 5, 4
    Onebody   basis highest AM E, G, H:  6, 5, 4
    Solid Harmonics ordering:            gaussian

*** tstart() called on n2cn0303
*** at Thu Jan 25 01:57:08 2024

   => Loading Basis Set <=

    Name: JUN-CC-PVDZ
    Role: ORBITAL
    Keyword: BASIS
    atoms 1                                                   entry B          line   130 file /opt/software/pc2/EB-SW/software/PSI4/1.9-foss-2022a/share/psi4/basis/jun-cc-pvdz.gbs 
    atoms 2-5                                                 entry F          line   266 file /opt/software/pc2/EB-SW/software/PSI4/1.9-foss-2022a/share/psi4/basis/jun-cc-pvdz.gbs 
    atoms 6-23, 30-42, 45-59, 62-78, 81-93, 98-108, 111-119   entry C          line   164 file /opt/software/pc2/EB-SW/software/PSI4/1.9-foss-2022a/share/psi4/basis/jun-cc-pvdz.gbs 
    atoms 24-29, 43-44, 60-61, 79-80, 94-97, 109-110, 120-125 entry H          line    36 file /opt/software/pc2/EB-SW/software/PSI4/1.9-foss-2022a/share/psi4/basis/jun-cc-pvdz.gbs 


         ---------------------------------------------------------
                                   SCF
               by Justin Turney, Rob Parrish, Andy Simmonett
                          and Daniel G. A. Smith
                              RHF Reference
                       16 Threads,  44822 MiB Core
         ---------------------------------------------------------

  ==> Geometry <==

    Molecular point group: c1
    Full point group: C1

    Geometry (in Angstrom), charge = -1, multiplicity = 1:

       Center              X                  Y                   Z               Mass       
    ------------   -----------------  -----------------  -----------------  -----------------
         B           -0.000201921932     0.000288800891     1.862279824961    11.009305360000
         F           -0.000004162732     0.000014527991     3.275064824961    18.998403162730
         F            1.147855837268     0.675795727991     1.391138824961    18.998403162730
         F            0.011913897268    -1.331996472009     1.391340824961    18.998403162730
         F           -1.159670162732     0.656088027991     1.391419824961    18.998403162730
      Gh(C)          -3.668445426752     7.803766698073    -0.135854133703    12.000000000000
      Gh(C)          -4.847602882078     7.131256359331    -0.138220708635    12.000000000000
      Gh(C)          -4.894963461907     5.696344931522    -0.138793619734    12.000000000000
      Gh(C)          -3.653744841505     4.980744868950    -0.131133178004    12.000000000000
      Gh(C)          -2.409429284226     7.113995564665    -0.135659791443    12.000000000000
      Gh(C)          -2.425481506836     5.681136478894    -0.142664680313    12.000000000000
      Gh(C)          -1.194748179167     7.786158722300    -0.134187610901    12.000000000000
      Gh(C)           0.037954866205     7.099436173748    -0.136358315206    12.000000000000
      Gh(C)           0.030328424687     5.669504087695    -0.141841700122    12.000000000000
      Gh(C)          -1.200988670637     4.969284875906    -0.132871966188    12.000000000000
      Gh(C)           1.277953663083     7.772873971185    -0.134982466645    12.000000000000
      Gh(C)           2.485353921992     7.087711413228    -0.137256954550    12.000000000000
      Gh(C)           2.486124522185     5.654785338231    -0.144194703538    12.000000000000
      Gh(C)           1.254078756912     4.956092641655    -0.132566761950    12.000000000000
      Gh(C)           3.751710428674     7.763926678971    -0.137130103170    12.000000000000
      Gh(C)           4.923561893453     7.078795304981    -0.139186583878    12.000000000000
      Gh(C)           4.955603108594     5.643461991360    -0.139346996685    12.000000000000
      Gh(C)           3.706797371473     4.941224736324    -0.134255436515    12.000000000000
      Gh(H)          -3.658525300490     8.890841947126    -0.134169145453     1.007825032230
      Gh(H)          -1.189217492488     8.874135615351    -0.130215734460     1.007825032230
      Gh(H)           1.284290076155     8.860847963479    -0.130823642504     1.007825032230
      Gh(H)           3.753537924068     8.851049806963    -0.135607578854     1.007825032230
[...]
    1531A      2.185886  1532A      2.190367  1533A      2.197140  
    1534A      2.197822  1535A      2.198792  1536A      2.199316  
    1537A      2.200104  1538A      2.201548  1539A      2.207674  
    1540A      2.208462  1541A      2.209410  1542A      2.209981  
    1543A      2.211161  1544A      2.220993  1545A      2.222587  
    1546A      2.224207  1547A      2.224422  1548A      2.224988  
    1549A      2.228173  1550A      2.228905  1551A      2.229512  
    1552A      2.232020  1553A      2.232443  1554A      2.235237  
    1555A      2.235649  1556A      2.236291  1557A      2.236765  
    1558A      2.240658  1559A      2.246115  1560A      2.247610  
    1561A      2.249441  1562A      2.250253  1563A      2.250782  
    1564A      2.254952  1565A      2.264865  1566A      2.269735  
    1567A      2.270608  1568A      2.273339  1569A      2.275305  
    1570A      2.276918  1571A      2.282192  1572A      2.284193  
    1573A      2.284816  1574A      2.288651  1575A      2.289401  
    1576A      2.295311  1577A      2.295676  1578A      2.296794  
    1579A      2.300347  1580A      2.301558  1581A      2.304383  
    1582A      2.306912  1583A      2.315635  1584A      2.316210  
    1585A      2.323713  1586A      2.325754  1587A      2.330085  
    1588A      2.330868  1589A      2.331243  1590A      2.332745  
    1591A      2.334105  1592A      2.337056  1593A      2.338265  
    1594A      2.338932  1595A      2.341963  1596A      2.342919  
    1597A      2.343681  1598A      2.344709  1599A      2.345582  
    1600A      2.347652  1601A      2.348345  1602A      2.358031  
    1603A      2.360163  1604A      2.369868  1605A      2.372337  
    1606A      2.381487  1607A      2.388313  1608A      2.389806  
    1609A      2.390599  1610A      2.396835  1611A      2.404530  
    1612A      2.408034  1613A      2.413765  1614A      2.416685  
    1615A      2.420542  1616A      2.424875  1617A      2.426788  
    1618A      2.430421  1619A      2.441030  1620A      2.449235  
    1621A      2.453672  1622A      2.457782  1623A      2.465006  
    1624A      2.467236  1625A      2.467634  1626A      2.468973  
    1627A      2.472472  1628A      2.472789  1629A      2.476825  
    1630A      2.488831  1631A      2.490820  1632A      2.494135  
    1633A      2.496855  1634A      2.496965  1635A      2.505887  
    1636A      2.513423  1637A      2.520397  1638A      2.523287  
    1639A      2.524878  1640A      2.541073  1641A      2.542911  
    1642A      2.543397  1643A      2.543565  1644A      2.546275  
    1645A      2.546790  1646A      2.554542  1647A      2.557164  
    1648A      2.562166  1649A      2.563119  1650A      2.563813  
    1651A      2.564353  1652A      2.565453  1653A      2.569865  
    1654A      2.571659  1655A      2.574776  1656A      2.585888  
    1657A      2.587340  1658A      2.589019  1659A      2.589650  
    1660A      2.591174  1661A      2.591336  1662A      2.593367  
    1663A      2.594767  1664A      2.603367  1665A      2.603952  
    1666A      2.604420  1667A      2.614286  1668A      2.614911  
    1669A      2.615274  1670A      2.615560  1671A      2.623739  
    1672A      2.624947  1673A      2.633795  1674A      2.647127  
    1675A      2.647918  1676A      2.648654  1677A      2.649618  
    1678A      2.651416  1679A      2.653115  1680A      2.658052  
    1681A      2.658308  1682A      2.659688  1683A      2.660783  
    1684A      2.666504  1685A      2.671866  1686A      2.672167  
    1687A      2.673773  1688A      2.674768  1689A      2.675373  
    1690A      2.682246  1691A      2.682494  1692A      2.691125  
    1693A      2.691424  1694A      2.694704  1695A      2.695871  
    1696A      2.695953  1697A      2.697063  1698A      2.698309  
    1699A      2.702176  1700A      2.705536  1701A      2.721592  
    1702A      2.728158  1703A      2.731001  1704A      2.732477  
    1705A      2.732846  1706A      2.736052  1707A      2.736326  
    1708A      2.765741  1709A      2.776523  1710A      2.782512  
    1711A      2.785780  1712A      2.786265  1713A      2.788125  
    1714A      2.789866  1715A      2.800964  1716A      2.801468  
    1717A      2.803870  1718A      2.803923  1719A      2.814904  
    1720A      2.818115  1721A      2.819043  1722A      2.822760  
    1723A      2.823006  1724A      2.830161  1725A      2.831123  
    1726A      2.837785  1727A      2.840482  1728A      2.843078  
    1729A      2.848469  1730A      2.850178  1731A      2.866074  
    1732A      2.866767  1733A      2.870245  1734A      2.871222  
    1735A      2.875151  1736A      2.878936  1737A      2.890207  
    1738A      2.895508  1739A      2.896522  1740A      2.901412  
    1741A      2.916803  1742A      2.917511  1743A      2.917524  
    1744A      2.925422  1745A      2.929281  1746A      2.932284  
    1747A      2.946007  1748A      2.948331  1749A      2.963449  
    1750A      2.967714  1751A      2.968185  1752A      2.976145  
    1753A      2.998852  1754A      2.999835  1755A      3.033466  
    1756A      3.033686  1757A      3.045754  1758A      3.047095  
    1759A      3.054480  1760A      3.055496  1761A      3.058605  
    1762A      3.061014  1763A      3.061718  1764A      3.068905  
    1765A      3.074046  1766A      3.112286  1767A      3.113043  
    1768A      3.113880  1769A      3.124824  1770A      3.130316  
    1771A      3.130677  1772A      3.140602  1773A      3.141007  
    1774A      3.144518  1775A      3.145170  1776A      3.146012  
    1777A      3.146907  1778A      3.155819  1779A      3.162180  
    1780A      3.163438  1781A      3.164111  1782A      3.169344  
    1783A      3.173314  1784A      3.185586  1785A      3.186311  
    1786A      3.195713  1787A      3.196664  1788A      3.223090  
    1789A      3.244718  1790A      3.246053  1791A      3.260103  
    1792A      3.264764  1793A      3.267170  1794A      3.268541  
    1795A      3.268867  1796A      3.271317  1797A      3.277201  
    1798A      3.277343  1799A      3.286733  1800A      3.286997  
    1801A      3.304781  1802A      3.305539  1803A      3.343811  
    1804A      3.347060  1805A      3.367366  1806A      3.368331  
    1807A      3.395715  1808A      3.413432  1809A      3.434398  
    1810A      3.459486  1811A      3.461156  1812A      3.465374  
    1813A      3.467758  1814A      3.478597  1815A      3.481283  
    1816A      3.487804  1817A      3.491320  1818A      3.494820  
    1819A      3.512012  1820A      3.514985  1821A      3.519787  
    1822A      3.552841  1823A      3.561112  1824A      3.589205  
    1825A      3.592044  1826A      3.593215  1827A      3.605263  
    1828A      3.680493  1829A      3.684185  1830A      3.691510  
    1831A      3.698088  1832A      3.714173  1833A      3.719162  
    1834A      3.762210  1835A      3.766780  1836A      3.778888  
    1837A      3.807452  1838A      3.810271  1839A      3.850731  
    1840A      3.854324  1841A      3.883514  1842A      3.888994  
    1843A      3.924525  1844A      3.926487  1845A      3.950567  
    1846A      3.951473  1847A      3.976451  1848A      3.977595  
    1849A      3.996062  1850A      4.024727  1851A      4.027707  
    1852A      4.066891  1853A      4.144524  1854A      4.180341  
    1855A      4.249626  1856A      4.430344  1857A      4.518230  
    1858A      4.557527  1859A      4.747770  1860A      4.951438  
    1861A      4.972381  1862A      5.044183  1863A      5.799592  
    1864A      5.800032  1865A      5.835747  1866A      5.886088  
    1867A      5.889145  1868A      5.937229  1869A      6.006760  
    1870A      6.013773  1871A      6.018415  1872A      6.078897  
    1873A      6.083531  1874A      6.148235  1875A      6.159975  
    1876A      6.213766  1877A      6.282876  1878A      6.373241  
    1879A      6.374608  1880A      6.417874  1881A      6.420397  
    1882A      6.474855  1883A      7.439804  1884A      7.441376  
    1885A      7.639942  1886A      7.742847  1887A      7.756382  
    1888A      7.778275  1889A      7.945024  1890A      7.953148  
    1891A      8.044669  1892A      8.132960  1893A      8.142158  
    1894A      8.249545  1895A     13.125247  1896A     42.970919  
    1897A     42.999846  1898A     43.000432  1899A     43.014150  

    Final Occupation by Irrep:
              A 
    DOCC [   300 ]
    NA   [   300 ]
    NB   [   300 ]

  @DF-RHF Final Energy: -3650.34168601619695

   => Energetics <=

    Nuclear Repulsion Energy =          15611.4211649754324753
    One-Electron Energy =              -36072.1776044130310765
    Two-Electron Energy =               16810.4147534214025654
    Total Energy =                      -3650.3416860161960358

Computation Completed


Properties will be evaluated at   0.000000,   0.000000,   0.000000 [a0]

Properties computed using the SCF density matrix


 Multipole Moments:

 ------------------------------------------------------------------------------------
     Multipole            Electronic (a.u.)      Nuclear  (a.u.)        Total (a.u.)
 ------------------------------------------------------------------------------------

 L = 1.  Multiply by 2.5417464519 to convert [e a0] to [Debye]
 Dipole X            :         -0.0001945            0.0002304            0.0000359
 Dipole Y            :          0.0011250           -0.0013052           -0.0001802
 Dipole Z            :        156.1921264         -156.1872062            0.0049202
 Magnitude           :                                                    0.0049237

 ------------------------------------------------------------------------------------

*** tstop() called on n2cn0303 at Thu Jan 25 05:07:55 2024
Module time:
	user time   =   17748.83 seconds =     295.81 minutes
	system time =    1106.85 seconds =      18.45 minutes
	total time  =       7510 seconds =     125.17 minutes
Total time:
	user time   =   51291.88 seconds =     854.86 minutes
	system time =    3428.04 seconds =      57.13 minutes
	total time  =      24717 seconds =     411.95 minutes
  Constructing Basis Sets for SAPT...

   => Loading Basis Set <=

    Name: (JUN-CC-PVDZ AUX)
    Role: RIFIT
    Keyword: DF_BASIS_SAPT
    atoms 1                                                   entry B          line    56 file /opt/software/pc2/EB-SW/software/PSI4/1.9-foss-2022a/share/psi4/basis/jun-cc-pvdz-ri.gbs 
    atoms 2-5                                                 entry F          line   232 file /opt/software/pc2/EB-SW/software/PSI4/1.9-foss-2022a/share/psi4/basis/jun-cc-pvdz-ri.gbs 
    atoms 6-23, 30-42, 45-59, 62-78, 81-93, 98-108, 111-119   entry C          line   100 file /opt/software/pc2/EB-SW/software/PSI4/1.9-foss-2022a/share/psi4/basis/jun-cc-pvdz-ri.gbs 
    atoms 24-29, 43-44, 60-61, 79-80, 94-97, 109-110, 120-125 entry H          line    30 file /opt/software/pc2/EB-SW/software/PSI4/1.9-foss-2022a/share/psi4/basis/jun-cc-pvdz-ri.gbs 

   => Loading Basis Set <=

    Name: (JUN-CC-PVDZ AUX)
    Role: JKFIT
    Keyword: DF_BASIS_ELST
    atoms 1                                                   entry B          line    90 file /opt/software/pc2/EB-SW/software/PSI4/1.9-foss-2022a/share/psi4/basis/jun-cc-pvdz-jkfit.gbs 
    atoms 2-5                                                 entry F          line   314 file /opt/software/pc2/EB-SW/software/PSI4/1.9-foss-2022a/share/psi4/basis/jun-cc-pvdz-jkfit.gbs 
    atoms 6-23, 30-42, 45-59, 62-78, 81-93, 98-108, 111-119   entry C          line   146 file /opt/software/pc2/EB-SW/software/PSI4/1.9-foss-2022a/share/psi4/basis/jun-cc-pvdz-jkfit.gbs 
    atoms 24-29, 43-44, 60-61, 79-80, 94-97, 109-110, 120-125 entry H          line    70 file /opt/software/pc2/EB-SW/software/PSI4/1.9-foss-2022a/share/psi4/basis/jun-cc-pvdz-jkfit.gbs 


  //>>>>>>>>>>>>>>>>>>>>>>>>>>>>>>>>>>>//
  //               SSAPT0              //
  //<<<<<<<<<<<<<<<<<<<<<<<<<<<<<<<<<<<//


*** tstart() called on n2cn0303
*** at Thu Jan 25 05:07:56 2024

        SAPT0  
    Ed Hohenstein
     6 June 2009

      Orbital Information
  --------------------------
    NSO        =      1938
    NMO        =      1899
    NRI        =      6901
    NRI (Elst) =      8531
    NOCC A     =        21
    NOCC B     =       300
    FOCC A     =         5
    FOCC B     =        96
    NVIR A     =      1878
    NVIR B     =      1599

    Elst10,r            =    -0.686316991544 [Eh]
    Exch10              =     1.529105672022 [Eh]
    Exch10 (S^2)        =     1.339750582731 [Eh]

    Iter     Energy [mEh]          dE [mEh]         Residual      Time [s]
       1    -320.83711044     320.837110436     145.106195864           345
       2    -369.49897060      48.661860162      61.709265461           659
       3    -394.87847907      25.379508474      12.237038663          1010
       4    -394.25583029      -0.622648779       3.292064299          1569
       5    -393.62307449      -0.632755798       0.811199745          1954
       6    -393.60145083      -0.021623662       0.225585797          2349
       7    -393.63603566       0.034584828       0.047156625          2763
       8    -393.63609466       0.000058994       0.010577822          3114
       9    -393.63497978      -0.001114872       0.001458096          3391
      10    -393.63511832       0.000138535       0.000234617          3748
      11    -393.63510880      -0.000009514       0.000034927          4080
      12    -393.63510839      -0.000000410       0.000007678          4420
      13    -393.63510870       0.000000308       0.000002788          4753
      14    -393.63510876       0.000000056       0.000000794          5070

    CHF Iterations converged


    Iter     Energy [mEh]          dE [mEh]         Residual      Time [s]
       1    -636.84257665     636.842576651     186.094927733           391
       2    -664.73935636      27.896779711      79.687893899          1271
       3    -751.86046194      87.121105581      28.594782920          1655
       4    -752.47705805       0.616596107      20.824839464          2104
       5    -745.09962191      -7.377436137      13.212839367          2579
       6    -746.10783307       1.008211158       8.515505402          3007
       7    -748.89484713       2.787014056       5.152406566          3401
       8    -748.96746901       0.072621879       3.013413777          3773
       9    -748.21672854      -0.750740467       1.337780094          4253
      10    -748.23630664       0.019578099       0.627819584          4665
      11    -748.36042323       0.124116590       0.277244316          5110
      12    -748.36289731       0.002474081       0.115211397          5545
      13    -748.34604045      -0.016856861       0.045565204          5979
      14    -748.34340692      -0.002633524       0.018925436          6429
      15    -748.34507490       0.001667974       0.007132135          6803
      16    -748.34564895       0.000574048       0.003796312          7162
      17    -748.34555822      -0.000090723       0.001914295          7579
      18    -748.34534373      -0.000214496       0.001122338          7978
      19    -748.34537462       0.000030892       0.000617458          8391
      20    -748.34543720       0.000062577       0.000357845          8783
      21    -748.34543961       0.000002416       0.000193296          9126
      22    -748.34542015      -0.000019464       0.000085534          9473
      23    -748.34541979      -0.000000354       0.000037720          9848
      24    -748.34542280       0.000003009       0.000013790         10174
      25    -748.34542289       0.000000088       0.000005924         10529
      26    -748.34542257      -0.000000319       0.000003338         10944
      27    -748.34542245      -0.000000126       0.000001960         11324
      28    -748.34542255       0.000000104       0.000001053         11666
      29    -748.34542258       0.000000030       0.000000515         12061

    CHF Iterations converged

    Ind20,r (A<-B)      =    -0.393635108758 [Eh]
    Ind20,r (B<-A)      =    -0.748345422580 [Eh]
    Ind20,r             =    -1.141980531339 [Eh]
    Exch-Ind20,r (A<-B) =     0.243500130057 [Eh]
    Exch-Ind20,r (B<-A) =     0.540366911333 [Eh]
    Exch-Ind20,r        =     0.783867041390 [Eh]
    Disp20              =    -0.207371909718 [Eh]
    Disp20 (SS)         =    -0.103685954859 [Eh]
    Disp20 (OS)         =    -0.103685954859 [Eh]
    Exch-Disp20         =     0.083333100284 [Eh]
    Exch-Disp20 (SS)    =     0.038459261267 [Eh]
    Exch-Disp20 (OS)    =     0.044873839017 [Eh]

    SAPT Results 
  --------------------------------------------------------------------------------------------------------
    Electrostatics               -686.31699154 [mEh]    -430.67041421 [kcal/mol]   -1801.92501305 [kJ/mol]
      Elst10,r                   -686.31699154 [mEh]    -430.67041421 [kcal/mol]   -1801.92501305 [kJ/mol]

    Exchange                     1529.10567202 [mEh]     959.52829560 [kcal/mol]    4014.66638879 [kJ/mol]
      Exch10                     1529.10567202 [mEh]     959.52829560 [kcal/mol]    4014.66638879 [kJ/mol]
      Exch10(S^2)                1339.75058273 [mEh]     840.70618316 [kcal/mol]    3517.51467035 [kJ/mol]

    Induction                    -232.30250076 [mEh]    -145.77202001 [kcal/mol]    -609.91013171 [kJ/mol]
      Ind20,r                   -1141.98053134 [mEh]    -716.60360228 [kcal/mol]   -2998.26947196 [kJ/mol]
      Exch-Ind20,r                783.86704139 [mEh]     491.88399465 [kcal/mol]    2058.04263363 [kJ/mol]
      delta HF,r (2)              125.81098919 [mEh]      78.94758762 [kcal/mol]     330.31670661 [kJ/mol]

    Dispersion                   -124.03880943 [mEh]     -77.83552804 [kcal/mol]    -325.66384930 [kJ/mol]
      Disp20                     -207.37190972 [mEh]    -130.12783794 [kcal/mol]    -544.45487395 [kJ/mol]
      Exch-Disp20                  83.33310028 [mEh]      52.29230991 [kcal/mol]     218.79102465 [kJ/mol]
      Disp20 (SS)                -103.68595486 [mEh]     -65.06391897 [kcal/mol]    -272.22743698 [kJ/mol]
      Disp20 (OS)                -103.68595486 [mEh]     -65.06391897 [kcal/mol]    -272.22743698 [kJ/mol]
      Exch-Disp20 (SS)             38.45926127 [mEh]      24.13355080 [kcal/mol]     100.97477655 [kJ/mol]
      Exch-Disp20 (OS)             44.87383902 [mEh]      28.15875911 [kcal/mol]     117.81624811 [kJ/mol]

  Total HF                        610.48617972 [mEh]     383.08586139 [kcal/mol]    1602.83124403 [kJ/mol]
  Total SAPT0                     486.44737029 [mEh]     305.25033335 [kcal/mol]    1277.16739473 [kJ/mol]

  Special recipe for scaled SAPT0 (see Manual):
    Electrostatics sSAPT0        -686.31699154 [mEh]    -430.67041421 [kcal/mol]   -1801.92501305 [kJ/mol]
    Exchange sSAPT0              1529.10567202 [mEh]     959.52829560 [kcal/mol]    4014.66638879 [kJ/mol]
    Induction sSAPT0              149.25199160 [mEh]      93.65703871 [kcal/mol]     391.86104995 [kJ/mol]
    Dispersion sSAPT0             -83.47565638 [mEh]     -52.38176521 [kcal/mol]    -219.16530563 [kJ/mol]
  Total sSAPT0                    908.56501570 [mEh]     570.13315489 [kcal/mol]    2385.43712007 [kJ/mol]
  --------------------------------------------------------------------------------------------------------

*** tstop() called on n2cn0303 at Thu Jan 25 17:35:03 2024
Module time:
	user time   =   70794.90 seconds =    1179.91 minutes
	system time =    4123.92 seconds =      68.73 minutes
	total time  =      44827 seconds =     747.12 minutes
Total time:
	user time   =  122088.13 seconds =    2034.80 minutes
	system time =    7551.96 seconds =     125.87 minutes
	total time  =      69545 seconds =    1159.08 minutes

    Psi4 stopped on: Thursday, 25 January 2024 05:35PM
    Psi4 wall time for execution: 19:19:06.92

*** Psi4 exiting successfully. Buy a developer a beer!
