
    -----------------------------------------------------------------------
          Psi4: An Open-Source Ab Initio Electronic Structure Package
                               Psi4 1.9 release

                         Git: Rev {} zzzzzzz 


    D. G. A. Smith, L. A. Burns, A. C. Simmonett, R. M. Parrish,
    M. C. Schieber, R. Galvelis, P. Kraus, H. Kruse, R. Di Remigio,
    A. Alenaizan, A. M. James, S. Lehtola, J. P. Misiewicz, M. Scheurer,
    R. A. Shaw, J. B. Schriber, Y. Xie, Z. L. Glick, D. A. Sirianni,
    J. S. O'Brien, J. M. Waldrop, A. Kumar, E. G. Hohenstein,
    B. P. Pritchard, B. R. Brooks, H. F. Schaefer III, A. Yu. Sokolov,
    K. Patkowski, A. E. DePrince III, U. Bozkaya, R. A. King,
    F. A. Evangelista, J. M. Turney, T. D. Crawford, C. D. Sherrill,
    J. Chem. Phys. 152(18) 184108 (2020). https://doi.org/10.1063/5.0006002

                            Additional Code Authors
    E. T. Seidl, C. L. Janssen, E. F. Valeev, M. L. Leininger,
    J. F. Gonthier, R. M. Richard, H. R. McAlexander, M. Saitow, X. Wang,
    P. Verma, M. H. Lechner, A. Jiang, S. Behnle, A. G. Heide,
    M. F. Herbst, and D. L. Poole

             Previous Authors, Complete List of Code Contributors,
                       and Citations for Specific Modules
    https://github.com/psi4/psi4/blob/master/codemeta.json
    https://github.com/psi4/psi4/graphs/contributors
    http://psicode.org/psi4manual/master/introduction.html#citing-psifour

    -----------------------------------------------------------------------


    Psi4 started on: Monday, 22 January 2024 12:03PM

    Process ID: 1880498
    Host:       d-6-11-4
    PSIDATADIR: /home/gridsan/tfroembgen/.conda/envs/psi4test/share/psi4
    Memory:     500.0 MiB
    Threads:    12
    
  ==> Input File <==

--------------------------------------------------------------------------
memory 32 GB # how much memory is available ! Depends on the nodes/cores !

molecule dimer {
# monomer A
-1 1    # Charge and multiplicity
B -0.000046  0.000337 6.999994
F -1.153597  0.000048 7.815641
F  1.153661 -0.000581 7.815641
F -0.000019 -1.153637 6.184360
F -0.000019  1.153978 6.184360
--
# monomer B
0 1     # Charge and multiplicity
C   1.22531237526482      0.70753866091955      0.00613762728373
C   1.22532433589282     -0.70753852257020     -0.00619318228664
C   -0.00000567409046      1.41496628609039     -0.00672680580738
C   2.45644923379077      1.41832825917820      0.00902448468363
C   0.00001130712078     -1.41497612663474      0.00347275151708
C   -1.22530046906674      0.70754574598412      0.00838914760619
C   2.45643823516184     -1.41832293188077     -0.00843833914343
C   -0.00000085313587      2.83680140328112     -0.00913035594137
C   3.68182717731192      0.70931832800114     -0.00808954934571
C   2.45512052870677      2.83422403348893     -0.00819210630633
C   3.68182158506039     -0.70933346742900      0.00798293467272
C   -1.22531311884624     -0.70752714354401     -0.00512042085974
C   1.22670006104402      3.54346985599427      0.00816696660346
C   0.00000526469929     -2.83678176723568      0.00832091913869
C   -2.45643555300670      1.41831729028492      0.00842454345199
C   2.45512389762097     -2.83422965658853      0.00783102630520
C   -1.22671388474763      3.54346943575023      0.00827029982280
C   4.91451777504333      1.42717324448953     -0.00160886631602
C   3.69315067131765      3.54279566454522     -0.00155906667985
C   -2.45643712022637     -1.41831290883911     -0.00846337726810
C   1.22670532178455     -3.54347386990643     -0.00780316414624
C   -2.45512491866593      2.83421703463423     -0.00818572995999
C   4.91452486062398     -1.42718653794377      0.00136387641845
C   1.22142509354026      4.97013443726031      0.00150231067809
C   4.89300870916237      2.82518837202648     -0.00039219795739
C   -1.22669652864725     -3.54347062507680     -0.00753595973677
C   -3.68181849668397      0.70932533873199     -0.00807686886569
C   3.69314758099218     -3.54280096939050      0.00148176697923
C   -1.22143177215231      4.97012866986289      0.00168580605083
C   6.13477145276790      0.68054831910577     -0.00083909176631
C   3.65678936045204      4.97295361556775     -0.00065042889723
C   -2.45512642789169     -2.83421472106065      0.00758666850712
C   -3.68181869921921     -0.70932533146830      0.00810055625144
C   4.89301309775526     -2.82519973363176      0.00021895393805
C   -0.00000059327114      5.65044773803267      0.00045449734393
C   6.13477559217374     -0.68055448207492      0.00042622874941
C   2.47813196269732      5.65357712333155      0.00063835075260
C   1.22142288457925     -4.97012668293268     -0.00129718634452
C   -3.69316190412301      3.54279732619245     -0.00139355922051
C   -1.22142804110313     -4.97011793159564     -0.00140994817719
C   -4.91452132810043      1.42717581899491     -0.00153192130862
C   3.65678749952045     -4.97295485423912      0.00080007163680
C   -2.47813805026426      5.65357479452875      0.00092287576113
C   -3.69314125872231     -3.54278984697859      0.00136564082345
C   -4.91451200321153     -1.42718062802730      0.00139857359209
C   -0.00000552908399     -5.65043791501335      0.00005899322272
C   -4.89302000425900      2.82518897091939     -0.00040227981744
C   2.47812647313991     -5.65357317188818     -0.00029052915548
C   -3.65679823041642      4.97295655404175     -0.00047374852278
C   -4.89299899901461     -2.82519139505969      0.00006491824035
C   -2.47812801824129     -5.65356579800621     -0.00056571680280
C   -6.13477002348955      0.68054913825639     -0.00086464346868
C   -3.65678835334731     -4.97294365097028      0.00058578382008
C   -6.13476456307132     -0.68055354348201      0.00040575295444
H   5.83528897565761      3.36927626695423      0.00396712770529
H   7.07385965258860      1.22821762089947     -0.00037744837300
H   4.60066374401555      5.51238117445323     -0.00014522814529
H   5.83528386714679     -3.36930568472863     -0.00423551337640
H   -0.00001167146422      6.73853104613662     -0.00389474766392
H   7.07386165167227     -1.22822657074368     -0.00008250934481
H   2.47331421164041      6.74068466339473      0.00017162982210
H   4.60066897122302     -5.51237575717576      0.00039007446835
H   -2.47331820069565      6.74068209160650      0.00047297644710
H   -0.00000978838621     -6.73852780445195      0.00458867820736
H   -5.83530143450167      3.36927132229595      0.00410314985360
H   2.47330840367253     -6.74068500242887      0.00027980126949
H   -4.60067436136587      5.51237839860371      0.00002010017831
H   -5.83527902699321     -3.36928859177951     -0.00451481925734
H   -2.47329986759855     -6.74067870613986     -0.00016951527498
H   -7.07385728692578      1.22822084484047     -0.00046143985387
H   -4.60067330624313     -5.51236229778631      0.00021776644566
H   -7.07385645456741     -1.22822025997701     -0.00017736581114

    units angstrom      # Angstroms are the default
    no_reorient         # Geometry fixed, default
    symmetry c1         # C1 symmetry, default
}

set {
    scf_type DF         # Density fitting, faster than exact integrals
    freeze_core True    # Freeze core electrons
    basis jun-cc-pVDZ   # Jun-cc-pVDZ basis set, recommended for sSAPT0 in https://doi.org/10.1063/1.4867135
}

energy('ssapt0')        # Compute sSAPT0 energy, includes also SAPT0
--------------------------------------------------------------------------

  Memory set to  29.802 GiB by Python driver.

Scratch directory: /state/partition1/slurm_tmp/24792934.4294967291.0/
   => Loading Basis Set <=

    Name: JUN-CC-PVDZ
    Role: ORBITAL
    Keyword: BASIS
    atoms 1     entry B          line   130 file /home/gridsan/tfroembgen/.conda/envs/psi4test/share/psi4/basis/jun-cc-pvdz.gbs 
    atoms 2-5   entry F          line   266 file /home/gridsan/tfroembgen/.conda/envs/psi4test/share/psi4/basis/jun-cc-pvdz.gbs 
    atoms 6-59  entry C          line   164 file /home/gridsan/tfroembgen/.conda/envs/psi4test/share/psi4/basis/jun-cc-pvdz.gbs 
    atoms 60-77 entry H          line    36 file /home/gridsan/tfroembgen/.conda/envs/psi4test/share/psi4/basis/jun-cc-pvdz.gbs 

   => Loading Basis Set <=

    Name: JUN-CC-PVDZ
    Role: ORBITAL
    Keyword: BASIS
    atoms 1     entry B          line   130 file /home/gridsan/tfroembgen/.conda/envs/psi4test/share/psi4/basis/jun-cc-pvdz.gbs 
    atoms 2-5   entry F          line   266 file /home/gridsan/tfroembgen/.conda/envs/psi4test/share/psi4/basis/jun-cc-pvdz.gbs 
    atoms 6-59  entry C          line   164 file /home/gridsan/tfroembgen/.conda/envs/psi4test/share/psi4/basis/jun-cc-pvdz.gbs 
    atoms 60-77 entry H          line    36 file /home/gridsan/tfroembgen/.conda/envs/psi4test/share/psi4/basis/jun-cc-pvdz.gbs 


  //>>>>>>>>>>>>>>>>>>>>>>>>>>>>>>>>>>>//
  //              Dimer HF             //
  //<<<<<<<<<<<<<<<<<<<<<<<<<<<<<<<<<<<//

   => Libint2 <=

    Primary   basis highest AM E, G, H:  7, 7, 4
    Auxiliary basis highest AM E, G, H:  7, 7, 5
    Onebody   basis highest AM E, G, H:  7, 7, 5
    Solid Harmonics ordering:            gaussian

*** tstart() called on d-6-11-4
*** at Mon Jan 22 12:03:24 2024

   => Loading Basis Set <=

    Name: JUN-CC-PVDZ
    Role: ORBITAL
    Keyword: BASIS
    atoms 1     entry B          line   130 file /home/gridsan/tfroembgen/.conda/envs/psi4test/share/psi4/basis/jun-cc-pvdz.gbs 
    atoms 2-5   entry F          line   266 file /home/gridsan/tfroembgen/.conda/envs/psi4test/share/psi4/basis/jun-cc-pvdz.gbs 
    atoms 6-59  entry C          line   164 file /home/gridsan/tfroembgen/.conda/envs/psi4test/share/psi4/basis/jun-cc-pvdz.gbs 
    atoms 60-77 entry H          line    36 file /home/gridsan/tfroembgen/.conda/envs/psi4test/share/psi4/basis/jun-cc-pvdz.gbs 


         ---------------------------------------------------------
                                   SCF
               by Justin Turney, Rob Parrish, Andy Simmonett
                          and Daniel G. A. Smith
                              RHF Reference
                       12 Threads,  30517 MiB Core
         ---------------------------------------------------------

  ==> Geometry <==

    Molecular point group: c1
    Full point group: C1

    Geometry (in Angstrom), charge = -1, multiplicity = 1:

       Center              X                  Y                   Z               Mass       
    ------------   -----------------  -----------------  -----------------  -----------------
         B           -0.000046449334     0.000336519434     6.191358591038    11.009305360000
         F           -1.153597449334     0.000047519434     7.007005591038    18.998403162730
         F            1.153660550666    -0.000581480566     7.007005591038    18.998403162730
         F           -0.000019449334    -1.153637480566     5.375724591038    18.998403162730
         F           -0.000019449334     1.153977519434     5.375724591038    18.998403162730
         C            1.225311925931     0.707538180353    -0.802497781679    12.000000000000
         C            1.225323886559    -0.707539003137    -0.814828591249    12.000000000000
         C           -0.000006123424     1.414965805524    -0.815362214770    12.000000000000
         C            2.456448784457     1.418327778612    -0.799610924279    12.000000000000
         C            0.000010857787    -1.414976607201    -0.805162657445    12.000000000000
         C           -1.225300918401     0.707545265418    -0.800246261356    12.000000000000
         C            2.456437785828    -1.418323412447    -0.817073748106    12.000000000000
         C           -0.000001302470     2.836800922715    -0.817765764904    12.000000000000
         C            3.681826727978     0.709317847435    -0.816724958308    12.000000000000
         C            2.455120079373     2.834223552923    -0.816827515269    12.000000000000
         C            3.681821135726    -0.709333947995    -0.800652474290    12.000000000000
         C           -1.225313568180    -0.707527624110    -0.813755829822    12.000000000000
         C            1.226699611710     3.543469375428    -0.800468442359    12.000000000000
         C            0.000004815365    -2.836782247802    -0.800314489824    12.000000000000
         C           -2.456436002341     1.418316809719    -0.800210865510    12.000000000000
         C            2.455123448287    -2.834230137155    -0.800804382657    12.000000000000
         C           -1.226714334082     3.543468955184    -0.800365109140    12.000000000000
         C            4.914517325709     1.427172763923    -0.810244275278    12.000000000000
         C            3.693150221984     3.542795183979    -0.810194475642    12.000000000000
         C           -2.456437569560    -1.418313389406    -0.817098786231    12.000000000000
         C            1.226704872451    -3.543474350473    -0.816438573109    12.000000000000
         C           -2.455125368000     2.834216554068    -0.816821138922    12.000000000000
         C            4.914524411290    -1.427187018510    -0.807271532544    12.000000000000
         C            1.221424644206     4.970133956694    -0.807133098284    12.000000000000
         C            4.893008259828     2.825187891460    -0.809027606920    12.000000000000
         C           -1.226696977981    -3.543471105643    -0.816171368699    12.000000000000
         C           -3.681818946018     0.709324858166    -0.816712277828    12.000000000000
         C            3.693147131658    -3.542801449957    -0.807153641983    12.000000000000
         C           -1.221432221486     4.970128189296    -0.806949602912    12.000000000000
         C            6.134771003434     0.680547838539    -0.809474500729    12.000000000000
         C            3.656788911118     4.972953135001    -0.809285837860    12.000000000000
         C           -2.455126877226    -2.834215201627    -0.801048740455    12.000000000000
         C           -3.681819148553    -0.709325812035    -0.800534852711    12.000000000000
         C            4.893012648421    -2.825200214198    -0.808416455024    12.000000000000
         C           -0.000001042605     5.650447257466    -0.808180911619    12.000000000000
         C            6.134775142840    -0.680554962641    -0.808209180213    12.000000000000
         C            2.478131513363     5.653576642765    -0.807997058210    12.000000000000
         C            1.221422435245    -4.970127163499    -0.809932595307    12.000000000000
         C           -3.693162353457     3.542796845626    -0.810028968183    12.000000000000
         C           -1.221428490437    -4.970118412162    -0.810045357140    12.000000000000
         C           -4.914521777434     1.427175338429    -0.810167330271    12.000000000000
         C            3.656787050187    -4.972955334806    -0.807835337326    12.000000000000
         C           -2.478138499598     5.653574313962    -0.807712533201    12.000000000000
         C           -3.693141708056    -3.542790327545    -0.807269768139    12.000000000000
         C           -4.914512452545    -1.427181108594    -0.807236835370    12.000000000000
         C           -0.000005978418    -5.650438395580    -0.808576415740    12.000000000000
         C           -4.893020453593     2.825188490353    -0.809037688780    12.000000000000
         C            2.478126023806    -5.653573652455    -0.808925938118    12.000000000000
         C           -3.656798679750     4.972956073475    -0.809109157485    12.000000000000
         C           -4.892999448349    -2.825191875626    -0.808570490722    12.000000000000
         C           -2.478128467575    -5.653566278573    -0.809201125765    12.000000000000
         C           -6.134770472823     0.680548657690    -0.809500052431    12.000000000000
         C           -3.656788802681    -4.972944131537    -0.808049625142    12.000000000000
         C           -6.134765012405    -0.680554024048    -0.808229656008    12.000000000000
         H            5.835288526324     3.369275786388    -0.804668281257     1.007825032230
         H            7.073859203255     1.228217140333    -0.809012857335     1.007825032230
         H            4.600663294682     5.512380693887    -0.808780637108     1.007825032230
         H            5.835283417813    -3.369306165295    -0.812870922339     1.007825032230
         H           -0.000012120798     6.738530565570    -0.812530156626     1.007825032230
         H            7.073861202338    -1.228227051310    -0.808717918307     1.007825032230
         H            2.473313762307     6.740684182828    -0.808463779140     1.007825032230
         H            4.600668521889    -5.512376237742    -0.808245334494     1.007825032230
         H           -2.473318650030     6.740681611040    -0.808162432515     1.007825032230
         H           -0.000010237720    -6.738528285018    -0.804046730755     1.007825032230
         H           -5.835301883836     3.369270841730    -0.804532259109     1.007825032230
         H            2.473307954339    -6.740685482995    -0.808355607693     1.007825032230
         H           -4.600674810700     5.512377918037    -0.808615308784     1.007825032230
         H           -5.835279476327    -3.369289072346    -0.813150228220     1.007825032230
         H           -2.473300316932    -6.740679186706    -0.808804924237     1.007825032230
         H           -7.073857736260     1.228220364274    -0.809096848816     1.007825032230
         H           -4.600673755577    -5.512362778353    -0.808417642517     1.007825032230
         H           -7.073856903901    -1.228220740543    -0.808812774774     1.007825032230

  Running in c1 symmetry.

  Rotational constants: A =      0.00147  B =      0.00147  C =      0.00110 [cm^-1]
  Rotational constants: A =     44.05065  B =     44.04602  C =     33.02250 [MHz]
  Nuclear repulsion = 7514.606672730481478

  Charge       = -1
  Multiplicity = 1
  Electrons    = 384
  Nalpha       = 192
  Nbeta        = 192

  ==> Algorithm <==

  SCF Algorithm Type is DF.
  DIIS enabled.
  MOM disabled.
  Fractional occupation disabled.
  Guess Type is SAD.
  Energy threshold   = 1.00e-08
  Density threshold  = 1.00e-08
  Integral threshold = 1.00e-12

  ==> Primary Basis <==

  Basis Set: JUN-CC-PVDZ
    Blend: JUN-CC-PVDZ
    Number of shells: 526
    Number of basis functions: 1152
    Number of Cartesian functions: 1211
    Spherical Harmonics?: true
    Max angular momentum: 2

   => Loading Basis Set <=

    Name: (JUN-CC-PVDZ AUX)
    Role: JKFIT
    Keyword: DF_BASIS_SCF
    atoms 1     entry B          line    90 file /home/gridsan/tfroembgen/.conda/envs/psi4test/share/psi4/basis/jun-cc-pvdz-jkfit.gbs 
    atoms 2-5   entry F          line   314 file /home/gridsan/tfroembgen/.conda/envs/psi4test/share/psi4/basis/jun-cc-pvdz-jkfit.gbs 
    atoms 6-59  entry C          line   146 file /home/gridsan/tfroembgen/.conda/envs/psi4test/share/psi4/basis/jun-cc-pvdz-jkfit.gbs 
    atoms 60-77 entry H          line    70 file /home/gridsan/tfroembgen/.conda/envs/psi4test/share/psi4/basis/jun-cc-pvdz-jkfit.gbs 

  ==> Integral Setup <==

  ==> DiskDFJK: Density-Fitted J/K Matrices <==

    J tasked:                  Yes
    K tasked:                  Yes
    wK tasked:                  No
    OpenMP threads:             12
    Integrals threads:          12
    Memory [MiB]:            22888
    Algorithm:                Core
    Integral Cache:           SAVE
    Schwarz Cutoff:          1E-12
    Fitting Condition:       1E-10

   => Auxiliary Basis Set <=

  Basis Set: (JUN-CC-PVDZ AUX)
    Blend: JUN-CC-PVDZ-JKFIT
    Number of shells: 1755
    Number of basis functions: 5075
    Number of Cartesian functions: 5819
    Spherical Harmonics?: true
    Max angular momentum: 3

  Minimum eigenvalue in the overlap matrix is 8.3952107173E-10.
  Reciprocal condition number of the overlap matrix is 3.7513055189E-11.
    Using canonical orthogonalization.
  Overall, 14 of 1152 possible MOs eliminated.


  ==> Pre-Iterations <==

  SCF Guess: Superposition of Atomic Densities via on-the-fly atomic UHF (no occupation information).

   -------------------------
    Irrep   Nso     Nmo    
   -------------------------
     A       1152    1138 
   -------------------------
    Total    1152    1138
   -------------------------

  ==> Iterations <==

                           Total Energy        Delta E     RMS |[F,P]|

   @DF-RHF iter SAD: -2483.25956473588940   -2.48326e+03   0.00000e+00 
   @DF-RHF iter   1: -2477.62471392767429    5.63485e+00   1.09795e-03 ADIIS/DIIS
   @DF-RHF iter   2: -2478.51139251017412   -8.86679e-01   4.73880e-04 ADIIS/DIIS
   @DF-RHF iter   3: -2478.64238074394098   -1.30988e-01   1.30485e-04 ADIIS/DIIS
   @DF-RHF iter   4: -2478.65533222182057   -1.29515e-02   5.22163e-05 DIIS
   @DF-RHF iter   5: -2478.65760946937189   -2.27725e-03   1.57560e-05 DIIS
   @DF-RHF iter   6: -2478.65788383027120   -2.74361e-04   5.37234e-06 DIIS
   @DF-RHF iter   7: -2478.65796408238248   -8.02521e-05   2.64233e-06 DIIS
   @DF-RHF iter   8: -2478.65798615412541   -2.20717e-05   1.21658e-06 DIIS
   @DF-RHF iter   9: -2478.65799271636297   -6.56224e-06   2.47962e-07 DIIS
   @DF-RHF iter  10: -2478.65799293230157   -2.15939e-07   8.74987e-08 DIIS
   @DF-RHF iter  11: -2478.65799294866747   -1.63659e-08   3.39554e-08 DIIS
   @DF-RHF iter  12: -2478.65799295202396   -3.35649e-09   1.16884e-08 DIIS
   @DF-RHF iter  13: -2478.65799295243232   -4.08363e-10   4.66296e-09 DIIS
  Energy and wave function converged.


  ==> Post-Iterations <==

    Orbital Energies [Eh]
    ---------------------

    Doubly Occupied:                                                      

       1A    -26.064490     2A    -26.064455     3A    -26.063969  
       4A    -26.063788     5A    -11.200281     6A    -11.200280  
       7A    -11.200239     8A    -11.200236     9A    -11.200199  
      10A    -11.200185    11A    -11.200176    12A    -11.200155  
      13A    -11.200140    14A    -11.200131    15A    -11.200099  
      16A    -11.200071    17A    -11.199415    18A    -11.199243  
      19A    -11.199208    20A    -11.199042    21A    -11.199005  
      22A    -11.198952    23A    -11.198644    24A    -11.198342  
      25A    -11.198316    26A    -11.198025    27A    -11.197964  
      28A    -11.197922    29A    -11.197581    30A    -11.197566  
      31A    -11.197431    32A    -11.197284    33A    -11.197266  
      34A    -11.197023    35A    -11.196932    36A    -11.196885  
      37A    -11.196880    38A    -11.196722    39A    -11.196678  
      40A    -11.196523    41A    -11.195827    42A    -11.195827  
      43A    -11.195741    44A    -11.195739    45A    -11.195739  
      46A    -11.195737    47A    -11.194404    48A    -11.194403  
      49A    -11.194318    50A    -11.194316    51A    -11.194314  
      52A    -11.194313    53A    -11.193520    54A    -11.193520  
      55A    -11.193484    56A    -11.193482    57A    -11.193444  
      58A    -11.193405    59A     -7.536461    60A     -1.408129  
      61A     -1.348652    62A     -1.348347    63A     -1.348004  
      64A     -1.183744    65A     -1.160457    66A     -1.160395  
      67A     -1.130729    68A     -1.130726    69A     -1.121345  
      70A     -1.099377    71A     -1.090301    72A     -1.076250  
      73A     -1.076204    74A     -1.055096    75A     -1.055095  
      76A     -1.023446    77A     -1.023445    78A     -1.019609  
      79A     -1.008056    80A     -1.008050    81A     -0.981072  
      82A     -0.964831    83A     -0.962324    84A     -0.962317  
      85A     -0.959704    86A     -0.955054    87A     -0.928231  
      88A     -0.928206    89A     -0.903742    90A     -0.903707  
      91A     -0.836253    92A     -0.836220    93A     -0.828626  
      94A     -0.826805    95A     -0.826717    96A     -0.822587  
      97A     -0.822534    98A     -0.803877    99A     -0.780193  
     100A     -0.760027   101A     -0.757630   102A     -0.753494  
     103A     -0.753458   104A     -0.737009   105A     -0.737003  
     106A     -0.687648   107A     -0.686127   108A     -0.674737  
     109A     -0.674696   110A     -0.674457   111A     -0.674424  
     112A     -0.658148   113A     -0.640975   114A     -0.640949  
     115A     -0.635304   116A     -0.635281   117A     -0.603631  
     118A     -0.599407   119A     -0.594794   120A     -0.592768  
     121A     -0.592763   122A     -0.592376   123A     -0.581492  
     124A     -0.581476   125A     -0.571282   126A     -0.569158  
     127A     -0.569140   128A     -0.549475   129A     -0.545208  
     130A     -0.542976   131A     -0.541968   132A     -0.541953  
     133A     -0.535085   134A     -0.532228   135A     -0.532206  
     136A     -0.528341   137A     -0.525691   138A     -0.525576  
     139A     -0.525459   140A     -0.516497   141A     -0.516408  
     142A     -0.509896   143A     -0.509892   144A     -0.507472  
     145A     -0.507428   146A     -0.500224   147A     -0.497407  
     148A     -0.497371   149A     -0.481042   150A     -0.481039  
     151A     -0.479117   152A     -0.479116   153A     -0.471646  
     154A     -0.467911   155A     -0.464823   156A     -0.464792  
     157A     -0.444471   158A     -0.444430   159A     -0.443081  
     160A     -0.437403   161A     -0.435561   162A     -0.429043  
     163A     -0.426512   164A     -0.423599   165A     -0.423586  
     166A     -0.410608   167A     -0.410550   168A     -0.405640  
     169A     -0.405613   170A     -0.405513   171A     -0.391982  
     172A     -0.391883   173A     -0.382283   174A     -0.382099  
     175A     -0.381955   176A     -0.381044   177A     -0.381038  
     178A     -0.345354   179A     -0.345341   180A     -0.343877  
     181A     -0.317665   182A     -0.317658   183A     -0.290506  
     184A     -0.277073   185A     -0.276035   186A     -0.276023  
     187A     -0.252826   188A     -0.240796   189A     -0.224781  
     190A     -0.224741   191A     -0.166339   192A     -0.166301  

    Virtual:                                                              

     193A      0.072355   194A      0.072447   195A      0.098178  
     196A      0.098243   197A      0.100170   198A      0.100727  
     199A      0.100737   200A      0.107782   201A      0.111813  
     202A      0.122762   203A      0.122766   204A      0.123747  
     205A      0.123815   206A      0.133959   207A      0.137545  
     208A      0.137546   209A      0.140198   210A      0.140643  
     211A      0.140736   212A      0.142911   213A      0.143016  
     214A      0.144911   215A      0.147082   216A      0.148892  
     217A      0.149511   218A      0.157308   219A      0.157846  
     220A      0.162634   221A      0.162637   222A      0.166781  
     223A      0.169098   224A      0.172357   225A      0.172371  
     226A      0.173923   227A      0.180613   228A      0.181280  
     229A      0.181292   230A      0.182608   231A      0.184542  
     232A      0.184848   233A      0.186115   234A      0.187274  
     235A      0.187287   236A      0.191054   237A      0.194416  
     238A      0.197067   239A      0.199435   240A      0.200008  
     241A      0.204317   242A      0.204324   243A      0.206893  
     244A      0.207000   245A      0.211884   246A      0.211888  
     247A      0.225397   248A      0.225803   249A      0.225945  
     250A      0.226309   251A      0.229170   252A      0.233929  
     253A      0.234541   254A      0.234655   255A      0.235802  
     256A      0.240873   257A      0.240926   258A      0.242755  
     259A      0.244062   260A      0.244361   261A      0.246295  
     262A      0.251144   263A      0.251169   264A      0.254347  
     265A      0.257527   266A      0.257547   267A      0.260222  
     268A      0.262183   269A      0.262595   270A      0.263408  
     271A      0.265437   272A      0.265831   273A      0.265877  
     274A      0.267460   275A      0.268434   276A      0.268447  
     277A      0.277539   278A      0.279304   279A      0.279428  
     280A      0.279904   281A      0.280973   282A      0.281699  
     283A      0.281793   284A      0.284420   285A      0.284514  
     286A      0.284670   287A      0.289686   288A      0.289842  
     289A      0.296952   290A      0.297392   291A      0.297984  
     292A      0.298053   293A      0.298065   294A      0.301251  
     295A      0.310570   296A      0.310767   297A      0.311662  
     298A      0.311720   299A      0.313259   300A      0.313306  
     301A      0.318962   302A      0.319196   303A      0.324965  
     304A      0.325011   305A      0.327875   306A      0.328676  
     307A      0.329245   308A      0.330455   309A      0.331953  
     310A      0.333143   311A      0.334042   312A      0.335850  
     313A      0.346327   314A      0.347811   315A      0.348345  
     316A      0.348953   317A      0.354128   318A      0.355410  
     319A      0.355559   320A      0.357702   321A      0.358064  
     322A      0.358141   323A      0.361249   324A      0.361559  
     325A      0.362740   326A      0.363610   327A      0.366543  
     328A      0.366589   329A      0.370403   330A      0.370525  
     331A      0.371136   332A      0.375521   333A      0.375586  
     334A      0.375918   335A      0.376769   336A      0.379336  
     337A      0.380566   338A      0.381735   339A      0.383745  
     340A      0.384469   341A      0.386587   342A      0.390866  
     343A      0.391688   344A      0.394736   345A      0.396619  
     346A      0.399951   347A      0.401658   348A      0.402102  
     349A      0.403423   350A      0.404869   351A      0.405639  
     352A      0.407282   353A      0.407385   354A      0.409007  
     355A      0.411638   356A      0.415126   357A      0.420504  
     358A      0.420976   359A      0.421417   360A      0.421497  
     361A      0.427689   362A      0.427989   363A      0.428786  
     364A      0.431851   365A      0.434313   366A      0.437971  
     367A      0.441831   368A      0.443081   369A      0.443920  
     370A      0.444212   371A      0.445923   372A      0.448176  
     373A      0.449620   374A      0.450657   375A      0.451157  
     376A      0.451306   377A      0.452848   378A      0.453244  
     379A      0.454351   380A      0.454406   381A      0.457943  
     382A      0.458621   383A      0.459037   384A      0.463018  
     385A      0.464523   386A      0.466259   387A      0.467110  
     388A      0.467155   389A      0.468164   390A      0.468241  
     391A      0.470179   392A      0.471066   393A      0.471215  
     394A      0.473281   395A      0.476050   396A      0.477026  
     397A      0.478851   398A      0.481211   399A      0.481444  
     400A      0.481874   401A      0.484005   402A      0.484098  
     403A      0.490420   404A      0.493408   405A      0.495916  
     406A      0.496570   407A      0.497221   408A      0.497234  
     409A      0.498839   410A      0.502834   411A      0.503309  
     412A      0.505588   413A      0.505680   414A      0.509177  
     415A      0.509260   416A      0.511038   417A      0.515080  
     418A      0.519671   419A      0.519931   420A      0.520392  
     421A      0.525432   422A      0.525543   423A      0.527397  
     424A      0.528562   425A      0.531145   426A      0.532690  
     427A      0.534038   428A      0.535368   429A      0.536864  
     430A      0.538399   431A      0.539086   432A      0.544953  
     433A      0.545181   434A      0.545556   435A      0.546526  
     436A      0.547141   437A      0.548482   438A      0.550448  
     439A      0.551922   440A      0.555218   441A      0.556477  
     442A      0.556799   443A      0.562427   444A      0.562718  
     445A      0.563128   446A      0.564296   447A      0.567535  
     448A      0.573236   449A      0.573357   450A      0.576556  
     451A      0.578877   452A      0.579664   453A      0.587132  
     454A      0.587240   455A      0.587702   456A      0.587852  
     457A      0.592074   458A      0.597564   459A      0.601361  
     460A      0.604191   461A      0.604312   462A      0.607417  
     463A      0.609316   464A      0.609464   465A      0.609510  
     466A      0.610844   467A      0.611974   468A      0.617927  
     469A      0.618367   470A      0.618942   471A      0.619114  
     472A      0.619208   473A      0.623019   474A      0.628033  
     475A      0.628521   476A      0.630105   477A      0.651208  
     478A      0.651627   479A      0.653900   480A      0.657706  
     481A      0.657827   482A      0.670993   483A      0.676293  
     484A      0.676417   485A      0.684468   486A      0.684562  
     487A      0.684705   488A      0.685236   489A      0.700324  
     490A      0.700993   491A      0.705583   492A      0.706683  
     493A      0.710583   494A      0.710736   495A      0.714658  
     496A      0.727337   497A      0.727513   498A      0.727662  
     499A      0.735673   500A      0.735692   501A      0.738629  
     502A      0.742435   503A      0.748175   504A      0.753765  
     505A      0.774230   506A      0.774397   507A      0.791846  
     508A      0.798358   509A      0.801559   510A      0.801821  
     511A      0.802038   512A      0.802231   513A      0.814773  
     514A      0.814814   515A      0.821887   516A      0.824884  
     517A      0.833394   518A      0.848915   519A      0.855006  
     520A      0.855367   521A      0.863323   522A      0.865972  
     523A      0.868454   524A      0.868742   525A      0.871767  
     526A      0.875728   527A      0.881296   528A      0.881702  
     529A      0.884999   530A      0.885333   531A      0.885407  
     532A      0.893582   533A      0.901407   534A      0.901859  
     535A      0.910187   536A      0.912624   537A      0.913042  
     538A      0.918351   539A      0.922770   540A      0.922955  
     541A      0.927272   542A      0.927837   543A      0.930271  
     544A      0.933724   545A      0.933762   546A      0.933950  
     547A      0.937417   548A      0.941038   549A      0.945478  
     550A      0.946463   551A      0.947629   552A      0.950153  
     553A      0.954439   554A      0.955052   555A      0.956683  
     556A      0.957635   557A      0.957885   558A      0.965513  
     559A      0.966268   560A      0.968567   561A      0.970255  
     562A      0.970520   563A      0.973555   564A      0.976188  
     565A      0.978749   566A      0.980388   567A      0.980803  
     568A      0.984281   569A      0.990705   570A      0.991279  
     571A      0.991865   572A      0.993597   573A      0.993833  
     574A      1.002310   575A      1.002468   576A      1.003373  
     577A      1.004175   578A      1.015113   579A      1.015509  
     580A      1.017114   581A      1.025969   582A      1.026182  
     583A      1.029968   584A      1.030320   585A      1.031458  
     586A      1.031602   587A      1.035806   588A      1.036785  
     589A      1.040710   590A      1.046325   591A      1.046386  
     592A      1.049989   593A      1.057649   594A      1.057907  
     595A      1.063845   596A      1.071512   597A      1.071682  
     598A      1.072496   599A      1.074711   600A      1.074796  
     601A      1.090189   602A      1.090433   603A      1.094862  
     604A      1.095270   605A      1.096137   606A      1.097043  
     607A      1.097487   608A      1.101192   609A      1.101449  
     610A      1.103316   611A      1.103572   612A      1.104265  
     613A      1.106127   614A      1.107749   615A      1.108390  
     616A      1.111556   617A      1.111833   618A      1.118206  
     619A      1.120901   620A      1.122651   621A      1.123451  
     622A      1.127986   623A      1.128731   624A      1.134737  
     625A      1.135017   626A      1.135650   627A      1.139021  
     628A      1.143269   629A      1.143830   630A      1.145913  
     631A      1.146047   632A      1.147454   633A      1.149560  
     634A      1.150317   635A      1.155283   636A      1.162045  
     637A      1.162383   638A      1.162624   639A      1.166142  
     640A      1.173746   641A      1.173808   642A      1.179113  
     643A      1.181610   644A      1.182752   645A      1.183828  
     646A      1.186120   647A      1.186142   648A      1.192839  
     649A      1.196557   650A      1.196718   651A      1.200799  
     652A      1.202413   653A      1.202436   654A      1.204411  
     655A      1.204955   656A      1.213046   657A      1.222586  
     658A      1.233913   659A      1.234191   660A      1.237777  
     661A      1.237886   662A      1.241699   663A      1.244105  
     664A      1.244445   665A      1.252865   666A      1.254159  
     667A      1.258836   668A      1.258987   669A      1.268738  
     670A      1.275963   671A      1.276095   672A      1.279447  
     673A      1.281002   674A      1.281055   675A      1.293587  
     676A      1.294827   677A      1.295184   678A      1.314919  
     679A      1.315769   680A      1.319466   681A      1.319569  
     682A      1.321379   683A      1.321497   684A      1.322501  
     685A      1.322581   686A      1.330983   687A      1.334383  
     688A      1.339691   689A      1.347372   690A      1.351271  
     691A      1.352016   692A      1.352421   693A      1.355387  
     694A      1.356403   695A      1.358116   696A      1.361707  
     697A      1.363982   698A      1.366659   699A      1.366970  
     700A      1.368484   701A      1.376323   702A      1.377034  
     703A      1.377615   704A      1.380600   705A      1.388278  
     706A      1.388636   707A      1.388807   708A      1.392977  
     709A      1.398295   710A      1.400452   711A      1.402410  
     712A      1.404455   713A      1.411513   714A      1.414095  
     715A      1.414133   716A      1.417309   717A      1.418627  
     718A      1.419764   719A      1.420277   720A      1.427084  
     721A      1.427177   722A      1.436934   723A      1.449862  
     724A      1.457806   725A      1.462344   726A      1.462464  
     727A      1.467632   728A      1.467750   729A      1.469898  
     730A      1.470230   731A      1.478857   732A      1.479404  
     733A      1.484334   734A      1.485633   735A      1.489142  
     736A      1.489342   737A      1.494214   738A      1.494287  
     739A      1.497508   740A      1.497679   741A      1.497958  
     742A      1.498419   743A      1.506261   744A      1.506973  
     745A      1.508938   746A      1.523683   747A      1.524283  
     748A      1.533060   749A      1.534075   750A      1.574676  
     751A      1.574837   752A      1.580441   753A      1.580540  
     754A      1.587141   755A      1.611575   756A      1.635237  
     757A      1.636495   758A      1.640935   759A      1.642510  
     760A      1.658935   761A      1.659564   762A      1.660629  
     763A      1.668703   764A      1.668752   765A      1.668907  
     766A      1.674060   767A      1.674288   768A      1.678764  
     769A      1.681664   770A      1.682095   771A      1.691078  
     772A      1.691360   773A      1.698782   774A      1.698968  
     775A      1.703059   776A      1.703154   777A      1.703237  
     778A      1.703830   779A      1.708838   780A      1.719702  
     781A      1.719766   782A      1.726012   783A      1.734760  
     784A      1.734865   785A      1.736392   786A      1.736530  
     787A      1.736648   788A      1.740892   789A      1.745782  
     790A      1.745851   791A      1.754457   792A      1.755563  
     793A      1.757439   794A      1.757520   795A      1.760475  
     796A      1.764865   797A      1.764956   798A      1.773793  
     799A      1.773850   800A      1.800447   801A      1.810776  
     802A      1.817617   803A      1.817628   804A      1.817732  
     805A      1.820067   806A      1.835230   807A      1.835238  
     808A      1.849918   809A      1.849947   810A      1.874246  
     811A      1.874428   812A      1.874438   813A      1.877174  
     814A      1.884138   815A      1.884219   816A      1.889453  
     817A      1.889514   818A      1.894622   819A      1.901715  
     820A      1.902163   821A      1.918297   822A      1.918354  
     823A      1.919292   824A      1.920090   825A      1.922005  
     826A      1.927287   827A      1.930781   828A      1.936137  
     829A      1.939346   830A      1.939387   831A      1.954931  
     832A      1.955026   833A      1.956599   834A      1.960118  
     835A      1.960207   836A      1.967659   837A      1.967836  
     838A      1.969130   839A      1.971941   840A      1.972480  
     841A      1.976437   842A      1.976572   843A      1.978114  
     844A      1.980783   845A      1.980849   846A      1.996952  
     847A      1.999784   848A      1.999894   849A      2.000187  
     850A      2.001815   851A      2.002884   852A      2.002993  
     853A      2.005821   854A      2.008811   855A      2.013116  
     856A      2.013727   857A      2.014034   858A      2.015692  
     859A      2.016728   860A      2.028021   861A      2.035517  
     862A      2.036351   863A      2.043167   864A      2.044429  
     865A      2.045446   866A      2.048945   867A      2.055554  
     868A      2.056507   869A      2.056678   870A      2.061439  
     871A      2.065250   872A      2.070641   873A      2.070861  
     874A      2.087047   875A      2.087169   876A      2.088629  
     877A      2.088729   878A      2.089266   879A      2.089805  
     880A      2.089877   881A      2.106509   882A      2.110135  
     883A      2.110524   884A      2.116626   885A      2.117208  
     886A      2.118342   887A      2.119322   888A      2.127525  
     889A      2.127970   890A      2.129877   891A      2.130583  
     892A      2.130959   893A      2.134678   894A      2.135713  
     895A      2.138158   896A      2.142168   897A      2.142990  
     898A      2.144851   899A      2.151123   900A      2.151415  
     901A      2.152353   902A      2.154708   903A      2.156122  
     904A      2.158967   905A      2.159091   906A      2.163957  
     907A      2.166174   908A      2.166751   909A      2.167035  
     910A      2.169997   911A      2.170454   912A      2.171431  
     913A      2.174683   914A      2.177329   915A      2.177576  
     916A      2.179809   917A      2.179949   918A      2.184354  
     919A      2.185371   920A      2.192980   921A      2.193299  
     922A      2.193647   923A      2.193872   924A      2.201131  
     925A      2.201155   926A      2.214001   927A      2.219370  
     928A      2.219552   929A      2.221606   930A      2.221699  
     931A      2.231028   932A      2.236604   933A      2.236710  
     934A      2.247502   935A      2.247801   936A      2.250561  
     937A      2.251626   938A      2.256155   939A      2.256211  
     940A      2.258370   941A      2.278082   942A      2.279942  
     943A      2.279999   944A      2.285653   945A      2.287963  
     946A      2.287998   947A      2.289586   948A      2.299744  
     949A      2.300051   950A      2.301194   951A      2.301629  
     952A      2.304174   953A      2.317157   954A      2.317295  
     955A      2.328245   956A      2.328277   957A      2.329562  
     958A      2.329634   959A      2.337628   960A      2.357885  
     961A      2.364547   962A      2.369503   963A      2.371251  
     964A      2.380047   965A      2.381588   966A      2.390262  
     967A      2.391135   968A      2.391205   969A      2.393477  
     970A      2.409854   971A      2.410434   972A      2.410938  
     973A      2.411183   974A      2.425530   975A      2.425672  
     976A      2.434937   977A      2.437892   978A      2.473485  
     979A      2.482652   980A      2.482831   981A      2.482849  
     982A      2.494236   983A      2.500173   984A      2.500287  
     985A      2.528768   986A      2.530791   987A      2.531101  
     988A      2.543512   989A      2.543670   990A      2.560773  
     991A      2.576919   992A      2.588160   993A      2.588675  
     994A      2.601087   995A      2.603159   996A      2.603355  
     997A      2.611194   998A      2.611215   999A      2.614504  
    1000A      2.618204  1001A      2.618213  1002A      2.631602  
    1003A      2.631637  1004A      2.631674  1005A      2.632174  
    1006A      2.644141  1007A      2.644322  1008A      2.646144  
    1009A      2.648079  1010A      2.648166  1011A      2.663896  
    1012A      2.681061  1013A      2.681183  1014A      2.683863  
    1015A      2.690384  1016A      2.690964  1017A      2.698709  
    1018A      2.698771  1019A      2.708117  1020A      2.708451  
    1021A      2.714696  1022A      2.740978  1023A      2.741893  
    1024A      2.742230  1025A      2.743612  1026A      2.761958  
    1027A      2.762263  1028A      2.772154  1029A      2.772220  
    1030A      2.777558  1031A      2.777615  1032A      2.781214  
    1033A      2.781467  1034A      2.796890  1035A      2.809962  
    1036A      2.810554  1037A      2.836509  1038A      2.853735  
    1039A      2.853817  1040A      2.874464  1041A      2.886031  
    1042A      2.886559  1043A      2.909673  1044A      2.910190  
    1045A      2.916175  1046A      2.918351  1047A      2.918673  
    1048A      2.918736  1049A      2.924847  1050A      2.950015  
    1051A      2.955680  1052A      2.958774  1053A      2.974315  
    1054A      2.974534  1055A      2.982232  1056A      2.991229  
    1057A      2.991488  1058A      3.007687  1059A      3.007830  
    1060A      3.020579  1061A      3.065904  1062A      3.066494  
    1063A      3.068761  1064A      3.086711  1065A      3.123589  
    1066A      3.123697  1067A      3.129276  1068A      3.129576  
    1069A      3.167215  1070A      3.167951  1071A      3.185162  
    1072A      3.187573  1073A      3.187992  1074A      3.195349  
    1075A      3.204226  1076A      3.204325  1077A      3.204474  
    1078A      3.206740  1079A      3.206788  1080A      3.215537  
    1081A      3.216072  1082A      3.223657  1083A      3.224066  
    1084A      3.248926  1085A      3.268371  1086A      3.272553  
    1087A      3.277596  1088A      3.295541  1089A      3.332457  
    1090A      3.335582  1091A      3.335707  1092A      3.340516  
    1093A      3.340897  1094A      3.475778  1095A      3.476182  
    1096A      3.505616  1097A      3.541271  1098A      3.543959  
    1099A      3.609378  1100A      3.637363  1101A      3.639271  
    1102A      3.653861  1103A      3.685243  1104A      3.687288  
    1105A      3.721610  1106A      3.726772  1107A      3.828343  
    1108A      3.842466  1109A      3.843387  1110A      3.928707  
    1111A      3.928739  1112A      3.971516  1113A      3.971698  
    1114A      4.036405  1115A      4.070443  1116A      4.094016  
    1117A      4.106082  1118A      4.142434  1119A      4.175267  
    1120A      4.175462  1121A      4.175776  1122A      4.203100  
    1123A      4.203429  1124A      4.203544  1125A      4.203841  
    1126A      4.204307  1127A      4.236162  1128A      4.237044  
    1129A      4.237321  1130A      4.450459  1131A      4.450709  
    1132A      4.450993  1133A      4.650592  1134A      4.651629  
    1135A      4.652743  1136A      4.752039  1137A      4.787422  
    1138A      4.788702  

    Final Occupation by Irrep:
              A 
    DOCC [   192 ]
    NA   [   192 ]
    NB   [   192 ]

  @DF-RHF Final Energy: -2478.65799295243232

   => Energetics <=

    Nuclear Repulsion Energy =           7514.6066727304814776
    One-Electron Energy =              -18380.7987163004727336
    Two-Electron Energy =                8387.5340506175580231
    Total Energy =                      -2478.6579929524323234

Computation Completed


Properties will be evaluated at   0.000000,   0.000000,   0.000000 [a0]

Properties computed using the SCF density matrix


 Multipole Moments:

 ------------------------------------------------------------------------------------
     Multipole            Electronic (a.u.)      Nuclear  (a.u.)        Total (a.u.)
 ------------------------------------------------------------------------------------

 L = 1.  Multiply by 2.5417464519 to convert [e a0] to [Debye]
 Dipole X            :         -0.0001831           -0.0000160           -0.0001992
 Dipole Y            :          0.0012664           -0.0001716            0.0010947
 Dipole Z            :         31.9762517          -42.9121602          -10.9359085
 Magnitude           :                                                   10.9359086

 ------------------------------------------------------------------------------------

*** tstop() called on d-6-11-4 at Mon Jan 22 12:08:41 2024
Module time:
	user time   =    3091.23 seconds =      51.52 minutes
	system time =      57.55 seconds =       0.96 minutes
	total time  =        317 seconds =       5.28 minutes
Total time:
	user time   =    3091.23 seconds =      51.52 minutes
	system time =      57.55 seconds =       0.96 minutes
	total time  =        317 seconds =       5.28 minutes

  //>>>>>>>>>>>>>>>>>>>>>>>>>>>>>>>>>>>//
  //            Monomer A HF           //
  //<<<<<<<<<<<<<<<<<<<<<<<<<<<<<<<<<<<//

   => Libint2 <=

    Primary   basis highest AM E, G, H:  7, 7, 4
    Auxiliary basis highest AM E, G, H:  7, 7, 5
    Onebody   basis highest AM E, G, H:  7, 7, 5
    Solid Harmonics ordering:            gaussian

*** tstart() called on d-6-11-4
*** at Mon Jan 22 12:08:41 2024

   => Loading Basis Set <=

    Name: JUN-CC-PVDZ
    Role: ORBITAL
    Keyword: BASIS
    atoms 1     entry B          line   130 file /home/gridsan/tfroembgen/.conda/envs/psi4test/share/psi4/basis/jun-cc-pvdz.gbs 
    atoms 2-5   entry F          line   266 file /home/gridsan/tfroembgen/.conda/envs/psi4test/share/psi4/basis/jun-cc-pvdz.gbs 
    atoms 6-59  entry C          line   164 file /home/gridsan/tfroembgen/.conda/envs/psi4test/share/psi4/basis/jun-cc-pvdz.gbs 
    atoms 60-77 entry H          line    36 file /home/gridsan/tfroembgen/.conda/envs/psi4test/share/psi4/basis/jun-cc-pvdz.gbs 


         ---------------------------------------------------------
                                   SCF
               by Justin Turney, Rob Parrish, Andy Simmonett
                          and Daniel G. A. Smith
                              RHF Reference
                       12 Threads,  30517 MiB Core
         ---------------------------------------------------------

  ==> Geometry <==

    Molecular point group: c1
    Full point group: C1

    Geometry (in Angstrom), charge = -1, multiplicity = 1:

       Center              X                  Y                   Z               Mass       
    ------------   -----------------  -----------------  -----------------  -----------------
         B           -0.000046449334     0.000336519434     6.191358591038    11.009305360000
         F           -1.153597449334     0.000047519434     7.007005591038    18.998403162730
         F            1.153660550666    -0.000581480566     7.007005591038    18.998403162730
         F           -0.000019449334    -1.153637480566     5.375724591038    18.998403162730
         F           -0.000019449334     1.153977519434     5.375724591038    18.998403162730
      Gh(C)           1.225311925931     0.707538180353    -0.802497781679    12.000000000000
      Gh(C)           1.225323886559    -0.707539003137    -0.814828591249    12.000000000000
      Gh(C)          -0.000006123424     1.414965805524    -0.815362214770    12.000000000000
      Gh(C)           2.456448784457     1.418327778612    -0.799610924279    12.000000000000
      Gh(C)           0.000010857787    -1.414976607201    -0.805162657445    12.000000000000
      Gh(C)          -1.225300918401     0.707545265418    -0.800246261356    12.000000000000
      Gh(C)           2.456437785828    -1.418323412447    -0.817073748106    12.000000000000
      Gh(C)          -0.000001302470     2.836800922715    -0.817765764904    12.000000000000
      Gh(C)           3.681826727978     0.709317847435    -0.816724958308    12.000000000000
      Gh(C)           2.455120079373     2.834223552923    -0.816827515269    12.000000000000
      Gh(C)           3.681821135726    -0.709333947995    -0.800652474290    12.000000000000
      Gh(C)          -1.225313568180    -0.707527624110    -0.813755829822    12.000000000000
      Gh(C)           1.226699611710     3.543469375428    -0.800468442359    12.000000000000
      Gh(C)           0.000004815365    -2.836782247802    -0.800314489824    12.000000000000
      Gh(C)          -2.456436002341     1.418316809719    -0.800210865510    12.000000000000
      Gh(C)           2.455123448287    -2.834230137155    -0.800804382657    12.000000000000
      Gh(C)          -1.226714334082     3.543468955184    -0.800365109140    12.000000000000
      Gh(C)           4.914517325709     1.427172763923    -0.810244275278    12.000000000000
      Gh(C)           3.693150221984     3.542795183979    -0.810194475642    12.000000000000
      Gh(C)          -2.456437569560    -1.418313389406    -0.817098786231    12.000000000000
      Gh(C)           1.226704872451    -3.543474350473    -0.816438573109    12.000000000000
      Gh(C)          -2.455125368000     2.834216554068    -0.816821138922    12.000000000000
      Gh(C)           4.914524411290    -1.427187018510    -0.807271532544    12.000000000000
      Gh(C)           1.221424644206     4.970133956694    -0.807133098284    12.000000000000
      Gh(C)           4.893008259828     2.825187891460    -0.809027606920    12.000000000000
      Gh(C)          -1.226696977981    -3.543471105643    -0.816171368699    12.000000000000
      Gh(C)          -3.681818946018     0.709324858166    -0.816712277828    12.000000000000
      Gh(C)           3.693147131658    -3.542801449957    -0.807153641983    12.000000000000
      Gh(C)          -1.221432221486     4.970128189296    -0.806949602912    12.000000000000
      Gh(C)           6.134771003434     0.680547838539    -0.809474500729    12.000000000000
      Gh(C)           3.656788911118     4.972953135001    -0.809285837860    12.000000000000
      Gh(C)          -2.455126877226    -2.834215201627    -0.801048740455    12.000000000000
      Gh(C)          -3.681819148553    -0.709325812035    -0.800534852711    12.000000000000
      Gh(C)           4.893012648421    -2.825200214198    -0.808416455024    12.000000000000
      Gh(C)          -0.000001042605     5.650447257466    -0.808180911619    12.000000000000
      Gh(C)           6.134775142840    -0.680554962641    -0.808209180213    12.000000000000
      Gh(C)           2.478131513363     5.653576642765    -0.807997058210    12.000000000000
      Gh(C)           1.221422435245    -4.970127163499    -0.809932595307    12.000000000000
      Gh(C)          -3.693162353457     3.542796845626    -0.810028968183    12.000000000000
      Gh(C)          -1.221428490437    -4.970118412162    -0.810045357140    12.000000000000
      Gh(C)          -4.914521777434     1.427175338429    -0.810167330271    12.000000000000
      Gh(C)           3.656787050187    -4.972955334806    -0.807835337326    12.000000000000
      Gh(C)          -2.478138499598     5.653574313962    -0.807712533201    12.000000000000
      Gh(C)          -3.693141708056    -3.542790327545    -0.807269768139    12.000000000000
      Gh(C)          -4.914512452545    -1.427181108594    -0.807236835370    12.000000000000
      Gh(C)          -0.000005978418    -5.650438395580    -0.808576415740    12.000000000000
      Gh(C)          -4.893020453593     2.825188490353    -0.809037688780    12.000000000000
      Gh(C)           2.478126023806    -5.653573652455    -0.808925938118    12.000000000000
      Gh(C)          -3.656798679750     4.972956073475    -0.809109157485    12.000000000000
      Gh(C)          -4.892999448349    -2.825191875626    -0.808570490722    12.000000000000
      Gh(C)          -2.478128467575    -5.653566278573    -0.809201125765    12.000000000000
      Gh(C)          -6.134770472823     0.680548657690    -0.809500052431    12.000000000000
      Gh(C)          -3.656788802681    -4.972944131537    -0.808049625142    12.000000000000
      Gh(C)          -6.134765012405    -0.680554024048    -0.808229656008    12.000000000000
      Gh(H)           5.835288526324     3.369275786388    -0.804668281257     1.007825032230
      Gh(H)           7.073859203255     1.228217140333    -0.809012857335     1.007825032230
      Gh(H)           4.600663294682     5.512380693887    -0.808780637108     1.007825032230
      Gh(H)           5.835283417813    -3.369306165295    -0.812870922339     1.007825032230
      Gh(H)          -0.000012120798     6.738530565570    -0.812530156626     1.007825032230
      Gh(H)           7.073861202338    -1.228227051310    -0.808717918307     1.007825032230
      Gh(H)           2.473313762307     6.740684182828    -0.808463779140     1.007825032230
      Gh(H)           4.600668521889    -5.512376237742    -0.808245334494     1.007825032230
      Gh(H)          -2.473318650030     6.740681611040    -0.808162432515     1.007825032230
      Gh(H)          -0.000010237720    -6.738528285018    -0.804046730755     1.007825032230
      Gh(H)          -5.835301883836     3.369270841730    -0.804532259109     1.007825032230
      Gh(H)           2.473307954339    -6.740685482995    -0.808355607693     1.007825032230
      Gh(H)          -4.600674810700     5.512377918037    -0.808615308784     1.007825032230
      Gh(H)          -5.835279476327    -3.369289072346    -0.813150228220     1.007825032230
      Gh(H)          -2.473300316932    -6.740679186706    -0.808804924237     1.007825032230
      Gh(H)          -7.073857736260     1.228220364274    -0.809096848816     1.007825032230
      Gh(H)          -4.600673755577    -5.512362778353    -0.808417642517     1.007825032230
      Gh(H)          -7.073856903901    -1.228220740543    -0.808812774774     1.007825032230

  Running in c1 symmetry.

  Rotational constants: A =      0.00147  B =      0.00147  C =      0.00110 [cm^-1]
  Rotational constants: A =     44.05065  B =     44.04602  C =     33.02250 [MHz]
  Nuclear repulsion =  178.879482610381302

  Charge       = -1
  Multiplicity = 1
  Electrons    = 42
  Nalpha       = 21
  Nbeta        = 21

  ==> Algorithm <==

  SCF Algorithm Type is DF.
  DIIS enabled.
  MOM disabled.
  Fractional occupation disabled.
  Guess Type is SAD.
  Energy threshold   = 1.00e-08
  Density threshold  = 1.00e-08
  Integral threshold = 1.00e-12

  ==> Primary Basis <==

  Basis Set: JUN-CC-PVDZ
    Blend: JUN-CC-PVDZ
    Number of shells: 526
    Number of basis functions: 1152
    Number of Cartesian functions: 1211
    Spherical Harmonics?: true
    Max angular momentum: 2

   => Loading Basis Set <=

    Name: (JUN-CC-PVDZ AUX)
    Role: JKFIT
    Keyword: DF_BASIS_SCF
    atoms 1     entry B          line    90 file /home/gridsan/tfroembgen/.conda/envs/psi4test/share/psi4/basis/jun-cc-pvdz-jkfit.gbs 
    atoms 2-5   entry F          line   314 file /home/gridsan/tfroembgen/.conda/envs/psi4test/share/psi4/basis/jun-cc-pvdz-jkfit.gbs 
    atoms 6-59  entry C          line   146 file /home/gridsan/tfroembgen/.conda/envs/psi4test/share/psi4/basis/jun-cc-pvdz-jkfit.gbs 
    atoms 60-77 entry H          line    70 file /home/gridsan/tfroembgen/.conda/envs/psi4test/share/psi4/basis/jun-cc-pvdz-jkfit.gbs 

  ==> Integral Setup <==

  ==> DiskDFJK: Density-Fitted J/K Matrices <==

    J tasked:                  Yes
    K tasked:                  Yes
    wK tasked:                  No
    OpenMP threads:             12
    Integrals threads:          12
    Memory [MiB]:            22888
    Algorithm:                Core
    Integral Cache:           LOAD
    Schwarz Cutoff:          1E-12
    Fitting Condition:       1E-10

   => Auxiliary Basis Set <=

  Basis Set: (JUN-CC-PVDZ AUX)
    Blend: JUN-CC-PVDZ-JKFIT
    Number of shells: 1755
    Number of basis functions: 5075
    Number of Cartesian functions: 5819
    Spherical Harmonics?: true
    Max angular momentum: 3

  Minimum eigenvalue in the overlap matrix is 8.3952107173E-10.
  Reciprocal condition number of the overlap matrix is 3.7513055189E-11.
    Using canonical orthogonalization.
  Overall, 14 of 1152 possible MOs eliminated.


  ==> Pre-Iterations <==

  SCF Guess: Superposition of Atomic Densities via on-the-fly atomic UHF (no occupation information).

   -------------------------
    Irrep   Nso     Nmo    
   -------------------------
     A       1152    1138 
   -------------------------
    Total    1152    1138
   -------------------------

  ==> Iterations <==

                           Total Energy        Delta E     RMS |[F,P]|

   @DF-RHF iter SAD:  -421.23044435324016   -4.21230e+02   0.00000e+00 
   @DF-RHF iter   1:  -422.64974007565070   -1.41930e+00   5.29819e-04 ADIIS/DIIS
   @DF-RHF iter   2:  -422.73251758442223   -8.27775e-02   3.22908e-04 ADIIS/DIIS
   @DF-RHF iter   3:  -422.77109037335424   -3.85728e-02   1.73818e-05 DIIS
   @DF-RHF iter   4:  -422.77145075081967   -3.60377e-04   2.75090e-06 DIIS
   @DF-RHF iter   5:  -422.77145938819206   -8.63737e-06   7.01153e-07 DIIS
   @DF-RHF iter   6:  -422.77145994477354   -5.56581e-07   1.44616e-07 DIIS
   @DF-RHF iter   7:  -422.77145996568703   -2.09135e-08   1.44695e-08 DIIS
   @DF-RHF iter   8:  -422.77145996589911   -2.12083e-10   4.93113e-09 DIIS
  Energy and wave function converged.


  ==> Post-Iterations <==

    Orbital Energies [Eh]
    ---------------------

    Doubly Occupied:                                                      

       1A    -26.067093     2A    -26.067025     3A    -26.066991  
       4A    -26.066912     5A     -7.539293     6A     -1.410956  
       7A     -1.351246     8A     -1.351190     9A     -1.351059  
      10A     -0.602238    11A     -0.528446    12A     -0.528414  
      13A     -0.528357    14A     -0.447300    15A     -0.447258  
      16A     -0.408463    17A     -0.408425    18A     -0.408368  
      19A     -0.384987    20A     -0.384946    21A     -0.384900  

    Virtual:                                                              

      22A      0.077692    23A      0.079712    24A      0.079880  
      25A      0.088016    26A      0.088019    27A      0.099539  
      28A      0.100867    29A      0.101508    30A      0.116968  
      31A      0.116980    32A      0.117585    33A      0.117702  
      34A      0.126218    35A      0.133018    36A      0.133507  
      37A      0.135266    38A      0.135276    39A      0.135680  
      40A      0.135697    41A      0.143223    42A      0.146236  
      43A      0.146242    44A      0.155840    45A      0.157006  
      46A      0.157054    47A      0.159131    48A      0.163994  
      49A      0.166764    50A      0.168842    51A      0.169180  
      52A      0.169438    53A      0.175462    54A      0.175861  
      55A      0.178353    56A      0.178355    57A      0.181489  
      58A      0.182009    59A      0.186082    60A      0.186172  
      61A      0.188138    62A      0.188925    63A      0.188962  
      64A      0.192529    65A      0.192562    66A      0.194804  
      67A      0.198642    68A      0.198695    69A      0.203162  
      70A      0.203749    71A      0.204562    72A      0.206139  
      73A      0.207556    74A      0.208823    75A      0.211059  
      76A      0.211113    77A      0.213319    78A      0.213522  
      79A      0.215643    80A      0.215672    81A      0.221905  
      82A      0.221982    83A      0.225401    84A      0.226464  
      85A      0.233468    86A      0.234654    87A      0.234680  
      88A      0.234844    89A      0.236855    90A      0.237305  
      91A      0.237817    92A      0.245914    93A      0.246767  
      94A      0.247853    95A      0.249246    96A      0.249458  
      97A      0.252502    98A      0.252651    99A      0.259235  
     100A      0.259250   101A      0.260383   102A      0.261352  
     103A      0.262034   104A      0.264918   105A      0.265015  
     106A      0.265707   107A      0.265993   108A      0.273905  
     109A      0.273985   110A      0.277244   111A      0.279077  
     112A      0.279135   113A      0.284398   114A      0.284902  
     115A      0.284970   116A      0.284982   117A      0.290827  
     118A      0.290867   119A      0.291566   120A      0.291609  
     121A      0.295654   122A      0.301887   123A      0.302234  
     124A      0.305925   125A      0.305934   126A      0.308540  
     127A      0.311443   128A      0.311490   129A      0.315978  
     130A      0.316846   131A      0.319271   132A      0.319383  
     133A      0.319634   134A      0.319901   135A      0.322613  
     136A      0.333282   137A      0.333315   138A      0.336816  
     139A      0.337373   140A      0.337997   141A      0.338004  
     142A      0.341363   143A      0.341469   144A      0.342484  
     145A      0.342527   146A      0.342536   147A      0.347983  
     148A      0.350525   149A      0.354117   150A      0.357730  
     151A      0.357736   152A      0.359413   153A      0.362762  
     154A      0.363323   155A      0.369823   156A      0.378482  
     157A      0.378680   158A      0.380080   159A      0.380146  
     160A      0.380804   161A      0.385190   162A      0.385256  
     163A      0.386530   164A      0.389606   165A      0.389740  
     166A      0.390302   167A      0.391519   168A      0.395120  
     169A      0.397878   170A      0.398920   171A      0.401312  
     172A      0.401661   173A      0.403081   174A      0.414292  
     175A      0.414561   176A      0.415906   177A      0.416375  
     178A      0.417282   179A      0.420663   180A      0.424138  
     181A      0.424505   182A      0.425936   183A      0.426104  
     184A      0.426209   185A      0.430561   186A      0.431006  
     187A      0.431685   188A      0.432215   189A      0.432604  
     190A      0.439643   191A      0.439891   192A      0.440310  
     193A      0.441253   194A      0.442498   195A      0.444049  
     196A      0.445222   197A      0.446763   198A      0.454754  
     199A      0.454805   200A      0.461594   201A      0.462288  
     202A      0.462502   203A      0.463577   204A      0.467523  
     205A      0.471106   206A      0.474238   207A      0.474296  
     208A      0.476214   209A      0.477840   210A      0.478117  
     211A      0.478733   212A      0.483271   213A      0.487160  
     214A      0.489769   215A      0.490489   216A      0.490579  
     217A      0.491097   218A      0.494749   219A      0.495287  
     220A      0.497213   221A      0.499325   222A      0.500398  
     223A      0.500969   224A      0.504448   225A      0.505448  
     226A      0.505549   227A      0.505951   228A      0.507035  
     229A      0.512013   230A      0.513833   231A      0.514096  
     232A      0.514712   233A      0.518377   234A      0.519484  
     235A      0.519636   236A      0.520305   237A      0.526655  
     238A      0.526871   239A      0.532199   240A      0.532323  
     241A      0.534007   242A      0.538154   243A      0.539242  
     244A      0.541197   245A      0.541288   246A      0.545608  
     247A      0.547959   248A      0.548381   249A      0.548423  
     250A      0.550553   251A      0.552318   252A      0.555215  
     253A      0.557931   254A      0.558885   255A      0.561372  
     256A      0.561783   257A      0.563231   258A      0.563602  
     259A      0.566195   260A      0.575427   261A      0.577738  
     262A      0.578290   263A      0.582723   264A      0.584363  
     265A      0.585697   266A      0.586208   267A      0.587268  
     268A      0.588654   269A      0.589574   270A      0.590767  
     271A      0.592471   272A      0.594908   273A      0.595735  
     274A      0.596469   275A      0.597758   276A      0.609062  
     277A      0.609831   278A      0.610100   279A      0.610373  
     280A      0.615919   281A      0.618100   282A      0.622966  
     283A      0.629728   284A      0.630175   285A      0.630518  
     286A      0.631087   287A      0.631845   288A      0.637738  
     289A      0.638508   290A      0.640774   291A      0.641103  
     292A      0.641936   293A      0.647343   294A      0.649290  
     295A      0.654800   296A      0.657351   297A      0.657605  
     298A      0.668750   299A      0.668796   300A      0.670629  
     301A      0.670690   302A      0.671798   303A      0.672603  
     304A      0.673971   305A      0.674817   306A      0.678540  
     307A      0.679702   308A      0.684725   309A      0.689313  
     310A      0.693043   311A      0.697110   312A      0.698991  
     313A      0.699701   314A      0.702914   315A      0.704709  
     316A      0.704994   317A      0.705096   318A      0.708073  
     319A      0.710086   320A      0.710697   321A      0.714038  
     322A      0.720936   323A      0.724351   324A      0.727395  
     325A      0.732625   326A      0.738401   327A      0.738723  
     328A      0.738766   329A      0.739562   330A      0.740605  
     331A      0.746675   332A      0.748145   333A      0.752474  
     334A      0.753214   335A      0.754870   336A      0.755252  
     337A      0.760905   338A      0.762075   339A      0.769852  
     340A      0.770024   341A      0.772369   342A      0.775334  
     343A      0.775872   344A      0.776140   345A      0.777212  
     346A      0.778039   347A      0.786237   348A      0.788422  
     349A      0.788426   350A      0.793164   351A      0.793764  
     352A      0.802372   353A      0.804908   354A      0.805075  
     355A      0.819199   356A      0.819225   357A      0.820416  
     358A      0.826559   359A      0.829600   360A      0.830876  
     361A      0.830931   362A      0.833356   363A      0.834159  
     364A      0.834989   365A      0.839809   366A      0.839883  
     367A      0.840753   368A      0.845131   369A      0.845349  
     370A      0.850563   371A      0.850709   372A      0.855358  
     373A      0.855621   374A      0.856513   375A      0.860323  
     376A      0.860380   377A      0.863701   378A      0.863867  
     379A      0.865668   380A      0.868496   381A      0.875549  
     382A      0.896803   383A      0.896857   384A      0.908389  
     385A      0.908450   386A      0.927631   387A      0.927789  
     388A      0.932285   389A      0.932941   390A      0.935941  
     391A      0.937209   392A      0.942013   393A      0.942142  
     394A      0.942760   395A      0.950423   396A      0.950935  
     397A      0.958535   398A      0.958577   399A      0.959102  
     400A      0.963957   401A      0.991043   402A      0.993482  
     403A      0.993493   404A      1.009493   405A      1.018735  
     406A      1.018774   407A      1.029030   408A      1.029060  
     409A      1.037028   410A      1.044695   411A      1.053106  
     412A      1.053155   413A      1.068313   414A      1.072136  
     415A      1.094749   416A      1.094844   417A      1.114409  
     418A      1.114515   419A      1.120749   420A      1.123090  
     421A      1.123095   422A      1.132385   423A      1.132405  
     424A      1.157437   425A      1.160236   426A      1.160320  
     427A      1.167499   428A      1.219810   429A      1.219883  
     430A      1.224247   431A      1.224400   432A      1.229843  
     433A      1.238353   434A      1.241317   435A      1.241405  
     436A      1.259664   437A      1.259722   438A      1.276410  
     439A      1.282063   440A      1.282119   441A      1.288145  
     442A      1.295458   443A      1.344736   444A      1.345070  
     445A      1.353194   446A      1.360208   447A      1.360219  
     448A      1.365567   449A      1.369075   450A      1.369109  
     451A      1.379553   452A      1.383038   453A      1.383127  
     454A      1.391820   455A      1.394599   456A      1.423735  
     457A      1.434764   458A      1.434771   459A      1.482033  
     460A      1.509248   461A      1.509682   462A      1.527250  
     463A      1.527295   464A      1.532365   465A      1.533891  
     466A      1.534026   467A      1.537128   468A      1.547357  
     469A      1.548304   470A      1.611527   471A      1.620096  
     472A      1.620190   473A      1.623403   474A      1.624543  
     475A      1.632480   476A      1.634489   477A      1.636510  
     478A      1.638701   479A      1.689907   480A      1.701842  
     481A      1.704255   482A      1.714998   483A      1.717605  
     484A      1.725497   485A      1.730906   486A      1.731963  
     487A      1.750056   488A      1.750775   489A      1.753188  
     490A      1.753479   491A      1.766237   492A      1.805717  
     493A      1.807089   494A      1.807222   495A      1.808086  
     496A      1.809265   497A      1.815848   498A      1.819424  
     499A      1.820354   500A      1.822854   501A      1.831734  
     502A      1.835422   503A      1.842838   504A      1.853084  
     505A      1.853727   506A      1.858545   507A      1.859400  
     508A      1.865689   509A      1.877515   510A      1.881067  
     511A      1.888730   512A      1.889679   513A      1.891902  
     514A      1.892216   515A      1.892266   516A      1.893656  
     517A      1.896449   518A      1.897575   519A      1.901075  
     520A      1.903540   521A      1.905797   522A      1.910232  
     523A      1.914260   524A      1.922111   525A      1.922625  
     526A      1.932042   527A      1.937364   528A      1.937553  
     529A      1.941935   530A      1.942508   531A      1.946230  
     532A      1.951099   533A      1.952220   534A      1.954099  
     535A      1.955332   536A      1.960845   537A      1.970006  
     538A      1.970742   539A      1.970993   540A      1.972703  
     541A      1.972814   542A      1.977577   543A      1.982831  
     544A      1.983159   545A      1.990641   546A      1.991439  
     547A      1.993709   548A      1.994539   549A      1.997064  
     550A      1.998652   551A      2.000350   552A      2.002966  
     553A      2.009934   554A      2.010101   555A      2.010470  
     556A      2.017582   557A      2.031772   558A      2.032696  
     559A      2.032903   560A      2.034253   561A      2.037142  
     562A      2.040210   563A      2.041848   564A      2.042926  
     565A      2.050779   566A      2.050892   567A      2.056208  
     568A      2.059010   569A      2.061000   570A      2.061062  
     571A      2.065101   572A      2.065464   573A      2.065651  
     574A      2.071076   575A      2.083977   576A      2.085004  
     577A      2.093188   578A      2.093550   579A      2.122945  
     580A      2.130199   581A      2.130685   582A      2.135338  
     583A      2.140181   584A      2.140358   585A      2.143039  
     586A      2.145066   587A      2.145849   588A      2.146773  
     589A      2.155409   590A      2.157766   591A      2.158629  
     592A      2.162320   593A      2.163209   594A      2.178451  
     595A      2.178564   596A      2.183234   597A      2.183980  
     598A      2.185353   599A      2.192025   600A      2.192190  
     601A      2.202089   602A      2.202504   603A      2.203035  
     604A      2.204456   605A      2.204712   606A      2.210360  
     607A      2.210539   608A      2.211685   609A      2.212462  
     610A      2.212594   611A      2.212911   612A      2.213482  
     613A      2.217789   614A      2.217824   615A      2.223644  
     616A      2.223995   617A      2.225009   618A      2.227720  
     619A      2.227858   620A      2.232326   621A      2.232355  
     622A      2.232804   623A      2.233965   624A      2.235128  
     625A      2.236212   626A      2.238638   627A      2.238860  
     628A      2.239618   629A      2.241175   630A      2.242198  
     631A      2.242733   632A      2.246203   633A      2.246857  
     634A      2.248007   635A      2.250960   636A      2.251665  
     637A      2.255549   638A      2.256734   639A      2.258021  
     640A      2.258398   641A      2.258687   642A      2.280005  
     643A      2.280133   644A      2.301228   645A      2.301980  
     646A      2.306506   647A      2.306594   648A      2.311258  
     649A      2.311491   650A      2.313749   651A      2.315091  
     652A      2.315164   653A      2.330608   654A      2.331324  
     655A      2.331716   656A      2.337565   657A      2.337704  
     658A      2.338701   659A      2.349454   660A      2.349506  
     661A      2.355684   662A      2.355950   663A      2.361124  
     664A      2.373044   665A      2.373217   666A      2.380688  
     667A      2.390143   668A      2.390393   669A      2.392362  
     670A      2.392583   671A      2.397321   672A      2.404115  
     673A      2.408165   674A      2.408270   675A      2.408681  
     676A      2.422353   677A      2.423634   678A      2.428449  
     679A      2.430011   680A      2.431201   681A      2.431723  
     682A      2.433723   683A      2.433824   684A      2.434957  
     685A      2.435873   686A      2.442851   687A      2.443300  
     688A      2.443456   689A      2.445560   690A      2.449763  
     691A      2.452522   692A      2.457925   693A      2.459427  
     694A      2.473231   695A      2.473809   696A      2.473997  
     697A      2.477499   698A      2.478361   699A      2.481286  
     700A      2.482938   701A      2.484184   702A      2.486316  
     703A      2.486479   704A      2.495266   705A      2.501319  
     706A      2.501795   707A      2.509287   708A      2.511626  
     709A      2.511826   710A      2.518913   711A      2.519050  
     712A      2.528702   713A      2.531013   714A      2.534274  
     715A      2.534382   716A      2.539534   717A      2.549292  
     718A      2.549899   719A      2.550054   720A      2.565448  
     721A      2.565678   722A      2.569357   723A      2.569405  
     724A      2.578372   725A      2.588094   726A      2.590831  
     727A      2.599165   728A      2.599232   729A      2.604737  
     730A      2.606323   731A      2.611593   732A      2.611812  
     733A      2.611969   734A      2.612090   735A      2.619028  
     736A      2.624079   737A      2.624146   738A      2.628874  
     739A      2.636920   740A      2.643453   741A      2.643983  
     742A      2.644431   743A      2.668917   744A      2.668946  
     745A      2.685351   746A      2.688660   747A      2.688734  
     748A      2.695599   749A      2.695828   750A      2.696481  
     751A      2.696532   752A      2.697473   753A      2.711939  
     754A      2.712185   755A      2.712413   756A      2.716902  
     757A      2.720987   758A      2.721401   759A      2.722104  
     760A      2.722311   761A      2.740128   762A      2.740284  
     763A      2.756224   764A      2.756464   765A      2.764762  
     766A      2.765094   767A      2.772230   768A      2.772968  
     769A      2.775733   770A      2.777668   771A      2.777876  
     772A      2.783151   773A      2.783279   774A      2.788316  
     775A      2.788493   776A      2.806819   777A      2.807192  
     778A      2.808786   779A      2.808882   780A      2.809953  
     781A      2.814158   782A      2.821732   783A      2.821840  
     784A      2.823530   785A      2.826644   786A      2.831030  
     787A      2.832522   788A      2.833712   789A      2.848669  
[...]
     709A      1.367661   710A      1.380074   711A      1.391474  
     712A      1.398792   713A      1.404206   714A      1.404402  
     715A      1.408157   716A      1.408285   717A      1.412459  
     718A      1.412666   719A      1.420057   720A      1.422095  
     721A      1.425922   722A      1.426970   723A      1.429572  
     724A      1.430829   725A      1.436322   726A      1.436403  
     727A      1.437003   728A      1.439684   729A      1.439786  
     730A      1.440194   731A      1.448194   732A      1.448803  
     733A      1.450505   734A      1.463795   735A      1.464207  
     736A      1.473410   737A      1.473820   738A      1.516532  
     739A      1.516635   740A      1.521260   741A      1.521315  
     742A      1.529892   743A      1.552344   744A      1.573689  
     745A      1.595876   746A      1.599601   747A      1.600191  
     748A      1.604370   749A      1.608622   750A      1.608805  
     751A      1.609410   752A      1.612924   753A      1.613148  
     754A      1.618204   755A      1.621705   756A      1.621836  
     757A      1.630167   758A      1.630721   759A      1.635785  
     760A      1.635933   761A      1.639731   762A      1.640300  
     763A      1.643525   764A      1.643723   765A      1.643812  
     766A      1.643970   767A      1.648615   768A      1.650420  
     769A      1.661105   770A      1.661414   771A      1.667494  
     772A      1.676298   773A      1.676362   774A      1.676761  
     775A      1.676772   776A      1.677023   777A      1.682842  
     778A      1.686615   779A      1.686687   780A      1.696053  
     781A      1.697611   782A      1.699353   783A      1.699396  
     784A      1.700786   785A      1.704759   786A      1.704815  
     787A      1.715713   788A      1.715781   789A      1.739871  
     790A      1.741675   791A      1.746514   792A      1.751398  
     793A      1.760294   794A      1.760363   795A      1.761065  
     796A      1.761759   797A      1.776747   798A      1.776757  
     799A      1.791513   800A      1.791537   801A      1.816515  
     802A      1.816565   803A      1.816718   804A      1.818148  
     805A      1.824652   806A      1.824757   807A      1.828861  
     808A      1.830879   809A      1.831166   810A      1.837111  
     811A      1.842400   812A      1.842822   813A      1.860788  
     814A      1.860815   815A      1.861175   816A      1.861860  
     817A      1.864058   818A      1.868939   819A      1.872271  
     820A      1.880165   821A      1.880207   822A      1.896189  
     823A      1.896269   824A      1.899447   825A      1.902967  
     826A      1.903078   827A      1.908570   828A      1.908724  
     829A      1.913970   830A      1.914836   831A      1.917665  
     832A      1.917801   833A      1.919226   834A      1.921987  
     835A      1.922056   836A      1.940441   837A      1.941319  
     838A      1.941957   839A      1.942176   840A      1.946441  
     841A      1.946501   842A      1.954288   843A      1.954398  
     844A      1.954452   845A      1.955018   846A      1.957995  
     847A      1.970735   848A      1.983185   849A      1.983521  
     850A      1.990185   851A      1.997096   852A      1.998540  
     853A      1.998583   854A      2.004615   855A      2.008098  
     856A      2.012279   857A      2.012651   858A      2.027823  
     859A      2.028155   860A      2.030016   861A      2.030167  
     862A      2.030663   863A      2.031268   864A      2.031366  
     865A      2.047875   866A      2.051874   867A      2.052420  
     868A      2.057609   869A      2.058155   870A      2.059979  
     871A      2.061530   872A      2.068299   873A      2.070289  
     874A      2.071375   875A      2.071976   876A      2.075746  
     877A      2.076569   878A      2.082072   879A      2.084635  
     880A      2.085509   881A      2.092947   882A      2.094832  
     883A      2.095843   884A      2.096850   885A      2.100558  
     886A      2.100636   887A      2.107124   888A      2.108258  
     889A      2.108378   890A      2.110012   891A      2.110139  
     892A      2.111749   893A      2.114817   894A      2.119296  
     895A      2.119391   896A      2.120570   897A      2.120774  
     898A      2.126168   899A      2.126608   900A      2.133801  
     901A      2.134564   902A      2.135817   903A      2.135894  
     904A      2.143170   905A      2.143187   906A      2.155653  
     907A      2.159756   908A      2.159804   909A      2.162794  
     910A      2.162940   911A      2.171285   912A      2.178276  
     913A      2.178369   914A      2.190387   915A      2.190754  
     916A      2.192489   917A      2.193790   918A      2.195783  
     919A      2.195876   920A      2.198466   921A      2.219658  
     922A      2.220282   923A      2.220306   924A      2.228012  
     925A      2.228177   926A      2.228561   927A      2.229226  
     928A      2.243240   929A      2.243617   930A      2.243835  
     931A      2.244249   932A      2.247129   933A      2.260073  
     934A      2.260229   935A      2.270133   936A      2.270171  
     937A      2.272015   938A      2.272082   939A      2.281043  
     940A      2.300175   941A      2.306663   942A      2.310325  
     943A      2.312164   944A      2.320440   945A      2.322316  
     946A      2.330950   947A      2.331005   948A      2.331090  
     949A      2.333861   950A      2.350691   951A      2.351431  
     952A      2.352357   953A      2.352487   954A      2.366278  
     955A      2.366402   956A      2.374586   957A      2.379596  
     958A      2.415847   959A      2.423994   960A      2.424372  
     961A      2.424390   962A      2.436443   963A      2.441108  
     964A      2.441187   965A      2.469896   966A      2.472754  
     967A      2.473052   968A      2.485392   969A      2.485526  
     970A      2.502289   971A      2.519274   972A      2.529783  
     973A      2.529919   974A      2.543554   975A      2.545390  
     976A      2.545621   977A      2.554262   978A      2.554281  
     979A      2.554789   980A      2.559820   981A      2.559841  
     982A      2.572961   983A      2.573004   984A      2.574651  
     985A      2.575201   986A      2.586220   987A      2.586346  
     988A      2.587255   989A      2.589705   990A      2.591383  
     991A      2.606099   992A      2.623459   993A      2.623552  
     994A      2.625277   995A      2.631318   996A      2.631927  
     997A      2.641179   998A      2.641244   999A      2.650775  
    1000A      2.651127  1001A      2.656836  1002A      2.681934  
    1003A      2.683167  1004A      2.683971  1005A      2.686758  
    1006A      2.702001  1007A      2.702285  1008A      2.713000  
    1009A      2.713011  1010A      2.718676  1011A      2.718690  
    1012A      2.722661  1013A      2.722959  1014A      2.737818  
    1015A      2.752126  1016A      2.752684  1017A      2.776980  
    1018A      2.794551  1019A      2.794642  1020A      2.811325  
    1021A      2.811955  1022A      2.813246  1023A      2.816506  
    1024A      2.827081  1025A      2.827630  1026A      2.851864  
    1027A      2.852114  1028A      2.856012  1029A      2.858301  
    1030A      2.859405  1031A      2.859455  1032A      2.867221  
    1033A      2.916670  1034A      2.916860  1035A      2.923910  
    1036A      2.933525  1037A      2.933595  1038A      2.949562  
    1039A      2.949628  1040A      2.962775  1041A      3.006998  
    1042A      3.007391  1043A      3.011855  1044A      3.029359  
    1045A      3.064061  1046A      3.064198  1047A      3.070406  
    1048A      3.070684  1049A      3.109392  1050A      3.110154  
    1051A      3.127851  1052A      3.129464  1053A      3.129934  
    1054A      3.137440  1055A      3.146330  1056A      3.146382  
    1057A      3.146461  1058A      3.149019  1059A      3.149064  
    1060A      3.157647  1061A      3.158183  1062A      3.165714  
    1063A      3.166127  1064A      3.191627  1065A      3.211131  
    1066A      3.218477  1067A      3.237408  1068A      3.272820  
    1069A      3.276898  1070A      3.277036  1071A      3.281735  
    1072A      3.282052  1073A      3.416292  1074A      3.416724  
    1075A      3.442883  1076A      3.481366  1077A      3.484092  
    1078A      3.549127  1079A      3.577034  1080A      3.579016  
    1081A      3.593805  1082A      3.626472  1083A      3.628481  
    1084A      3.662905  1085A      3.668059  1086A      3.769209  
    1087A      3.782659  1088A      3.783610  1089A      3.870710  
    1090A      3.870773  1091A      3.913095  1092A      3.913230  
    1093A      3.976895  1094A      4.010856  1095A      4.032726  
    1096A      4.044728  1097A      4.080899  1098A      4.183017  
    1099A      4.189688  1100A      4.191620  1101A      4.324057  
    1102A      5.746930  1103A      5.747148  1104A      5.748311  
    1105A      5.751584  1106A      5.751795  1107A      5.757057  
    1108A      5.757801  1109A      5.758979  1110A      5.777629  
    1111A      5.777655  1112A      5.778591  1113A      6.018092  
    1114A      6.018724  1115A      6.019292  1116A      6.191247  
    1117A      6.325218  1118A      6.325526  1119A      6.371189  
    1120A      6.373249  1121A      6.373843  1122A      7.141997  
    1123A      7.172690  1124A      7.220937  1125A      7.225349  
    1126A      7.227971  1127A      7.244264  1128A      7.246639  
    1129A      7.255037  1130A      7.453386  1131A      7.456119  
    1132A      7.461571  1133A      7.594060  1134A     12.593091  
    1135A     42.906017  1136A     42.908440  1137A     42.909655  
    1138A     42.936366  

    Final Occupation by Irrep:
              A 
    DOCC [   171 ]
    NA   [   171 ]
    NB   [   171 ]

  @DF-RHF Final Energy: -2055.89168401064717

   => Energetics <=

    Nuclear Repulsion Energy =           6452.5568002797781446
    One-Electron Energy =              -15636.4267524017395772
    Two-Electron Energy =                7127.9782681113129001
    Total Energy =                      -2055.8916840106476229

Computation Completed


Properties will be evaluated at   0.000000,   0.000000,   0.000000 [a0]

Properties computed using the SCF density matrix


 Multipole Moments:

 ------------------------------------------------------------------------------------
     Multipole            Electronic (a.u.)      Nuclear  (a.u.)        Total (a.u.)
 ------------------------------------------------------------------------------------

 L = 1.  Multiply by 2.5417464519 to convert [e a0] to [Debye]
 Dipole X            :          0.0000805            0.0000112            0.0000917
 Dipole Y            :          0.0000259           -0.0000531           -0.0000272
 Dipole Z            :        522.6100505         -522.6114577           -0.0014072
 Magnitude           :                                                    0.0014105

 ------------------------------------------------------------------------------------

*** tstop() called on d-6-11-4 at Mon Jan 22 12:14:55 2024
Module time:
	user time   =    2311.04 seconds =      38.52 minutes
	system time =      66.33 seconds =       1.11 minutes
	total time  =        267 seconds =       4.45 minutes
Total time:
	user time   =    6333.64 seconds =     105.56 minutes
	system time =     139.01 seconds =       2.32 minutes
	total time  =        691 seconds =      11.52 minutes
  Constructing Basis Sets for SAPT...

   => Loading Basis Set <=

    Name: (JUN-CC-PVDZ AUX)
    Role: RIFIT
    Keyword: DF_BASIS_SAPT
    atoms 1     entry B          line    56 file /home/gridsan/tfroembgen/.conda/envs/psi4test/share/psi4/basis/jun-cc-pvdz-ri.gbs 
    atoms 2-5   entry F          line   232 file /home/gridsan/tfroembgen/.conda/envs/psi4test/share/psi4/basis/jun-cc-pvdz-ri.gbs 
    atoms 6-59  entry C          line   100 file /home/gridsan/tfroembgen/.conda/envs/psi4test/share/psi4/basis/jun-cc-pvdz-ri.gbs 
    atoms 60-77 entry H          line    30 file /home/gridsan/tfroembgen/.conda/envs/psi4test/share/psi4/basis/jun-cc-pvdz-ri.gbs 

   => Loading Basis Set <=

    Name: (JUN-CC-PVDZ AUX)
    Role: JKFIT
    Keyword: DF_BASIS_ELST
    atoms 1     entry B          line    90 file /home/gridsan/tfroembgen/.conda/envs/psi4test/share/psi4/basis/jun-cc-pvdz-jkfit.gbs 
    atoms 2-5   entry F          line   314 file /home/gridsan/tfroembgen/.conda/envs/psi4test/share/psi4/basis/jun-cc-pvdz-jkfit.gbs 
    atoms 6-59  entry C          line   146 file /home/gridsan/tfroembgen/.conda/envs/psi4test/share/psi4/basis/jun-cc-pvdz-jkfit.gbs 
    atoms 60-77 entry H          line    70 file /home/gridsan/tfroembgen/.conda/envs/psi4test/share/psi4/basis/jun-cc-pvdz-jkfit.gbs 


  //>>>>>>>>>>>>>>>>>>>>>>>>>>>>>>>>>>>//
  //               SSAPT0              //
  //<<<<<<<<<<<<<<<<<<<<<<<<<<<<<<<<<<<//


*** tstart() called on d-6-11-4
*** at Mon Jan 22 12:14:56 2024

        SAPT0  
    Ed Hohenstein
     6 June 2009

      Orbital Information
  --------------------------
    NSO        =      1152
    NMO        =      1138
    NRI        =      4087
    NRI (Elst) =      5075
    NOCC A     =        21
    NOCC B     =       171
    FOCC A     =         5
    FOCC B     =        54
    NVIR A     =      1117
    NVIR B     =       967

    Elst10,r            =     0.007484470927 [Eh]
    Exch10              =    -0.000000184451 [Eh]
    Exch10 (S^2)        =    -0.000000184450 [Eh]

    Iter     Energy [mEh]          dE [mEh]         Residual      Time [s]
       1      -0.00481033       0.004810332       0.507140930            47
       2      -0.00565854       0.000848207       0.264920537            65
       3      -0.00600419       0.000345646       0.050269667            82
       4      -0.00601128       0.000007094       0.010519274           100
       5      -0.00600130      -0.000009976       0.001420839           115
       6      -0.00600250       0.000001196       0.000270325           138
       7      -0.00600246      -0.000000044       0.000061186           152
       8      -0.00600244      -0.000000018       0.000010352           166
       9      -0.00600244       0.000000000       0.000003185           181
      10      -0.00600244       0.000000001       0.000000489           196

    CHF Iterations converged


    Iter     Energy [mEh]          dE [mEh]         Residual      Time [s]
       1      -3.36969855       3.369698551      30.433996254           393
       2      -2.28663919      -1.083059361       3.825343878           981
       3      -2.28771638       0.001077191       1.360658772          1040
       4      -2.34171469       0.053998308       0.306292162          1056
       5      -2.34418261       0.002467924       0.086079016          1071
       6      -2.34313006      -0.001052554       0.040885945          1089
       7      -2.34276830      -0.000361764       0.018935860          1109
       8      -2.34296819       0.000199891       0.012638298          1131
       9      -2.34303579       0.000067607       0.007932754          1148
      10      -2.34297679      -0.000059005       0.004351467          1168
      11      -2.34296708      -0.000009710       0.002003000          1193
      12      -2.34297295       0.000005867       0.000833264          1224
      13      -2.34297687       0.000003921       0.000310121          1242
      14      -2.34297655      -0.000000314       0.000108518          1261
      15      -2.34297580      -0.000000752       0.000041824          1287
      16      -2.34297596       0.000000155       0.000027610          1310
      17      -2.34297607       0.000000109       0.000011643          1330
      18      -2.34297604      -0.000000022       0.000004180          1350
      19      -2.34297603      -0.000000017       0.000002179          1370
      20      -2.34297602      -0.000000002       0.000000964          1394

    CHF Iterations converged

    Ind20,r (A<-B)      =    -0.000006002439 [Eh]
    Ind20,r (B<-A)      =    -0.002342976025 [Eh]
    Ind20,r             =    -0.002348978464 [Eh]
    Exch-Ind20,r (A<-B) =     0.000000035151 [Eh]
    Exch-Ind20,r (B<-A) =     0.000000092975 [Eh]
    Exch-Ind20,r        =     0.000000128126 [Eh]
    Disp20              =    -0.000395872728 [Eh]
    Disp20 (SS)         =    -0.000197936364 [Eh]
    Disp20 (OS)         =    -0.000197936364 [Eh]
    Exch-Disp20         =     0.000000109328 [Eh]
    Exch-Disp20 (SS)    =     0.000000084537 [Eh]
    Exch-Disp20 (OS)    =     0.000000024791 [Eh]

    SAPT Results 
  --------------------------------------------------------------------------------------------------------
    Electrostatics                  7.48447093 [mEh]       4.69657641 [kcal/mol]      19.65047571 [kJ/mol]
      Elst10,r                      7.48447093 [mEh]       4.69657641 [kcal/mol]      19.65047571 [kJ/mol]

    Exchange                       -0.00018445 [mEh]      -0.00011574 [kcal/mol]      -0.00048427 [kJ/mol]
      Exch10                       -0.00018445 [mEh]      -0.00011574 [kcal/mol]      -0.00048427 [kJ/mol]
      Exch10(S^2)                  -0.00018445 [mEh]      -0.00011574 [kcal/mol]      -0.00048427 [kJ/mol]

    Induction                      -2.33326236 [mEh]      -1.46414424 [kcal/mol]      -6.12597949 [kJ/mol]
      Ind20,r                      -2.34897846 [mEh]      -1.47400624 [kcal/mol]      -6.16724211 [kJ/mol]
      Exch-Ind20,r                  0.00012813 [mEh]       0.00008040 [kcal/mol]       0.00033639 [kJ/mol]
      delta HF,r (2)                0.01558798 [mEh]       0.00978160 [kcal/mol]       0.04092622 [kJ/mol]

    Dispersion                     -0.39576340 [mEh]      -0.24834528 [kcal/mol]      -1.03907666 [kJ/mol]
      Disp20                       -0.39587273 [mEh]      -0.24841389 [kcal/mol]      -1.03936370 [kJ/mol]
      Exch-Disp20                   0.00010933 [mEh]       0.00006860 [kcal/mol]       0.00028704 [kJ/mol]
      Disp20 (SS)                  -0.19793636 [mEh]      -0.12420694 [kcal/mol]      -0.51968185 [kJ/mol]
      Disp20 (OS)                  -0.19793636 [mEh]      -0.12420694 [kcal/mol]      -0.51968185 [kJ/mol]
      Exch-Disp20 (SS)              0.00008454 [mEh]       0.00005305 [kcal/mol]       0.00022195 [kJ/mol]
      Exch-Disp20 (OS)              0.00002479 [mEh]       0.00001556 [kcal/mol]       0.00006509 [kJ/mol]

  Total HF                          5.15102411 [mEh]       3.23231643 [kcal/mol]      13.52401195 [kJ/mol]
  Total SAPT0                       4.75526071 [mEh]       2.98397115 [kcal/mol]      12.48493528 [kJ/mol]

  Special recipe for scaled SAPT0 (see Manual):
    Electrostatics sSAPT0           7.48447093 [mEh]       4.69657641 [kcal/mol]      19.65047571 [kJ/mol]
    Exchange sSAPT0                -0.00018445 [mEh]      -0.00011574 [kcal/mol]      -0.00048427 [kJ/mol]
    Induction sSAPT0               -2.33326236 [mEh]      -1.46414424 [kcal/mol]      -6.12597949 [kJ/mol]
    Dispersion sSAPT0              -0.39576340 [mEh]      -0.24834528 [kcal/mol]      -1.03907666 [kJ/mol]
  Total sSAPT0                      4.75526071 [mEh]       2.98397115 [kcal/mol]      12.48493528 [kJ/mol]
  --------------------------------------------------------------------------------------------------------

*** tstop() called on d-6-11-4 at Mon Jan 22 13:13:15 2024
Module time:
	user time   =    6848.48 seconds =     114.14 minutes
	system time =     750.56 seconds =      12.51 minutes
	total time  =       3499 seconds =      58.32 minutes
Total time:
	user time   =   13183.05 seconds =     219.72 minutes
	system time =     889.58 seconds =      14.83 minutes
	total time  =       4191 seconds =      69.85 minutes

    Psi4 stopped on: Monday, 22 January 2024 01:13PM
    Psi4 wall time for execution: 1:09:52.12

*** Psi4 exiting successfully. Buy a developer a beer!
