
    -----------------------------------------------------------------------
          Psi4: An Open-Source Ab Initio Electronic Structure Package
                               Psi4 1.9 release

                         Git: Rev {} zzzzzzz 


    D. G. A. Smith, L. A. Burns, A. C. Simmonett, R. M. Parrish,
    M. C. Schieber, R. Galvelis, P. Kraus, H. Kruse, R. Di Remigio,
    A. Alenaizan, A. M. James, S. Lehtola, J. P. Misiewicz, M. Scheurer,
    R. A. Shaw, J. B. Schriber, Y. Xie, Z. L. Glick, D. A. Sirianni,
    J. S. O'Brien, J. M. Waldrop, A. Kumar, E. G. Hohenstein,
    B. P. Pritchard, B. R. Brooks, H. F. Schaefer III, A. Yu. Sokolov,
    K. Patkowski, A. E. DePrince III, U. Bozkaya, R. A. King,
    F. A. Evangelista, J. M. Turney, T. D. Crawford, C. D. Sherrill,
    J. Chem. Phys. 152(18) 184108 (2020). https://doi.org/10.1063/5.0006002

                            Additional Code Authors
    E. T. Seidl, C. L. Janssen, E. F. Valeev, M. L. Leininger,
    J. F. Gonthier, R. M. Richard, H. R. McAlexander, M. Saitow, X. Wang,
    P. Verma, M. H. Lechner, A. Jiang, S. Behnle, A. G. Heide,
    M. F. Herbst, and D. L. Poole

             Previous Authors, Complete List of Code Contributors,
                       and Citations for Specific Modules
    https://github.com/psi4/psi4/blob/master/codemeta.json
    https://github.com/psi4/psi4/graphs/contributors
    http://psicode.org/psi4manual/master/introduction.html#citing-psifour

    -----------------------------------------------------------------------


    Psi4 started on: Monday, 22 January 2024 12:01PM

    Process ID: 2839483
    Host:       d-18-8-4
    PSIDATADIR: /home/gridsan/tfroembgen/.conda/envs/psi4test/share/psi4
    Memory:     500.0 MiB
    Threads:    12
    
  ==> Input File <==

--------------------------------------------------------------------------
memory 32 GB # how much memory is available ! Depends on the nodes/cores !

molecule dimer {
# monomer A
-1 1    # Charge and multiplicity
B -0.000046  0.000337 6.399994
F -1.153597  0.000048 7.215641
F  1.153661 -0.000581 7.215641
F -0.000019 -1.153637 5.584360
F -0.000019  1.153978 5.584360
--
# monomer B
0 1     # Charge and multiplicity
C   1.22531237526482      0.70753866091955      0.00613762728373
C   1.22532433589282     -0.70753852257020     -0.00619318228664
C   -0.00000567409046      1.41496628609039     -0.00672680580738
C   2.45644923379077      1.41832825917820      0.00902448468363
C   0.00001130712078     -1.41497612663474      0.00347275151708
C   -1.22530046906674      0.70754574598412      0.00838914760619
C   2.45643823516184     -1.41832293188077     -0.00843833914343
C   -0.00000085313587      2.83680140328112     -0.00913035594137
C   3.68182717731192      0.70931832800114     -0.00808954934571
C   2.45512052870677      2.83422403348893     -0.00819210630633
C   3.68182158506039     -0.70933346742900      0.00798293467272
C   -1.22531311884624     -0.70752714354401     -0.00512042085974
C   1.22670006104402      3.54346985599427      0.00816696660346
C   0.00000526469929     -2.83678176723568      0.00832091913869
C   -2.45643555300670      1.41831729028492      0.00842454345199
C   2.45512389762097     -2.83422965658853      0.00783102630520
C   -1.22671388474763      3.54346943575023      0.00827029982280
C   4.91451777504333      1.42717324448953     -0.00160886631602
C   3.69315067131765      3.54279566454522     -0.00155906667985
C   -2.45643712022637     -1.41831290883911     -0.00846337726810
C   1.22670532178455     -3.54347386990643     -0.00780316414624
C   -2.45512491866593      2.83421703463423     -0.00818572995999
C   4.91452486062398     -1.42718653794377      0.00136387641845
C   1.22142509354026      4.97013443726031      0.00150231067809
C   4.89300870916237      2.82518837202648     -0.00039219795739
C   -1.22669652864725     -3.54347062507680     -0.00753595973677
C   -3.68181849668397      0.70932533873199     -0.00807686886569
C   3.69314758099218     -3.54280096939050      0.00148176697923
C   -1.22143177215231      4.97012866986289      0.00168580605083
C   6.13477145276790      0.68054831910577     -0.00083909176631
C   3.65678936045204      4.97295361556775     -0.00065042889723
C   -2.45512642789169     -2.83421472106065      0.00758666850712
C   -3.68181869921921     -0.70932533146830      0.00810055625144
C   4.89301309775526     -2.82519973363176      0.00021895393805
C   -0.00000059327114      5.65044773803267      0.00045449734393
C   6.13477559217374     -0.68055448207492      0.00042622874941
C   2.47813196269732      5.65357712333155      0.00063835075260
C   1.22142288457925     -4.97012668293268     -0.00129718634452
C   -3.69316190412301      3.54279732619245     -0.00139355922051
C   -1.22142804110313     -4.97011793159564     -0.00140994817719
C   -4.91452132810043      1.42717581899491     -0.00153192130862
C   3.65678749952045     -4.97295485423912      0.00080007163680
C   -2.47813805026426      5.65357479452875      0.00092287576113
C   -3.69314125872231     -3.54278984697859      0.00136564082345
C   -4.91451200321153     -1.42718062802730      0.00139857359209
C   -0.00000552908399     -5.65043791501335      0.00005899322272
C   -4.89302000425900      2.82518897091939     -0.00040227981744
C   2.47812647313991     -5.65357317188818     -0.00029052915548
C   -3.65679823041642      4.97295655404175     -0.00047374852278
C   -4.89299899901461     -2.82519139505969      0.00006491824035
C   -2.47812801824129     -5.65356579800621     -0.00056571680280
C   -6.13477002348955      0.68054913825639     -0.00086464346868
C   -3.65678835334731     -4.97294365097028      0.00058578382008
C   -6.13476456307132     -0.68055354348201      0.00040575295444
H   5.83528897565761      3.36927626695423      0.00396712770529
H   7.07385965258860      1.22821762089947     -0.00037744837300
H   4.60066374401555      5.51238117445323     -0.00014522814529
H   5.83528386714679     -3.36930568472863     -0.00423551337640
H   -0.00001167146422      6.73853104613662     -0.00389474766392
H   7.07386165167227     -1.22822657074368     -0.00008250934481
H   2.47331421164041      6.74068466339473      0.00017162982210
H   4.60066897122302     -5.51237575717576      0.00039007446835
H   -2.47331820069565      6.74068209160650      0.00047297644710
H   -0.00000978838621     -6.73852780445195      0.00458867820736
H   -5.83530143450167      3.36927132229595      0.00410314985360
H   2.47330840367253     -6.74068500242887      0.00027980126949
H   -4.60067436136587      5.51237839860371      0.00002010017831
H   -5.83527902699321     -3.36928859177951     -0.00451481925734
H   -2.47329986759855     -6.74067870613986     -0.00016951527498
H   -7.07385728692578      1.22822084484047     -0.00046143985387
H   -4.60067330624313     -5.51236229778631      0.00021776644566
H   -7.07385645456741     -1.22822025997701     -0.00017736581114

    units angstrom      # Angstroms are the default
    no_reorient         # Geometry fixed, default
    symmetry c1         # C1 symmetry, default
}

set {
    scf_type DF         # Density fitting, faster than exact integrals
    freeze_core True    # Freeze core electrons
    basis jun-cc-pVDZ   # Jun-cc-pVDZ basis set, recommended for sSAPT0 in https://doi.org/10.1063/1.4867135
}

energy('ssapt0')        # Compute sSAPT0 energy, includes also SAPT0
--------------------------------------------------------------------------

  Memory set to  29.802 GiB by Python driver.

Scratch directory: /state/partition1/slurm_tmp/24792931.4294967291.0/
   => Loading Basis Set <=

    Name: JUN-CC-PVDZ
    Role: ORBITAL
    Keyword: BASIS
    atoms 1     entry B          line   130 file /home/gridsan/tfroembgen/.conda/envs/psi4test/share/psi4/basis/jun-cc-pvdz.gbs 
    atoms 2-5   entry F          line   266 file /home/gridsan/tfroembgen/.conda/envs/psi4test/share/psi4/basis/jun-cc-pvdz.gbs 
    atoms 6-59  entry C          line   164 file /home/gridsan/tfroembgen/.conda/envs/psi4test/share/psi4/basis/jun-cc-pvdz.gbs 
    atoms 60-77 entry H          line    36 file /home/gridsan/tfroembgen/.conda/envs/psi4test/share/psi4/basis/jun-cc-pvdz.gbs 

   => Loading Basis Set <=

    Name: JUN-CC-PVDZ
    Role: ORBITAL
    Keyword: BASIS
    atoms 1     entry B          line   130 file /home/gridsan/tfroembgen/.conda/envs/psi4test/share/psi4/basis/jun-cc-pvdz.gbs 
    atoms 2-5   entry F          line   266 file /home/gridsan/tfroembgen/.conda/envs/psi4test/share/psi4/basis/jun-cc-pvdz.gbs 
    atoms 6-59  entry C          line   164 file /home/gridsan/tfroembgen/.conda/envs/psi4test/share/psi4/basis/jun-cc-pvdz.gbs 
    atoms 60-77 entry H          line    36 file /home/gridsan/tfroembgen/.conda/envs/psi4test/share/psi4/basis/jun-cc-pvdz.gbs 


  //>>>>>>>>>>>>>>>>>>>>>>>>>>>>>>>>>>>//
  //              Dimer HF             //
  //<<<<<<<<<<<<<<<<<<<<<<<<<<<<<<<<<<<//

   => Libint2 <=

    Primary   basis highest AM E, G, H:  7, 7, 4
    Auxiliary basis highest AM E, G, H:  7, 7, 5
    Onebody   basis highest AM E, G, H:  7, 7, 5
    Solid Harmonics ordering:            gaussian

*** tstart() called on d-18-8-4
*** at Mon Jan 22 12:01:16 2024

   => Loading Basis Set <=

    Name: JUN-CC-PVDZ
    Role: ORBITAL
    Keyword: BASIS
    atoms 1     entry B          line   130 file /home/gridsan/tfroembgen/.conda/envs/psi4test/share/psi4/basis/jun-cc-pvdz.gbs 
    atoms 2-5   entry F          line   266 file /home/gridsan/tfroembgen/.conda/envs/psi4test/share/psi4/basis/jun-cc-pvdz.gbs 
    atoms 6-59  entry C          line   164 file /home/gridsan/tfroembgen/.conda/envs/psi4test/share/psi4/basis/jun-cc-pvdz.gbs 
    atoms 60-77 entry H          line    36 file /home/gridsan/tfroembgen/.conda/envs/psi4test/share/psi4/basis/jun-cc-pvdz.gbs 


         ---------------------------------------------------------
                                   SCF
               by Justin Turney, Rob Parrish, Andy Simmonett
                          and Daniel G. A. Smith
                              RHF Reference
                       12 Threads,  30517 MiB Core
         ---------------------------------------------------------

  ==> Geometry <==

    Molecular point group: c1
    Full point group: C1

    Geometry (in Angstrom), charge = -1, multiplicity = 1:

       Center              X                  Y                   Z               Mass       
    ------------   -----------------  -----------------  -----------------  -----------------
         B           -0.000046449334     0.000336519434     5.660670391763    11.009305360000
         F           -1.153597449334     0.000047519434     6.476317391763    18.998403162730
         F            1.153660550666    -0.000581480566     6.476317391763    18.998403162730
         F           -0.000019449334    -1.153637480566     4.845036391763    18.998403162730
         F           -0.000019449334     1.153977519434     4.845036391763    18.998403162730
         C            1.225311925931     0.707538180353    -0.733185980953    12.000000000000
         C            1.225323886559    -0.707539003137    -0.745516790523    12.000000000000
         C           -0.000006123424     1.414965805524    -0.746050414044    12.000000000000
         C            2.456448784457     1.418327778612    -0.730299123553    12.000000000000
         C            0.000010857787    -1.414976607201    -0.735850856719    12.000000000000
         C           -1.225300918401     0.707545265418    -0.730934460630    12.000000000000
         C            2.456437785828    -1.418323412447    -0.747761947380    12.000000000000
         C           -0.000001302470     2.836800922715    -0.748453964178    12.000000000000
         C            3.681826727978     0.709317847435    -0.747413157582    12.000000000000
         C            2.455120079373     2.834223552923    -0.747515714543    12.000000000000
         C            3.681821135726    -0.709333947995    -0.731340673564    12.000000000000
         C           -1.225313568180    -0.707527624110    -0.744444029096    12.000000000000
         C            1.226699611710     3.543469375428    -0.731156641633    12.000000000000
         C            0.000004815365    -2.836782247802    -0.731002689098    12.000000000000
         C           -2.456436002341     1.418316809719    -0.730899064785    12.000000000000
         C            2.455123448287    -2.834230137155    -0.731492581931    12.000000000000
         C           -1.226714334082     3.543468955184    -0.731053308414    12.000000000000
         C            4.914517325709     1.427172763923    -0.740932474553    12.000000000000
         C            3.693150221984     3.542795183979    -0.740882674916    12.000000000000
         C           -2.456437569560    -1.418313389406    -0.747786985505    12.000000000000
         C            1.226704872451    -3.543474350473    -0.747126772383    12.000000000000
         C           -2.455125368000     2.834216554068    -0.747509338197    12.000000000000
         C            4.914524411290    -1.427187018510    -0.737959731818    12.000000000000
         C            1.221424644206     4.970133956694    -0.737821297558    12.000000000000
         C            4.893008259828     2.825187891460    -0.739715806194    12.000000000000
         C           -1.226696977981    -3.543471105643    -0.746859567973    12.000000000000
         C           -3.681818946018     0.709324858166    -0.747400477102    12.000000000000
         C            3.693147131658    -3.542801449957    -0.737841841257    12.000000000000
         C           -1.221432221486     4.970128189296    -0.737637802186    12.000000000000
         C            6.134771003434     0.680547838539    -0.740162700003    12.000000000000
         C            3.656788911118     4.972953135001    -0.739974037134    12.000000000000
         C           -2.455126877226    -2.834215201627    -0.731736939729    12.000000000000
         C           -3.681819148553    -0.709325812035    -0.731223051985    12.000000000000
         C            4.893012648421    -2.825200214198    -0.739104654299    12.000000000000
         C           -0.000001042605     5.650447257466    -0.738869110893    12.000000000000
         C            6.134775142840    -0.680554962641    -0.738897379487    12.000000000000
         C            2.478131513363     5.653576642765    -0.738685257484    12.000000000000
         C            1.221422435245    -4.970127163499    -0.740620794581    12.000000000000
         C           -3.693162353457     3.542796845626    -0.740717167457    12.000000000000
         C           -1.221428490437    -4.970118412162    -0.740733556414    12.000000000000
         C           -4.914521777434     1.427175338429    -0.740855529545    12.000000000000
         C            3.656787050187    -4.972955334806    -0.738523536600    12.000000000000
         C           -2.478138499598     5.653574313962    -0.738400732475    12.000000000000
         C           -3.693141708056    -3.542790327545    -0.737957967413    12.000000000000
         C           -4.914512452545    -1.427181108594    -0.737925034644    12.000000000000
         C           -0.000005978418    -5.650438395580    -0.739264615014    12.000000000000
         C           -4.893020453593     2.825188490353    -0.739725888054    12.000000000000
         C            2.478126023806    -5.653573652455    -0.739614137392    12.000000000000
         C           -3.656798679750     4.972956073475    -0.739797356759    12.000000000000
         C           -4.892999448349    -2.825191875626    -0.739258689996    12.000000000000
         C           -2.478128467575    -5.653566278573    -0.739889325039    12.000000000000
         C           -6.134770472823     0.680548657690    -0.740188251705    12.000000000000
         C           -3.656788802681    -4.972944131537    -0.738737824416    12.000000000000
         C           -6.134765012405    -0.680554024048    -0.738917855282    12.000000000000
         H            5.835288526324     3.369275786388    -0.735356480531     1.007825032230
         H            7.073859203255     1.228217140333    -0.739701056610     1.007825032230
         H            4.600663294682     5.512380693887    -0.739468836382     1.007825032230
         H            5.835283417813    -3.369306165295    -0.743559121613     1.007825032230
         H           -0.000012120798     6.738530565570    -0.743218355900     1.007825032230
         H            7.073861202338    -1.228227051310    -0.739406117581     1.007825032230
         H            2.473313762307     6.740684182828    -0.739151978414     1.007825032230
         H            4.600668521889    -5.512376237742    -0.738933533768     1.007825032230
         H           -2.473318650030     6.740681611040    -0.738850631789     1.007825032230
         H           -0.000010237720    -6.738528285018    -0.734734930029     1.007825032230
         H           -5.835301883836     3.369270841730    -0.735220458383     1.007825032230
         H            2.473307954339    -6.740685482995    -0.739043806967     1.007825032230
         H           -4.600674810700     5.512377918037    -0.739303508058     1.007825032230
         H           -5.835279476327    -3.369289072346    -0.743838427494     1.007825032230
         H           -2.473300316932    -6.740679186706    -0.739493123512     1.007825032230
         H           -7.073857736260     1.228220364274    -0.739785048090     1.007825032230
         H           -4.600673755577    -5.512362778353    -0.739105841791     1.007825032230
         H           -7.073856903901    -1.228220740543    -0.739500974048     1.007825032230

  Running in c1 symmetry.

  Rotational constants: A =      0.00155  B =      0.00155  C =      0.00110 [cm^-1]
  Rotational constants: A =     46.56162  B =     46.55644  C =     33.02250 [MHz]
  Nuclear repulsion = 7571.605419422468913

  Charge       = -1
  Multiplicity = 1
  Electrons    = 384
  Nalpha       = 192
  Nbeta        = 192

  ==> Algorithm <==

  SCF Algorithm Type is DF.
  DIIS enabled.
  MOM disabled.
  Fractional occupation disabled.
  Guess Type is SAD.
  Energy threshold   = 1.00e-08
  Density threshold  = 1.00e-08
  Integral threshold = 1.00e-12

  ==> Primary Basis <==

  Basis Set: JUN-CC-PVDZ
    Blend: JUN-CC-PVDZ
    Number of shells: 526
    Number of basis functions: 1152
    Number of Cartesian functions: 1211
    Spherical Harmonics?: true
    Max angular momentum: 2

   => Loading Basis Set <=

    Name: (JUN-CC-PVDZ AUX)
    Role: JKFIT
    Keyword: DF_BASIS_SCF
    atoms 1     entry B          line    90 file /home/gridsan/tfroembgen/.conda/envs/psi4test/share/psi4/basis/jun-cc-pvdz-jkfit.gbs 
    atoms 2-5   entry F          line   314 file /home/gridsan/tfroembgen/.conda/envs/psi4test/share/psi4/basis/jun-cc-pvdz-jkfit.gbs 
    atoms 6-59  entry C          line   146 file /home/gridsan/tfroembgen/.conda/envs/psi4test/share/psi4/basis/jun-cc-pvdz-jkfit.gbs 
    atoms 60-77 entry H          line    70 file /home/gridsan/tfroembgen/.conda/envs/psi4test/share/psi4/basis/jun-cc-pvdz-jkfit.gbs 

  ==> Integral Setup <==

  ==> DiskDFJK: Density-Fitted J/K Matrices <==

    J tasked:                  Yes
    K tasked:                  Yes
    wK tasked:                  No
    OpenMP threads:             12
    Integrals threads:          12
    Memory [MiB]:            22888
    Algorithm:                Core
    Integral Cache:           SAVE
    Schwarz Cutoff:          1E-12
    Fitting Condition:       1E-10

   => Auxiliary Basis Set <=

  Basis Set: (JUN-CC-PVDZ AUX)
    Blend: JUN-CC-PVDZ-JKFIT
    Number of shells: 1755
    Number of basis functions: 5075
    Number of Cartesian functions: 5819
    Spherical Harmonics?: true
    Max angular momentum: 3

  Minimum eigenvalue in the overlap matrix is 8.3832485910E-10.
  Reciprocal condition number of the overlap matrix is 3.7400884613E-11.
    Using canonical orthogonalization.
  Overall, 14 of 1152 possible MOs eliminated.


  ==> Pre-Iterations <==

  SCF Guess: Superposition of Atomic Densities via on-the-fly atomic UHF (no occupation information).

   -------------------------
    Irrep   Nso     Nmo    
   -------------------------
     A       1152    1138 
   -------------------------
    Total    1152    1138
   -------------------------

  ==> Iterations <==

                           Total Energy        Delta E     RMS |[F,P]|

   @DF-RHF iter SAD: -2483.26068787660734   -2.48326e+03   0.00000e+00 
   @DF-RHF iter   1: -2477.62114771590814    5.63954e+00   1.09943e-03 ADIIS/DIIS
   @DF-RHF iter   2: -2478.50966574561289   -8.88518e-01   4.76034e-04 ADIIS/DIIS
   @DF-RHF iter   3: -2478.64208760102565   -1.32422e-01   1.31551e-04 ADIIS/DIIS
   @DF-RHF iter   4: -2478.65517917877014   -1.30916e-02   5.36255e-05 DIIS
   @DF-RHF iter   5: -2478.65757632731311   -2.39715e-03   1.60414e-05 DIIS
   @DF-RHF iter   6: -2478.65785855107515   -2.82224e-04   5.38289e-06 DIIS
   @DF-RHF iter   7: -2478.65793928676476   -8.07357e-05   2.64756e-06 DIIS
   @DF-RHF iter   8: -2478.65796152493976   -2.22382e-05   1.21541e-06 DIIS
   @DF-RHF iter   9: -2478.65796812823328   -6.60329e-06   2.49724e-07 DIIS
   @DF-RHF iter  10: -2478.65796834701132   -2.18778e-07   8.82553e-08 DIIS
   @DF-RHF iter  11: -2478.65796836351819   -1.65069e-08   3.43174e-08 DIIS
   @DF-RHF iter  12: -2478.65796836700292   -3.48473e-09   1.20651e-08 DIIS
   @DF-RHF iter  13: -2478.65796836746085   -4.57931e-10   4.99403e-09 DIIS
  Energy and wave function converged.


  ==> Post-Iterations <==

    Orbital Energies [Eh]
    ---------------------

    Doubly Occupied:                                                      

       1A    -26.064884     2A    -26.064849     3A    -26.064618  
       4A    -26.064437     5A    -11.197091     6A    -11.197090  
       7A    -11.197044     8A    -11.197044     9A    -11.196989  
      10A    -11.196986    11A    -11.196981    12A    -11.196943  
      13A    -11.196940    14A    -11.196936    15A    -11.196886  
      16A    -11.196851    17A    -11.195738    18A    -11.195645  
      19A    -11.195591    20A    -11.195474    21A    -11.195418  
      22A    -11.195364    23A    -11.194919    24A    -11.194626  
      25A    -11.194567    26A    -11.194563    27A    -11.194515  
      28A    -11.194455    29A    -11.194024    30A    -11.194016  
      31A    -11.193901    32A    -11.193600    33A    -11.193514  
      34A    -11.193487    35A    -11.193454    36A    -11.193412  
      37A    -11.193312    38A    -11.193142    39A    -11.193095  
      40A    -11.192943    41A    -11.192943    42A    -11.192836  
      43A    -11.192834    44A    -11.192833    45A    -11.192831  
      46A    -11.192738    47A    -11.191522    48A    -11.191522  
      49A    -11.191414    50A    -11.191412    51A    -11.191411  
      52A    -11.191409    53A    -11.190376    54A    -11.190375  
      55A    -11.190337    56A    -11.190335    57A    -11.190271  
      58A    -11.190228    59A     -7.536961    60A     -1.408642  
      61A     -1.349042    62A     -1.348884    63A     -1.348636  
      64A     -1.180069    65A     -1.157027    66A     -1.156934  
      67A     -1.127413    68A     -1.127409    69A     -1.117798  
      70A     -1.096187    71A     -1.087015    72A     -1.072797  
      73A     -1.072726    74A     -1.051920    75A     -1.051917  
      76A     -1.020064    77A     -1.020060    78A     -1.016194  
      79A     -1.004911    80A     -1.004904    81A     -0.977824  
      82A     -0.961351    83A     -0.958817    84A     -0.958805  
      85A     -0.956547    86A     -0.951933    87A     -0.924881  
      88A     -0.924858    89A     -0.900536    90A     -0.900505  
      91A     -0.833078    92A     -0.833046    93A     -0.825150  
      94A     -0.823308    95A     -0.823206    96A     -0.819236  
      97A     -0.819184    98A     -0.800690    99A     -0.777178  
     100A     -0.756813   101A     -0.754225   102A     -0.750166  
     103A     -0.750120   104A     -0.733882   105A     -0.733878  
     106A     -0.684261   107A     -0.682789   108A     -0.671380  
     109A     -0.671329   110A     -0.671315   111A     -0.671283  
     112A     -0.654860   113A     -0.637798   114A     -0.637758  
     115A     -0.632064   116A     -0.632028   117A     -0.600511  
     118A     -0.599919   119A     -0.591487   120A     -0.589679  
     121A     -0.589673   122A     -0.588996   123A     -0.578341  
     124A     -0.578318   125A     -0.567988   126A     -0.565878  
     127A     -0.565856   128A     -0.546603   129A     -0.541413  
     130A     -0.539645   131A     -0.538812   132A     -0.538782  
     133A     -0.531806   134A     -0.528809   135A     -0.528774  
     136A     -0.526156   137A     -0.526097   138A     -0.526008  
     139A     -0.525355   140A     -0.513029   141A     -0.512905  
     142A     -0.506815   143A     -0.506813   144A     -0.504173  
     145A     -0.504122   146A     -0.496893   147A     -0.494289  
     148A     -0.494248   149A     -0.477930   150A     -0.477928  
     151A     -0.475798   152A     -0.475797   153A     -0.468434  
     154A     -0.464271   155A     -0.461618   156A     -0.461576  
     157A     -0.444981   158A     -0.444947   159A     -0.439991  
     160A     -0.434249   161A     -0.432418   162A     -0.425782  
     163A     -0.423211   164A     -0.420357   165A     -0.420343  
     166A     -0.407088   167A     -0.407001   168A     -0.406144  
     169A     -0.406130   170A     -0.406045   171A     -0.388551  
     172A     -0.388444   173A     -0.382737   174A     -0.382607  
     175A     -0.382538   176A     -0.377921   177A     -0.377910  
     178A     -0.341925   179A     -0.341915   180A     -0.340386  
     181A     -0.314593   182A     -0.314581   183A     -0.287239  
     184A     -0.273403   185A     -0.272321   186A     -0.272308  
     187A     -0.249669   188A     -0.237792   189A     -0.221306  
     190A     -0.221263   191A     -0.163065   192A     -0.163036  

    Virtual:                                                              

     193A      0.075576   194A      0.075677   195A      0.099922  
     196A      0.099965   197A      0.101858   198A      0.102408  
     199A      0.102414   200A      0.109357   201A      0.113452  
     202A      0.124405   203A      0.124407   204A      0.127108  
     205A      0.127176   206A      0.136627   207A      0.139175  
     208A      0.139179   209A      0.143237   210A      0.143266  
     211A      0.143505   212A      0.145227   213A      0.145284  
     214A      0.147838   215A      0.150051   216A      0.151168  
     217A      0.151918   218A      0.158932   219A      0.160009  
     220A      0.165240   221A      0.165244   222A      0.168963  
     223A      0.171323   224A      0.175188   225A      0.175216  
     226A      0.177276   227A      0.182932   228A      0.182952  
     229A      0.183402   230A      0.184853   231A      0.185218  
     232A      0.185839   233A      0.188818   234A      0.189493  
     235A      0.189514   236A      0.192941   237A      0.196791  
     238A      0.198617   239A      0.203175   240A      0.203578  
     241A      0.206047   242A      0.206058   243A      0.209250  
     244A      0.209355   245A      0.214093   246A      0.214102  
     247A      0.227009   248A      0.228193   249A      0.228343  
     250A      0.232335   251A      0.235602   252A      0.236067  
     253A      0.237693   254A      0.237848   255A      0.238421  
     256A      0.243102   257A      0.243175   258A      0.244977  
     259A      0.247515   260A      0.247960   261A      0.250028  
     262A      0.254231   263A      0.254275   264A      0.258693  
     265A      0.259302   266A      0.259320   267A      0.264644  
     268A      0.264719   269A      0.265631   270A      0.267718  
     271A      0.267910   272A      0.268111   273A      0.269458  
     274A      0.269631   275A      0.270690   276A      0.272006  
     277A      0.281137   278A      0.281358   279A      0.281519  
     280A      0.281994   281A      0.283192   282A      0.284173  
     283A      0.284899   284A      0.286678   285A      0.286773  
     286A      0.288472   287A      0.292295   288A      0.292529  
     289A      0.299967   290A      0.299972   291A      0.300308  
     292A      0.302106   293A      0.303149   294A      0.303907  
     295A      0.313126   296A      0.313328   297A      0.314016  
     298A      0.314269   299A      0.315174   300A      0.315206  
     301A      0.321332   302A      0.321934   303A      0.327825  
     304A      0.327888   305A      0.331180   306A      0.331213  
     307A      0.334526   308A      0.334794   309A      0.335020  
     310A      0.337240   311A      0.337859   312A      0.340704  
     313A      0.349251   314A      0.350515   315A      0.350848  
     316A      0.351792   317A      0.357279   318A      0.357500  
     319A      0.360231   320A      0.360378   321A      0.360501  
     322A      0.363432   323A      0.364618   324A      0.364832  
     325A      0.366236   326A      0.367936   327A      0.368914  
     328A      0.369000   329A      0.373492   330A      0.373582  
     331A      0.373651   332A      0.378128   333A      0.378178  
     334A      0.378794   335A      0.379373   336A      0.382949  
     337A      0.383818   338A      0.385998   339A      0.389388  
     340A      0.390134   341A      0.390291   342A      0.394414  
     343A      0.394447   344A      0.398022   345A      0.400583  
     346A      0.402270   347A      0.404087   348A      0.405841  
     349A      0.406451   350A      0.408455   351A      0.410119  
     352A      0.410231   353A      0.410596   354A      0.412535  
     355A      0.418812   356A      0.420584   357A      0.424753  
     358A      0.424825   359A      0.425581   360A      0.426573  
     361A      0.430802   362A      0.431214   363A      0.432473  
     364A      0.436548   365A      0.437792   366A      0.441773  
     367A      0.444882   368A      0.446959   369A      0.447534  
     370A      0.447838   371A      0.449398   372A      0.450648  
     373A      0.453323   374A      0.453355   375A      0.453477  
     376A      0.456201   377A      0.456525   378A      0.457284  
     379A      0.457414   380A      0.459338   381A      0.462061  
     382A      0.462101   383A      0.463121   384A      0.465981  
     385A      0.469339   386A      0.470293   387A      0.471912  
     388A      0.471941   389A      0.472489   390A      0.472663  
     391A      0.474644   392A      0.474706   393A      0.475776  
     394A      0.476376   395A      0.481794   396A      0.482381  
     397A      0.483534   398A      0.484118   399A      0.485270  
     400A      0.485873   401A      0.488622   402A      0.490333  
     403A      0.498737   404A      0.499658   405A      0.499792  
     406A      0.499906   407A      0.500639   408A      0.501032  
     409A      0.505083   410A      0.506302   411A      0.506742  
     412A      0.509427   413A      0.509569   414A      0.512235  
     415A      0.512248   416A      0.517032   417A      0.522907  
     418A      0.523103   419A      0.523401   420A      0.528757  
     421A      0.529152   422A      0.529534   423A      0.530864  
     424A      0.532080   425A      0.534615   426A      0.537420  
     427A      0.541369   428A      0.541716   429A      0.541867  
     430A      0.543932   431A      0.545437   432A      0.548833  
     433A      0.548897   434A      0.549726   435A      0.551399  
     436A      0.553183   437A      0.554333   438A      0.556617  
     439A      0.556869   440A      0.559542   441A      0.563313  
     442A      0.565909   443A      0.565984   444A      0.566206  
     445A      0.571292   446A      0.572212   447A      0.575345  
     448A      0.576678   449A      0.580655   450A      0.583037  
     451A      0.584735   452A      0.585948   453A      0.590874  
     454A      0.592180   455A      0.592550   456A      0.592700  
     457A      0.596784   458A      0.600725   459A      0.605821  
     460A      0.607382   461A      0.607408   462A      0.611258  
     463A      0.612227   464A      0.612418   465A      0.612882  
     466A      0.616708   467A      0.619522   468A      0.621347  
     469A      0.622197   470A      0.623529   471A      0.623744  
     472A      0.624126   473A      0.627655   474A      0.631546  
     475A      0.632861   476A      0.643747   477A      0.655797  
     478A      0.656689   479A      0.657097   480A      0.661120  
     481A      0.661459   482A      0.676165   483A      0.680040  
     484A      0.680180   485A      0.687925   486A      0.687985  
     487A      0.688683   488A      0.689316   489A      0.701994  
     490A      0.704661   491A      0.709116   492A      0.711976  
     493A      0.714237   494A      0.714801   495A      0.718370  
     496A      0.730817   497A      0.731246   498A      0.731325  
     499A      0.738860   500A      0.738908   501A      0.744001  
     502A      0.749800   503A      0.756081   504A      0.767643  
     505A      0.777553   506A      0.777657   507A      0.795452  
     508A      0.801437   509A      0.805023   510A      0.805417  
     511A      0.805573   512A      0.806029   513A      0.817886  
     514A      0.817936   515A      0.825168   516A      0.828241  
     517A      0.836102   518A      0.852078   519A      0.858795  
     520A      0.859273   521A      0.866447   522A      0.869526  
     523A      0.873515   524A      0.874384   525A      0.874845  
     526A      0.882736   527A      0.884323   528A      0.885204  
     529A      0.888244   530A      0.888406   531A      0.888510  
     532A      0.897006   533A      0.907087   534A      0.912458  
     535A      0.915732   536A      0.916500   537A      0.920720  
     538A      0.921647   539A      0.925951   540A      0.926132  
     541A      0.928905   542A      0.933172   543A      0.934434  
     544A      0.936735   545A      0.936803   546A      0.939629  
     547A      0.945076   548A      0.948288   549A      0.950075  
     550A      0.952286   551A      0.957804   552A      0.958292  
     553A      0.959735   554A      0.960850   555A      0.963978  
     556A      0.964650   557A      0.967938   558A      0.969056  
     559A      0.971179   560A      0.973375   561A      0.975827  
     562A      0.976550   563A      0.979807   564A      0.981492  
     565A      0.982311   566A      0.987074   567A      0.987745  
     568A      0.994438   569A      0.995278   570A      0.995971  
     571A      0.996792   572A      0.998511   573A      1.000537  
     574A      1.006287   575A      1.007228   576A      1.007294  
     577A      1.012971   578A      1.019452   579A      1.020488  
     580A      1.023999   581A      1.029072   582A      1.029261  
     583A      1.033193   584A      1.033572   585A      1.035122  
     586A      1.035712   587A      1.039097   588A      1.040018  
     589A      1.045034   590A      1.049760   591A      1.049829  
     592A      1.053019   593A      1.061231   594A      1.062120  
     595A      1.067243   596A      1.074596   597A      1.074899  
     598A      1.075955   599A      1.077723   600A      1.077859  
     601A      1.093567   602A      1.093927   603A      1.098431  
     604A      1.099034   605A      1.099464   606A      1.101151  
     607A      1.101846   608A      1.104805   609A      1.105277  
     610A      1.106924   611A      1.107372   612A      1.107569  
     613A      1.109509   614A      1.110994   615A      1.112582  
     616A      1.115230   617A      1.115646   618A      1.121404  
     619A      1.124691   620A      1.126881   621A      1.128000  
     622A      1.131453   623A      1.132586   624A      1.139238  
     625A      1.139976   626A      1.141018   627A      1.144116  
     628A      1.148937   629A      1.149709   630A      1.150467  
     631A      1.151512   632A      1.153467   633A      1.156009  
     634A      1.157187   635A      1.163562   636A      1.165573  
     637A      1.166242   638A      1.167558   639A      1.171377  
     640A      1.176969   641A      1.177013   642A      1.184345  
     643A      1.186967   644A      1.187406   645A      1.189583  
     646A      1.189709   647A      1.190373   648A      1.197168  
     649A      1.200316   650A      1.200631   651A      1.204175  
     652A      1.206060   653A      1.206151   654A      1.208388  
     655A      1.209207   656A      1.216291   657A      1.225527  
     658A      1.237568   659A      1.239982   660A      1.241514  
     661A      1.241895   662A      1.245305   663A      1.247879  
     664A      1.248397   665A      1.256551   666A      1.258320  
     667A      1.262295   668A      1.262499   669A      1.272179  
     670A      1.279173   671A      1.279573   672A      1.282697  
     673A      1.284181   674A      1.284243   675A      1.297488  
     676A      1.297829   677A      1.298309   678A      1.318608  
     679A      1.319631   680A      1.322641   681A      1.322901  
     682A      1.324611   683A      1.324749   684A      1.325757  
     685A      1.326174   686A      1.334653   687A      1.337444  
     688A      1.343231   689A      1.347539   690A      1.354308  
     691A      1.355060   692A      1.356912   693A      1.358549  
     694A      1.359526   695A      1.362994   696A      1.367479  
     697A      1.369106   698A      1.369997   699A      1.370146  
     700A      1.372867   701A      1.380350   702A      1.380665  
     703A      1.382589   704A      1.384765   705A      1.391942  
     706A      1.392069   707A      1.394871   708A      1.401645  
     709A      1.404420   710A      1.407091   711A      1.407357  
     712A      1.409171   713A      1.417475   714A      1.417546  
     715A      1.418219   716A      1.420950   717A      1.422923  
     718A      1.424427   719A      1.430348   720A      1.431801  
     721A      1.433418   722A      1.439867   723A      1.453220  
     724A      1.462646   725A      1.465571   726A      1.465732  
     727A      1.471288   728A      1.471389   729A      1.473290  
     730A      1.473523   731A      1.481919   732A      1.482844  
     733A      1.488685   734A      1.490001   735A      1.492785  
     736A      1.494178   737A      1.497434   738A      1.497501  
     739A      1.500968   740A      1.501108   741A      1.502070  
     742A      1.505546   743A      1.509770   744A      1.510804  
     745A      1.512133   746A      1.527816   747A      1.528496  
     748A      1.537323   749A      1.538726   750A      1.577844  
     751A      1.578208   752A      1.583838   753A      1.584058  
     754A      1.591147   755A      1.614942   756A      1.639114  
     757A      1.639869   758A      1.644843   759A      1.647354  
     760A      1.662563   761A      1.663333   762A      1.665722  
     763A      1.672265   764A      1.672398   765A      1.672849  
     766A      1.677887   767A      1.678150   768A      1.683072  
     769A      1.685272   770A      1.685971   771A      1.695490  
     772A      1.695742   773A      1.702167   774A      1.702583  
     775A      1.706483   776A      1.706796   777A      1.706919  
     778A      1.707320   779A      1.712759   780A      1.723045  
     781A      1.723107   782A      1.729321   783A      1.737921  
     784A      1.738032   785A      1.739799   786A      1.740166  
     787A      1.740300   788A      1.744618   789A      1.749191  
     790A      1.749285   791A      1.757669   792A      1.758996  
     793A      1.760592   794A      1.760650   795A      1.764084  
     796A      1.768437   797A      1.768540   798A      1.776971  
     799A      1.777091   800A      1.803743   801A      1.814205  
     802A      1.820632   803A      1.820677   804A      1.820736  
     805A      1.823330   806A      1.838476   807A      1.838479  
     808A      1.853180   809A      1.853255   810A      1.877359  
     811A      1.877498   812A      1.877660   813A      1.881094  
     814A      1.887601   815A      1.887675   816A      1.892706  
     817A      1.892834   818A      1.897846   819A      1.905098  
     820A      1.905737   821A      1.921400   822A      1.921424  
     823A      1.923135   824A      1.923897   825A      1.925211  
     826A      1.930552   827A      1.934164   828A      1.940047  
     829A      1.942736   830A      1.942813   831A      1.958301  
     832A      1.958422   833A      1.959653   834A      1.963146  
     835A      1.963234   836A      1.971024   837A      1.971238  
     838A      1.975184   839A      1.976189   840A      1.979765  
     841A      1.979886   842A      1.981409   843A      1.984064  
     844A      1.984165   845A      1.988582   846A      1.999839  
     847A      2.003214   848A      2.003366   849A      2.003696  
     850A      2.003749   851A      2.005799   852A      2.006075  
     853A      2.011656   854A      2.016480   855A      2.017040  
     856A      2.018391   857A      2.019919   858A      2.020015  
     859A      2.023055   860A      2.031703   861A      2.041919  
     862A      2.044242   863A      2.047440   864A      2.048595  
     865A      2.051223   866A      2.055120   867A      2.058819  
     868A      2.059714   869A      2.060284   870A      2.065289  
     871A      2.068491   872A      2.074002   873A      2.074396  
     874A      2.090447   875A      2.091001   876A      2.091976  
     877A      2.092413   878A      2.093094   879A      2.093195  
     880A      2.093208   881A      2.109959   882A      2.113541  
     883A      2.113788   884A      2.120125   885A      2.120888  
     886A      2.122030   887A      2.123842   888A      2.131184  
     889A      2.132591   890A      2.133768   891A      2.134533  
     892A      2.135706   893A      2.139390   894A      2.140269  
     895A      2.143554   896A      2.146219   897A      2.148568  
     898A      2.149239   899A      2.154627   900A      2.154816  
     901A      2.157486   902A      2.157831   903A      2.162220  
     904A      2.162267   905A      2.164231   906A      2.169517  
     907A      2.170029   908A      2.170447   909A      2.172430  
     910A      2.174173   911A      2.175048   912A      2.176548  
     913A      2.180743   914A      2.180976   915A      2.183477  
     916A      2.184481   917A      2.186762   918A      2.187904  
     919A      2.191710   920A      2.196198   921A      2.196869  
     922A      2.196892   923A      2.199956   924A      2.204293  
     925A      2.204419   926A      2.217655   927A      2.223119  
     928A      2.223825   929A      2.225083   930A      2.225140  
     931A      2.234589   932A      2.240078   933A      2.240321  
     934A      2.250656   935A      2.250919   936A      2.253643  
     937A      2.255007   938A      2.259839   939A      2.259857  
     940A      2.262319   941A      2.281350   942A      2.283477  
     943A      2.283560   944A      2.288717   945A      2.291750  
     946A      2.292043   947A      2.293692   948A      2.302678  
     949A      2.303012   950A      2.304383   951A      2.304816  
     952A      2.307282   953A      2.320229   954A      2.320358  
     955A      2.331461   956A      2.331522   957A      2.332642  
     958A      2.332772   959A      2.340541   960A      2.361012  
     961A      2.367687   962A      2.372973   963A      2.374703  
     964A      2.384522   965A      2.385116   966A      2.393832  
     967A      2.394790   968A      2.394828   969A      2.397117  
     970A      2.413252   971A      2.413832   972A      2.414337  
     973A      2.414683   974A      2.428955   975A      2.429179  
     976A      2.438616   977A      2.441594   978A      2.476603  
     979A      2.485915   980A      2.486098   981A      2.486141  
     982A      2.497347   983A      2.503567   984A      2.503735  
     985A      2.532120   986A      2.534149   987A      2.534496  
     988A      2.546788   989A      2.547041   990A      2.564039  
     991A      2.580218   992A      2.591494   993A      2.592109  
     994A      2.604483   995A      2.606514   996A      2.606699  
     997A      2.614256   998A      2.614298   999A      2.618035  
    1000A      2.621440  1001A      2.621462  1002A      2.634611  
    1003A      2.634903  1004A      2.634948  1005A      2.635160  
    1006A      2.647276  1007A      2.647443  1008A      2.649561  
    1009A      2.651063  1010A      2.651444  1011A      2.667272  
    1012A      2.684253  1013A      2.684430  1014A      2.687448  
    1015A      2.693774  1016A      2.694391  1017A      2.701819  
    1018A      2.701922  1019A      2.711208  1020A      2.711536  
    1021A      2.717804  1022A      2.744483  1023A      2.745090  
    1024A      2.745824  1025A      2.746649  1026A      2.765642  
    1027A      2.765946  1028A      2.775529  1029A      2.775630  
    1030A      2.780925  1031A      2.781007  1032A      2.784772  
    1033A      2.785016  1034A      2.800798  1035A      2.813257  
    1036A      2.813787  1037A      2.840099  1038A      2.857338  
    1039A      2.857406  1040A      2.878209  1041A      2.889431  
    1042A      2.890019  1043A      2.913218  1044A      2.914209  
    1045A      2.919782  1046A      2.921922  1047A      2.922213  
    1048A      2.922269  1049A      2.928691  1050A      2.957057  
    1051A      2.968895  1052A      2.971318  1053A      2.977567  
    1054A      2.978169  1055A      2.987715  1056A      2.994374  
    1057A      2.994622  1058A      3.010924  1059A      3.011330  
    1060A      3.023980  1061A      3.070141  1062A      3.070646  
    1063A      3.071752  1064A      3.089867  1065A      3.127135  
    1066A      3.127262  1067A      3.132710  1068A      3.133087  
    1069A      3.170507  1070A      3.171184  1071A      3.188640  
    1072A      3.190899  1073A      3.191287  1074A      3.198490  
    1075A      3.207550  1076A      3.207738  1077A      3.208142  
    1078A      3.209909  1079A      3.210064  1080A      3.218888  
    1081A      3.219559  1082A      3.227038  1083A      3.227443  
    1084A      3.252027  1085A      3.271370  1086A      3.277444  
    1087A      3.281249  1088A      3.298855  1089A      3.336701  
    1090A      3.338855  1091A      3.338980  1092A      3.343901  
    1093A      3.344490  1094A      3.479351  1095A      3.479739  
    1096A      3.509955  1097A      3.544936  1098A      3.547613  
    1099A      3.613248  1100A      3.641150  1101A      3.642994  
    1102A      3.657426  1103A      3.688599  1104A      3.690689  
    1105A      3.725057  1106A      3.731055  1107A      3.831707  
    1108A      3.846097  1109A      3.846988  1110A      3.931936  
    1111A      3.931979  1112A      3.974812  1113A      3.975056  
    1114A      4.039876  1115A      4.073939  1116A      4.098253  
    1117A      4.110614  1118A      4.146971  1119A      4.175088  
    1120A      4.175234  1121A      4.175503  1122A      4.203108  
    1123A      4.203178  1124A      4.203370  1125A      4.203443  
    1126A      4.204368  1127A      4.236194  1128A      4.238150  
    1129A      4.239403  1130A      4.450226  1131A      4.450328  
    1132A      4.450796  1133A      4.651402  1134A      4.651705  
    1135A      4.654345  1136A      4.752009  1137A      4.787167  
    1138A      4.789138  

    Final Occupation by Irrep:
              A 
    DOCC [   192 ]
    NA   [   192 ]
    NB   [   192 ]

  @DF-RHF Final Energy: -2478.65796836746085

   => Energetics <=

    Nuclear Repulsion Energy =           7571.6054194224689127
    One-Electron Energy =              -18495.9021556847837928
    Two-Electron Energy =                8445.6387678948540270
    Total Energy =                      -2478.6579683674608532

Computation Completed


Properties will be evaluated at   0.000000,   0.000000,   0.000000 [a0]

Properties computed using the SCF density matrix


 Multipole Moments:

 ------------------------------------------------------------------------------------
     Multipole            Electronic (a.u.)      Nuclear  (a.u.)        Total (a.u.)
 ------------------------------------------------------------------------------------

 L = 1.  Multiply by 2.5417464519 to convert [e a0] to [Debye]
 Dipole X            :         -0.0001908           -0.0000160           -0.0002069
 Dipole Y            :          0.0012517           -0.0001716            0.0010801
 Dipole Z            :         29.3808372          -39.2339600           -9.8531228
 Magnitude           :                                                    9.8531229

 ------------------------------------------------------------------------------------

*** tstop() called on d-18-8-4 at Mon Jan 22 12:06:32 2024
Module time:
	user time   =    3034.43 seconds =      50.57 minutes
	system time =      47.38 seconds =       0.79 minutes
	total time  =        316 seconds =       5.27 minutes
Total time:
	user time   =    3034.43 seconds =      50.57 minutes
	system time =      47.38 seconds =       0.79 minutes
	total time  =        316 seconds =       5.27 minutes

  //>>>>>>>>>>>>>>>>>>>>>>>>>>>>>>>>>>>//
  //            Monomer A HF           //
  //<<<<<<<<<<<<<<<<<<<<<<<<<<<<<<<<<<<//

   => Libint2 <=

    Primary   basis highest AM E, G, H:  7, 7, 4
    Auxiliary basis highest AM E, G, H:  7, 7, 5
    Onebody   basis highest AM E, G, H:  7, 7, 5
    Solid Harmonics ordering:            gaussian

*** tstart() called on d-18-8-4
*** at Mon Jan 22 12:06:32 2024

   => Loading Basis Set <=

    Name: JUN-CC-PVDZ
    Role: ORBITAL
    Keyword: BASIS
    atoms 1     entry B          line   130 file /home/gridsan/tfroembgen/.conda/envs/psi4test/share/psi4/basis/jun-cc-pvdz.gbs 
    atoms 2-5   entry F          line   266 file /home/gridsan/tfroembgen/.conda/envs/psi4test/share/psi4/basis/jun-cc-pvdz.gbs 
    atoms 6-59  entry C          line   164 file /home/gridsan/tfroembgen/.conda/envs/psi4test/share/psi4/basis/jun-cc-pvdz.gbs 
    atoms 60-77 entry H          line    36 file /home/gridsan/tfroembgen/.conda/envs/psi4test/share/psi4/basis/jun-cc-pvdz.gbs 


         ---------------------------------------------------------
                                   SCF
               by Justin Turney, Rob Parrish, Andy Simmonett
                          and Daniel G. A. Smith
                              RHF Reference
                       12 Threads,  30517 MiB Core
         ---------------------------------------------------------

  ==> Geometry <==

    Molecular point group: c1
    Full point group: C1

    Geometry (in Angstrom), charge = -1, multiplicity = 1:

       Center              X                  Y                   Z               Mass       
    ------------   -----------------  -----------------  -----------------  -----------------
         B           -0.000046449334     0.000336519434     5.660670391763    11.009305360000
         F           -1.153597449334     0.000047519434     6.476317391763    18.998403162730
         F            1.153660550666    -0.000581480566     6.476317391763    18.998403162730
         F           -0.000019449334    -1.153637480566     4.845036391763    18.998403162730
         F           -0.000019449334     1.153977519434     4.845036391763    18.998403162730
      Gh(C)           1.225311925931     0.707538180353    -0.733185980953    12.000000000000
      Gh(C)           1.225323886559    -0.707539003137    -0.745516790523    12.000000000000
      Gh(C)          -0.000006123424     1.414965805524    -0.746050414044    12.000000000000
      Gh(C)           2.456448784457     1.418327778612    -0.730299123553    12.000000000000
      Gh(C)           0.000010857787    -1.414976607201    -0.735850856719    12.000000000000
      Gh(C)          -1.225300918401     0.707545265418    -0.730934460630    12.000000000000
      Gh(C)           2.456437785828    -1.418323412447    -0.747761947380    12.000000000000
      Gh(C)          -0.000001302470     2.836800922715    -0.748453964178    12.000000000000
      Gh(C)           3.681826727978     0.709317847435    -0.747413157582    12.000000000000
      Gh(C)           2.455120079373     2.834223552923    -0.747515714543    12.000000000000
      Gh(C)           3.681821135726    -0.709333947995    -0.731340673564    12.000000000000
      Gh(C)          -1.225313568180    -0.707527624110    -0.744444029096    12.000000000000
      Gh(C)           1.226699611710     3.543469375428    -0.731156641633    12.000000000000
      Gh(C)           0.000004815365    -2.836782247802    -0.731002689098    12.000000000000
      Gh(C)          -2.456436002341     1.418316809719    -0.730899064785    12.000000000000
      Gh(C)           2.455123448287    -2.834230137155    -0.731492581931    12.000000000000
      Gh(C)          -1.226714334082     3.543468955184    -0.731053308414    12.000000000000
      Gh(C)           4.914517325709     1.427172763923    -0.740932474553    12.000000000000
      Gh(C)           3.693150221984     3.542795183979    -0.740882674916    12.000000000000
      Gh(C)          -2.456437569560    -1.418313389406    -0.747786985505    12.000000000000
      Gh(C)           1.226704872451    -3.543474350473    -0.747126772383    12.000000000000
      Gh(C)          -2.455125368000     2.834216554068    -0.747509338197    12.000000000000
      Gh(C)           4.914524411290    -1.427187018510    -0.737959731818    12.000000000000
      Gh(C)           1.221424644206     4.970133956694    -0.737821297558    12.000000000000
      Gh(C)           4.893008259828     2.825187891460    -0.739715806194    12.000000000000
      Gh(C)          -1.226696977981    -3.543471105643    -0.746859567973    12.000000000000
      Gh(C)          -3.681818946018     0.709324858166    -0.747400477102    12.000000000000
      Gh(C)           3.693147131658    -3.542801449957    -0.737841841257    12.000000000000
      Gh(C)          -1.221432221486     4.970128189296    -0.737637802186    12.000000000000
      Gh(C)           6.134771003434     0.680547838539    -0.740162700003    12.000000000000
      Gh(C)           3.656788911118     4.972953135001    -0.739974037134    12.000000000000
      Gh(C)          -2.455126877226    -2.834215201627    -0.731736939729    12.000000000000
      Gh(C)          -3.681819148553    -0.709325812035    -0.731223051985    12.000000000000
      Gh(C)           4.893012648421    -2.825200214198    -0.739104654299    12.000000000000
      Gh(C)          -0.000001042605     5.650447257466    -0.738869110893    12.000000000000
      Gh(C)           6.134775142840    -0.680554962641    -0.738897379487    12.000000000000
      Gh(C)           2.478131513363     5.653576642765    -0.738685257484    12.000000000000
      Gh(C)           1.221422435245    -4.970127163499    -0.740620794581    12.000000000000
      Gh(C)          -3.693162353457     3.542796845626    -0.740717167457    12.000000000000
      Gh(C)          -1.221428490437    -4.970118412162    -0.740733556414    12.000000000000
      Gh(C)          -4.914521777434     1.427175338429    -0.740855529545    12.000000000000
      Gh(C)           3.656787050187    -4.972955334806    -0.738523536600    12.000000000000
      Gh(C)          -2.478138499598     5.653574313962    -0.738400732475    12.000000000000
      Gh(C)          -3.693141708056    -3.542790327545    -0.737957967413    12.000000000000
      Gh(C)          -4.914512452545    -1.427181108594    -0.737925034644    12.000000000000
      Gh(C)          -0.000005978418    -5.650438395580    -0.739264615014    12.000000000000
      Gh(C)          -4.893020453593     2.825188490353    -0.739725888054    12.000000000000
      Gh(C)           2.478126023806    -5.653573652455    -0.739614137392    12.000000000000
      Gh(C)          -3.656798679750     4.972956073475    -0.739797356759    12.000000000000
      Gh(C)          -4.892999448349    -2.825191875626    -0.739258689996    12.000000000000
      Gh(C)          -2.478128467575    -5.653566278573    -0.739889325039    12.000000000000
      Gh(C)          -6.134770472823     0.680548657690    -0.740188251705    12.000000000000
      Gh(C)          -3.656788802681    -4.972944131537    -0.738737824416    12.000000000000
      Gh(C)          -6.134765012405    -0.680554024048    -0.738917855282    12.000000000000
      Gh(H)           5.835288526324     3.369275786388    -0.735356480531     1.007825032230
      Gh(H)           7.073859203255     1.228217140333    -0.739701056610     1.007825032230
      Gh(H)           4.600663294682     5.512380693887    -0.739468836382     1.007825032230
      Gh(H)           5.835283417813    -3.369306165295    -0.743559121613     1.007825032230
      Gh(H)          -0.000012120798     6.738530565570    -0.743218355900     1.007825032230
      Gh(H)           7.073861202338    -1.228227051310    -0.739406117581     1.007825032230
      Gh(H)           2.473313762307     6.740684182828    -0.739151978414     1.007825032230
      Gh(H)           4.600668521889    -5.512376237742    -0.738933533768     1.007825032230
      Gh(H)          -2.473318650030     6.740681611040    -0.738850631789     1.007825032230
      Gh(H)          -0.000010237720    -6.738528285018    -0.734734930029     1.007825032230
      Gh(H)          -5.835301883836     3.369270841730    -0.735220458383     1.007825032230
      Gh(H)           2.473307954339    -6.740685482995    -0.739043806967     1.007825032230
      Gh(H)          -4.600674810700     5.512377918037    -0.739303508058     1.007825032230
      Gh(H)          -5.835279476327    -3.369289072346    -0.743838427494     1.007825032230
      Gh(H)          -2.473300316932    -6.740679186706    -0.739493123512     1.007825032230
      Gh(H)          -7.073857736260     1.228220364274    -0.739785048090     1.007825032230
      Gh(H)          -4.600673755577    -5.512362778353    -0.739105841791     1.007825032230
      Gh(H)          -7.073856903901    -1.228220740543    -0.739500974048     1.007825032230

  Running in c1 symmetry.

  Rotational constants: A =      0.00155  B =      0.00155  C =      0.00110 [cm^-1]
  Rotational constants: A =     46.56162  B =     46.55644  C =     33.02250 [MHz]
  Nuclear repulsion =  178.879482610381245

  Charge       = -1
  Multiplicity = 1
  Electrons    = 42
  Nalpha       = 21
  Nbeta        = 21

  ==> Algorithm <==

  SCF Algorithm Type is DF.
  DIIS enabled.
  MOM disabled.
  Fractional occupation disabled.
  Guess Type is SAD.
  Energy threshold   = 1.00e-08
  Density threshold  = 1.00e-08
  Integral threshold = 1.00e-12

  ==> Primary Basis <==

  Basis Set: JUN-CC-PVDZ
    Blend: JUN-CC-PVDZ
    Number of shells: 526
    Number of basis functions: 1152
    Number of Cartesian functions: 1211
    Spherical Harmonics?: true
    Max angular momentum: 2

   => Loading Basis Set <=

    Name: (JUN-CC-PVDZ AUX)
    Role: JKFIT
    Keyword: DF_BASIS_SCF
    atoms 1     entry B          line    90 file /home/gridsan/tfroembgen/.conda/envs/psi4test/share/psi4/basis/jun-cc-pvdz-jkfit.gbs 
    atoms 2-5   entry F          line   314 file /home/gridsan/tfroembgen/.conda/envs/psi4test/share/psi4/basis/jun-cc-pvdz-jkfit.gbs 
    atoms 6-59  entry C          line   146 file /home/gridsan/tfroembgen/.conda/envs/psi4test/share/psi4/basis/jun-cc-pvdz-jkfit.gbs 
    atoms 60-77 entry H          line    70 file /home/gridsan/tfroembgen/.conda/envs/psi4test/share/psi4/basis/jun-cc-pvdz-jkfit.gbs 

  ==> Integral Setup <==

  ==> DiskDFJK: Density-Fitted J/K Matrices <==

    J tasked:                  Yes
    K tasked:                  Yes
    wK tasked:                  No
    OpenMP threads:             12
    Integrals threads:          12
    Memory [MiB]:            22888
    Algorithm:                Core
    Integral Cache:           LOAD
    Schwarz Cutoff:          1E-12
    Fitting Condition:       1E-10

   => Auxiliary Basis Set <=

  Basis Set: (JUN-CC-PVDZ AUX)
    Blend: JUN-CC-PVDZ-JKFIT
    Number of shells: 1755
    Number of basis functions: 5075
    Number of Cartesian functions: 5819
    Spherical Harmonics?: true
    Max angular momentum: 3

  Minimum eigenvalue in the overlap matrix is 8.3832485910E-10.
  Reciprocal condition number of the overlap matrix is 3.7400884613E-11.
    Using canonical orthogonalization.
  Overall, 14 of 1152 possible MOs eliminated.


  ==> Pre-Iterations <==

  SCF Guess: Superposition of Atomic Densities via on-the-fly atomic UHF (no occupation information).

   -------------------------
    Irrep   Nso     Nmo    
   -------------------------
     A       1152    1138 
   -------------------------
    Total    1152    1138
   -------------------------

  ==> Iterations <==

                           Total Energy        Delta E     RMS |[F,P]|

   @DF-RHF iter SAD:  -421.23044470986724   -4.21230e+02   0.00000e+00 
   @DF-RHF iter   1:  -422.64980149470256   -1.41936e+00   5.29877e-04 ADIIS/DIIS
   @DF-RHF iter   2:  -422.73259476834909   -8.27933e-02   3.22986e-04 ADIIS/DIIS
   @DF-RHF iter   3:  -422.77116825439259   -3.85735e-02   1.73895e-05 DIIS
   @DF-RHF iter   4:  -422.77152874473836   -3.60490e-04   2.75248e-06 DIIS
   @DF-RHF iter   5:  -422.77153738797210   -8.64323e-06   7.02481e-07 DIIS
   @DF-RHF iter   6:  -422.77153794668982   -5.58718e-07   1.44825e-07 DIIS
   @DF-RHF iter   7:  -422.77153796768761   -2.09978e-08   1.48361e-08 DIIS
   @DF-RHF iter   8:  -422.77153796790287   -2.15266e-10   5.43221e-09 DIIS
  Energy and wave function converged.


  ==> Post-Iterations <==

    Orbital Energies [Eh]
    ---------------------

    Doubly Occupied:                                                      

       1A    -26.067088     2A    -26.067026     3A    -26.066991  
       4A    -26.066906     5A     -7.539271     6A     -1.410947  
       7A     -1.351240     8A     -1.351187     9A     -1.351053  
      10A     -0.602227    11A     -0.528434    12A     -0.528402  
      13A     -0.528346    14A     -0.447290    15A     -0.447247  
      16A     -0.408459    17A     -0.408418    18A     -0.408364  
      19A     -0.384980    20A     -0.384930    21A     -0.384892  

    Virtual:                                                              

      22A      0.080346    23A      0.081954    24A      0.082142  
      25A      0.089967    26A      0.089970    27A      0.101756  
      28A      0.102654    29A      0.104261    30A      0.118669  
      31A      0.118678    32A      0.120323    33A      0.120423  
      34A      0.130226    35A      0.135650    36A      0.136204  
      37A      0.137161    38A      0.137277    39A      0.137827  
      40A      0.137858    41A      0.145948    42A      0.148986  
      43A      0.148988    44A      0.157740    45A      0.158578  
      46A      0.159143    47A      0.163115    48A      0.167833  
      49A      0.169448    50A      0.170886    51A      0.171166  
      52A      0.171586    53A      0.178129    54A      0.178159  
      55A      0.180269    56A      0.180274    57A      0.185216  
      58A      0.185720    59A      0.188073    60A      0.188219  
      61A      0.190191    62A      0.191365    63A      0.191396  
      64A      0.194155    65A      0.194852    66A      0.195041  
      67A      0.201279    68A      0.201298    69A      0.205710  
      70A      0.205784    71A      0.208805    72A      0.210092  
      73A      0.211366    74A      0.211446    75A      0.214579  
      76A      0.214590    77A      0.215770    78A      0.217669  
      79A      0.217853    80A      0.218576    81A      0.224277  
      82A      0.224368    83A      0.227137    84A      0.232028  
      85A      0.236768    86A      0.236797    87A      0.236894  
      88A      0.237247    89A      0.239889    90A      0.241522  
      91A      0.241914    92A      0.250003    93A      0.250526  
      94A      0.250868    95A      0.252281    96A      0.252397  
      97A      0.254780    98A      0.255021    99A      0.261380  
     100A      0.261391   101A      0.264476   102A      0.264622  
     103A      0.267668   104A      0.268189   105A      0.269973  
     106A      0.270595   107A      0.271394   108A      0.275960  
     109A      0.276111   110A      0.280941   111A      0.281000  
     112A      0.281212   113A      0.286857   114A      0.287465  
     115A      0.288120   116A      0.290193   117A      0.293387  
     118A      0.293434   119A      0.294437   120A      0.294568  
     121A      0.298995   122A      0.305202   123A      0.305670  
     124A      0.310364   125A      0.310377   126A      0.312450  
     127A      0.314060   128A      0.314210   129A      0.319583  
     130A      0.320134   131A      0.321353   132A      0.321445  
     133A      0.322430   134A      0.324144   135A      0.328203  
     136A      0.335633   137A      0.335653   138A      0.339633  
     139A      0.339883   140A      0.341059   141A      0.341091  
     142A      0.344421   143A      0.344518   144A      0.344749  
     145A      0.345100   146A      0.345136   147A      0.352566  
     148A      0.353994   149A      0.357134   150A      0.361597  
     151A      0.362252   152A      0.363496   153A      0.367441  
     154A      0.367572   155A      0.374588   156A      0.382578  
     157A      0.382593   158A      0.382981   159A      0.383214  
     160A      0.383605   161A      0.388695   162A      0.389064  
     163A      0.389305   164A      0.391979   165A      0.393055  
     166A      0.393158   167A      0.395059   168A      0.400127  
     169A      0.400341   170A      0.403508   171A      0.404220  
     172A      0.404965   173A      0.408260   174A      0.416991  
     175A      0.418085   176A      0.419609   177A      0.420153  
     178A      0.421689   179A      0.424457   180A      0.427503  
     181A      0.428788   182A      0.428840   183A      0.428844  
     184A      0.429076   185A      0.433873   186A      0.434617  
     187A      0.435538   188A      0.436346   189A      0.437145  
     190A      0.443638   191A      0.444079   192A      0.444934  
     193A      0.445785   194A      0.447430   195A      0.451018  
     196A      0.452791   197A      0.453215   198A      0.455993  
     199A      0.460701   200A      0.462369   201A      0.465407  
     202A      0.465497   203A      0.465717   204A      0.472190  
     205A      0.475221   206A      0.477351   207A      0.478754  
     208A      0.479567   209A      0.479664   210A      0.482329  
     211A      0.486550   212A      0.490050   213A      0.493572  
     214A      0.493711   215A      0.494052   216A      0.494256  
     217A      0.499942   218A      0.500929   219A      0.501468  
     220A      0.501771   221A      0.504116   222A      0.504518  
     223A      0.504827   224A      0.508116   225A      0.508432  
     226A      0.508973   227A      0.509060   228A      0.510820  
     229A      0.514755   230A      0.515485   231A      0.518131  
     232A      0.520969   233A      0.521535   234A      0.522115  
     235A      0.526238   236A      0.530089   237A      0.530729  
     238A      0.533782   239A      0.536032   240A      0.537511  
     241A      0.541420   242A      0.543277   243A      0.545039  
     244A      0.545412   245A      0.546707   246A      0.548715  
     247A      0.551322   248A      0.551333   249A      0.554838  
     250A      0.558987   251A      0.559806   252A      0.561045  
     253A      0.563099   254A      0.563858   255A      0.565903  
     256A      0.566907   257A      0.568406   258A      0.571324  
     259A      0.571980   260A      0.579785   261A      0.582244  
     262A      0.584572   263A      0.588987   264A      0.589637  
     265A      0.590261   266A      0.592375   267A      0.592712  
     268A      0.593600   269A      0.595180   270A      0.596202  
     271A      0.597220   272A      0.606663   273A      0.607859  
     274A      0.612092   275A      0.613476   276A      0.613545  
     277A      0.613804   278A      0.619543   279A      0.622176  
     280A      0.623490   281A      0.630719   282A      0.631320  
     283A      0.632778   284A      0.633419   285A      0.636273  
     286A      0.637570   287A      0.639134   288A      0.641697  
     289A      0.643799   290A      0.645683   291A      0.646863  
     292A      0.651501   293A      0.653373   294A      0.657394  
     295A      0.659903   296A      0.660988   297A      0.662007  
     298A      0.673430   299A      0.673644   300A      0.675034  
     301A      0.675280   302A      0.675904   303A      0.676600  
     304A      0.677591   305A      0.678735   306A      0.682759  
     307A      0.682834   308A      0.694148   309A      0.696210  
     310A      0.697486   311A      0.703309   312A      0.705444  
     313A      0.707843   314A      0.708183   315A      0.708452  
     316A      0.709003   317A      0.709365   318A      0.712526  
     319A      0.718029   320A      0.719269   321A      0.722649  
     322A      0.725280   323A      0.731464   324A      0.732600  
     325A      0.736974   326A      0.742140   327A      0.742180  
     328A      0.743053   329A      0.744900   330A      0.745404  
     331A      0.751599   332A      0.756359   333A      0.758069  
     334A      0.760646   335A      0.762310   336A      0.762898  
     337A      0.764724   338A      0.772474   339A      0.774289  
     340A      0.777048   341A      0.780219   342A      0.780412  
     343A      0.783767   344A      0.784004   345A      0.788477  
     346A      0.790946   347A      0.792580   348A      0.793026  
     349A      0.796973   350A      0.800704   351A      0.801632  
     352A      0.805901   353A      0.808187   354A      0.808422  
     355A      0.822573   356A      0.822660   357A      0.823248  
     358A      0.830658   359A      0.834798   360A      0.834844  
     361A      0.836017   362A      0.838174   363A      0.838489  
     364A      0.841193   365A      0.844234   366A      0.844811  
     367A      0.846177   368A      0.849638   369A      0.849918  
     370A      0.854315   371A      0.858873   372A      0.859743  
     373A      0.860234   374A      0.860873   375A      0.864863  
     376A      0.864929   377A      0.867177   378A      0.867374  
     379A      0.869277   380A      0.872305   381A      0.880139  
     382A      0.899479   383A      0.899544   384A      0.911821  
     385A      0.911879   386A      0.932085   387A      0.936669  
     388A      0.938554   389A      0.940127   390A      0.941046  
     391A      0.945162   392A      0.945678   393A      0.945711  
     394A      0.948738   395A      0.954670   396A      0.955944  
     397A      0.962107   398A      0.962177   399A      0.964125  
     400A      0.967294   401A      0.997660   402A      0.998089  
     403A      0.998171   404A      1.013308   405A      1.022142  
     406A      1.022186   407A      1.032651   408A      1.032673  
     409A      1.040592   410A      1.047517   411A      1.055913  
     412A      1.055967   413A      1.073170   414A      1.076049  
     415A      1.099233   416A      1.099400   417A      1.119276  
     418A      1.119445   419A      1.124583   420A      1.126334  
     421A      1.126348   422A      1.136472   423A      1.136505  
     424A      1.161023   425A      1.163508   426A      1.163612  
     427A      1.171267   428A      1.224083   429A      1.224204  
     430A      1.228188   431A      1.228351   432A      1.232620  
     433A      1.242448   434A      1.244609   435A      1.244721  
     436A      1.263538   437A      1.263617   438A      1.281713  
     439A      1.285886   440A      1.285946   441A      1.291807  
     442A      1.299727   443A      1.345656   444A      1.346373  
     445A      1.357346   446A      1.364326   447A      1.364366  
     448A      1.371780   449A      1.372923   450A      1.372987  
     451A      1.386699   452A      1.386793   453A      1.395907  
     454A      1.398260   455A      1.400372   456A      1.427153  
     457A      1.438793   458A      1.438839   459A      1.485663  
     460A      1.513685   461A      1.514104   462A      1.531551  
     463A      1.531595   464A      1.537238   465A      1.538402  
     466A      1.538543   467A      1.541521   468A      1.551635  
     469A      1.552641   470A      1.616026   471A      1.624257  
     472A      1.624381   473A      1.627842   474A      1.628971  
     475A      1.635307   476A      1.639283   477A      1.639733  
     478A      1.644161   479A      1.695164   480A      1.706233  
     481A      1.708507   482A      1.719681   483A      1.722173  
     484A      1.729720   485A      1.736644   486A      1.737008  
     487A      1.754788   488A      1.755298   489A      1.757080  
     490A      1.757735   491A      1.771099   492A      1.809397  
     493A      1.810828   494A      1.810966   495A      1.811828  
     496A      1.813017   497A      1.819040   498A      1.822984  
     499A      1.823727   500A      1.828105   501A      1.837907  
     502A      1.841358   503A      1.845875   504A      1.856955  
     505A      1.857688   506A      1.862272   507A      1.863808  
     508A      1.871225   509A      1.881780   510A      1.893003  
     511A      1.893662   512A      1.895369   513A      1.895747  
     514A      1.895849   515A      1.896499   516A      1.898278  
     517A      1.899519   518A      1.901571   519A      1.904564  
     520A      1.907963   521A      1.910430   522A      1.915634  
     523A      1.917460   524A      1.925751   525A      1.926255  
     526A      1.936437   527A      1.941356   528A      1.941749  
     529A      1.946426   530A      1.949894   531A      1.950442  
     532A      1.955246   533A      1.956141   534A      1.957229  
     535A      1.960735   536A      1.973616   537A      1.974663  
     538A      1.974960   539A      1.975347   540A      1.977359  
     541A      1.977563   542A      1.981326   543A      1.986479  
     544A      1.986893   545A      1.993016   546A      1.994576  
     547A      1.995392   548A      1.999664   549A      2.001566  
     550A      2.004427   551A      2.006903   552A      2.010384  
     553A      2.015034   554A      2.015466   555A      2.021404  
     556A      2.026062   557A      2.036057   558A      2.036739  
     559A      2.039004   560A      2.039095   561A      2.042749  
     562A      2.045003   563A      2.048075   564A      2.050727  
     565A      2.054942   566A      2.054976   567A      2.060245  
     568A      2.062735   569A      2.064905   570A      2.065678  
     571A      2.068646   572A      2.069103   573A      2.069424  
     574A      2.074190   575A      2.088383   576A      2.089880  
     577A      2.096941   578A      2.097564   579A      2.127929  
     580A      2.135198   581A      2.135300   582A      2.139526  
     583A      2.143153   584A      2.145597   585A      2.146483  
     586A      2.150499   587A      2.150644   588A      2.152885  
     589A      2.161236   590A      2.161511   591A      2.163874  
     592A      2.165442   593A      2.169004   594A      2.182226  
     595A      2.182603   596A      2.187012   597A      2.188133  
     598A      2.190391   599A      2.196095   600A      2.196370  
     601A      2.206006   602A      2.206349   603A      2.207331  
     604A      2.207353   605A      2.207848   606A      2.214901  
     607A      2.215136   608A      2.215500   609A      2.216146  
     610A      2.216748   611A      2.217335   612A      2.218008  
     613A      2.221859   614A      2.222077   615A      2.226988  
     616A      2.227737   617A      2.229009   618A      2.231159  
     619A      2.231372   620A      2.235203   621A      2.236678  
     622A      2.237839   623A      2.238377   624A      2.240740  
     625A      2.242985   626A      2.243297   627A      2.244459  
     628A      2.245454   629A      2.245770   630A      2.246004  
     631A      2.249067   632A      2.250535   633A      2.251792  
     634A      2.251940   635A      2.255563   636A      2.257109  
     637A      2.261478   638A      2.262177   639A      2.262268  
     640A      2.266045   641A      2.266643   642A      2.284928  
     643A      2.285183   644A      2.305142   645A      2.305284  
     646A      2.310624   647A      2.310766   648A      2.315464  
     649A      2.315867   650A      2.318588   651A      2.318609  
     652A      2.319953   653A      2.335051   654A      2.335807  
     655A      2.336369   656A      2.341219   657A      2.341392  
     658A      2.342441   659A      2.353017   660A      2.353169  
     661A      2.359213   662A      2.359599   663A      2.364602  
     664A      2.376564   665A      2.376844   666A      2.384254  
     667A      2.395364   668A      2.395453   669A      2.396181  
     670A      2.396514   671A      2.400768   672A      2.407422  
     673A      2.412373   674A      2.412491   675A      2.414475  
     676A      2.426268   677A      2.427529   678A      2.434390  
     679A      2.434970   680A      2.435824   681A      2.437958  
     682A      2.437973   683A      2.438572   684A      2.439509  
     685A      2.442083   686A      2.446752   687A      2.446830  
     688A      2.446952   689A      2.452432   690A      2.456512  
     691A      2.458185   692A      2.461094   693A      2.464315  
     694A      2.477297   695A      2.477388   696A      2.480872  
     697A      2.484131   698A      2.489191   699A      2.489393  
     700A      2.490067   701A      2.491169   702A      2.493448  
     703A      2.498430   704A      2.510049   705A      2.512165  
     706A      2.514949   707A      2.515247   708A      2.515433  
     709A      2.523138   710A      2.523237   711A      2.533403  
     712A      2.535460   713A      2.535929   714A      2.538459  
     715A      2.538783   716A      2.543183   717A      2.553277  
     718A      2.553473   719A      2.553579   720A      2.569489  
     721A      2.569869   722A      2.572744   723A      2.572832  
     724A      2.581978   725A      2.591578   726A      2.594394  
     727A      2.602967   728A      2.603051   729A      2.609652  
     730A      2.609899   731A      2.615947   732A      2.616248  
     733A      2.616299   734A      2.616584   735A      2.623769  
     736A      2.627668   737A      2.627751   738A      2.632582  
     739A      2.640386   740A      2.647581   741A      2.648120  
     742A      2.651999   743A      2.672623   744A      2.672657  
     745A      2.689574   746A      2.692343   747A      2.692500  
     748A      2.699495   749A      2.699885   750A      2.699932  
     751A      2.700638   752A      2.700857   753A      2.715074  
     754A      2.716464   755A      2.716933   756A      2.720369  
     757A      2.724666   758A      2.725038   759A      2.726190  
     760A      2.726633   761A      2.743642   762A      2.743984  
     763A      2.759508   764A      2.759910   765A      2.768261  
     766A      2.768634   767A      2.775391   768A      2.777538  
     769A      2.778993   770A      2.781814   771A      2.782023  
     772A      2.786547   773A      2.786769   774A      2.791815  
     775A      2.792098   776A      2.810965   777A      2.811757  
     778A      2.813112   779A      2.813164   780A      2.813462  
     781A      2.817337   782A      2.825781   783A      2.825904  
     784A      2.826962   785A      2.836220   786A      2.836839  
     787A      2.837365   788A      2.846582   789A      2.853465  
[...]
     712A      1.400532   713A      1.404501   714A      1.404717  
     715A      1.408415   716A      1.408436   717A      1.412795  
     718A      1.413150   719A      1.420076   720A      1.422511  
     721A      1.427204   722A      1.428456   723A      1.429589  
     724A      1.433539   725A      1.436466   726A      1.436537  
     727A      1.439405   728A      1.440182   729A      1.440471  
     730A      1.443483   731A      1.448540   732A      1.449689  
     733A      1.450520   734A      1.464280   735A      1.465207  
     736A      1.474480   737A      1.475109   738A      1.516667  
     739A      1.516851   740A      1.521349   741A      1.521478  
     742A      1.531349   743A      1.552355   744A      1.575984  
     745A      1.598159   746A      1.599814   747A      1.600470  
     748A      1.608713   749A      1.608830   750A      1.609231  
     751A      1.613005   752A      1.613165   753A      1.616542  
     754A      1.621908   755A      1.622029   756A      1.627816  
     757A      1.631204   758A      1.631548   759A      1.639864  
     760A      1.640325   761A      1.642541   762A      1.643544  
     763A      1.643627   764A      1.644005   765A      1.644166  
     766A      1.645770   767A      1.651954   768A      1.659634  
     769A      1.661213   770A      1.663489   771A      1.667693  
     772A      1.676375   773A      1.676415   774A      1.676787  
     775A      1.676807   776A      1.677053   777A      1.683428  
     778A      1.686650   779A      1.686751   780A      1.696085  
     781A      1.697966   782A      1.699383   783A      1.699430  
     784A      1.701054   785A      1.704790   786A      1.704828  
     787A      1.715716   788A      1.715902   789A      1.741690  
     790A      1.742462   791A      1.751320   792A      1.751445  
     793A      1.760341   794A      1.760578   795A      1.761076  
     796A      1.761868   797A      1.776779   798A      1.776783  
     799A      1.791579   800A      1.791662   801A      1.816582  
     802A      1.816619   803A      1.817011   804A      1.818457  
     805A      1.824687   806A      1.824787   807A      1.830984  
     808A      1.831033   809A      1.835363   810A      1.839863  
     811A      1.842412   812A      1.843247   813A      1.860807  
     814A      1.860931   815A      1.861943   816A      1.863218  
     817A      1.864132   818A      1.869126   819A      1.872420  
     820A      1.880194   821A      1.880231   822A      1.896248  
     823A      1.896328   824A      1.899544   825A      1.903016  
     826A      1.903109   827A      1.908614   828A      1.908765  
     829A      1.914295   830A      1.916101   831A      1.917725  
     832A      1.917849   833A      1.919243   834A      1.922027  
     835A      1.922086   836A      1.940461   837A      1.941686  
     838A      1.942067   839A      1.942493   840A      1.946553  
     841A      1.946698   842A      1.954564   843A      1.954842  
     844A      1.955029   845A      1.955643   846A      1.958017  
     847A      1.971346   848A      1.983537   849A      1.983911  
     850A      1.990815   851A      1.997114   852A      1.998590  
     853A      1.998743   854A      2.005310   855A      2.008232  
     856A      2.012349   857A      2.012922   858A      2.027851  
     859A      2.029232   860A      2.030150   861A      2.030435  
     862A      2.030893   863A      2.031401   864A      2.031494  
     865A      2.047973   866A      2.052085   867A      2.052695  
     868A      2.057975   869A      2.058418   870A      2.060785  
     871A      2.062515   872A      2.068524   873A      2.070697  
     874A      2.071728   875A      2.072527   876A      2.076374  
     877A      2.077705   878A      2.082803   879A      2.085368  
     880A      2.086551   881A      2.093195   882A      2.095009  
     883A      2.096451   884A      2.096863   885A      2.100653  
     886A      2.100743   887A      2.108159   888A      2.108333  
     889A      2.108467   890A      2.110636   891A      2.111111  
     892A      2.113061   893A      2.115733   894A      2.119491  
     895A      2.119577   896A      2.120875   897A      2.121104  
     898A      2.126443   899A      2.127293   900A      2.134172  
     901A      2.134584   902A      2.135908   903A      2.136030  
     904A      2.143197   905A      2.143215   906A      2.155933  
     907A      2.160016   908A      2.160091   909A      2.162941  
     910A      2.163106   911A      2.171375   912A      2.178425  
     913A      2.178595   914A      2.190509   915A      2.190851  
     916A      2.192506   917A      2.193871   918A      2.195818  
     919A      2.195900   920A      2.198900   921A      2.219678  
     922A      2.220325   923A      2.220365   924A      2.228108  
     925A      2.228452   926A      2.228841   927A      2.229806  
     928A      2.243282   929A      2.243711   930A      2.243927  
     931A      2.244386   932A      2.247265   933A      2.260147  
     934A      2.260309   935A      2.270182   936A      2.270255  
     937A      2.272047   938A      2.272162   939A      2.281054  
     940A      2.300194   941A      2.306677   942A      2.310437  
     943A      2.312272   944A      2.321324   945A      2.322362  
     946A      2.331026   947A      2.331109   948A      2.331137  
     949A      2.333991   950A      2.350767   951A      2.351562  
     952A      2.352427   953A      2.352626   954A      2.366347  
     955A      2.366520   956A      2.374640   957A      2.380027  
     958A      2.415894   959A      2.424011   960A      2.424407  
     961A      2.424414   962A      2.436457   963A      2.441165  
     964A      2.441265   965A      2.469956   966A      2.472943  
     967A      2.473295   968A      2.485501   969A      2.485688  
     970A      2.502304   971A      2.519462   972A      2.529843  
     973A      2.530096   974A      2.543896   975A      2.545607  
     976A      2.545872   977A      2.554365   978A      2.554385  
     979A      2.554817   980A      2.559854   981A      2.559900  
     982A      2.572986   983A      2.573037   984A      2.574690  
     985A      2.575228   986A      2.586221   987A      2.586327  
     988A      2.587319   989A      2.589747   990A      2.591395  
     991A      2.606416   992A      2.623548   993A      2.623695  
     994A      2.625716   995A      2.631373   996A      2.632022  
     997A      2.641242   998A      2.641336   999A      2.650836  
    1000A      2.651189  1001A      2.656852  1002A      2.682104  
    1003A      2.683357  1004A      2.684010  1005A      2.686840  
    1006A      2.702130  1007A      2.702421  1008A      2.713025  
    1009A      2.713048  1010A      2.718734  1011A      2.718748  
    1012A      2.722952  1013A      2.723225  1014A      2.738472  
    1015A      2.752289  1016A      2.752825  1017A      2.777252  
    1018A      2.794700  1019A      2.794862  1020A      2.814763  
    1021A      2.814963  1022A      2.818380  1023A      2.819754  
    1024A      2.827104  1025A      2.828013  1026A      2.852556  
    1027A      2.852663  1028A      2.856043  1029A      2.858331  
    1030A      2.859557  1031A      2.859631  1032A      2.867714  
    1033A      2.916779  1034A      2.917204  1035A      2.924231  
    1036A      2.933587  1037A      2.933676  1038A      2.949623  
    1039A      2.949768  1040A      2.962942  1041A      3.007923  
    1042A      3.008230  1043A      3.011873  1044A      3.029474  
    1045A      3.064142  1046A      3.064344  1047A      3.070511  
    1048A      3.070907  1049A      3.109544  1050A      3.110257  
    1051A      3.128286  1052A      3.129627  1053A      3.130068  
    1054A      3.137456  1055A      3.146538  1056A      3.146616  
    1057A      3.146933  1058A      3.149126  1059A      3.149265  
    1060A      3.157853  1061A      3.158521  1062A      3.165979  
    1063A      3.166397  1064A      3.191705  1065A      3.211142  
    1066A      3.218836  1067A      3.237593  1068A      3.273631  
    1069A      3.276929  1070A      3.277075  1071A      3.281855  
    1072A      3.282317  1073A      3.416415  1074A      3.416836  
    1075A      3.443043  1076A      3.481507  1077A      3.484221  
    1078A      3.549350  1079A      3.577164  1080A      3.579119  
    1081A      3.593843  1082A      3.626545  1083A      3.628585  
    1084A      3.663079  1085A      3.669021  1086A      3.769227  
    1087A      3.782752  1088A      3.783697  1089A      3.870798  
    1090A      3.870881  1091A      3.913187  1092A      3.913353  
    1093A      3.976921  1094A      4.010894  1095A      4.033095  
    1096A      4.045248  1097A      4.081403  1098A      4.189871  
    1099A      4.203428  1100A      4.204700  1101A      4.331516  
    1102A      5.747957  1103A      5.748079  1104A      5.749722  
    1105A      5.753003  1106A      5.753379  1107A      5.758235  
    1108A      5.759229  1109A      5.760759  1110A      5.779244  
    1111A      5.780937  1112A      5.781404  1113A      6.019260  
    1114A      6.019780  1115A      6.020632  1116A      6.192839  
    1117A      6.326306  1118A      6.326603  1119A      6.373102  
    1120A      6.375293  1121A      6.376087  1122A      7.147301  
    1123A      7.197471  1124A      7.223521  1125A      7.233281  
    1126A      7.235908  1127A      7.252314  1128A      7.256714  
    1129A      7.266705  1130A      7.457621  1131A      7.466984  
    1132A      7.472269  1133A      7.607285  1134A     12.598958  
    1135A     42.908048  1136A     42.911735  1137A     42.913562  
    1138A     42.938627  

    Final Occupation by Irrep:
              A 
    DOCC [   171 ]
    NA   [   171 ]
    NB   [   171 ]

  @DF-RHF Final Energy: -2055.89181828559595

   => Energetics <=

    Nuclear Repulsion Energy =           6452.5568002797781446
    One-Electron Energy =              -15636.4322308080299990
    Two-Electron Energy =                7127.9836122426568181
    Total Energy =                      -2055.8918182855959458

Computation Completed


Properties will be evaluated at   0.000000,   0.000000,   0.000000 [a0]

Properties computed using the SCF density matrix


 Multipole Moments:

 ------------------------------------------------------------------------------------
     Multipole            Electronic (a.u.)      Nuclear  (a.u.)        Total (a.u.)
 ------------------------------------------------------------------------------------

 L = 1.  Multiply by 2.5417464519 to convert [e a0] to [Debye]
 Dipole X            :          0.0000776            0.0000112            0.0000888
 Dipole Y            :          0.0000394           -0.0000531           -0.0000137
 Dipole Z            :        477.8131765         -477.8161880           -0.0030116
 Magnitude           :                                                    0.0030129

 ------------------------------------------------------------------------------------

*** tstop() called on d-18-8-4 at Mon Jan 22 12:11:59 2024
Module time:
	user time   =    2220.25 seconds =      37.00 minutes
	system time =      31.12 seconds =       0.52 minutes
	total time  =        224 seconds =       3.73 minutes
Total time:
	user time   =    6233.78 seconds =     103.90 minutes
	system time =      93.02 seconds =       1.55 minutes
	total time  =        643 seconds =      10.72 minutes
  Constructing Basis Sets for SAPT...

   => Loading Basis Set <=

    Name: (JUN-CC-PVDZ AUX)
    Role: RIFIT
    Keyword: DF_BASIS_SAPT
    atoms 1     entry B          line    56 file /home/gridsan/tfroembgen/.conda/envs/psi4test/share/psi4/basis/jun-cc-pvdz-ri.gbs 
    atoms 2-5   entry F          line   232 file /home/gridsan/tfroembgen/.conda/envs/psi4test/share/psi4/basis/jun-cc-pvdz-ri.gbs 
    atoms 6-59  entry C          line   100 file /home/gridsan/tfroembgen/.conda/envs/psi4test/share/psi4/basis/jun-cc-pvdz-ri.gbs 
    atoms 60-77 entry H          line    30 file /home/gridsan/tfroembgen/.conda/envs/psi4test/share/psi4/basis/jun-cc-pvdz-ri.gbs 

   => Loading Basis Set <=

    Name: (JUN-CC-PVDZ AUX)
    Role: JKFIT
    Keyword: DF_BASIS_ELST
    atoms 1     entry B          line    90 file /home/gridsan/tfroembgen/.conda/envs/psi4test/share/psi4/basis/jun-cc-pvdz-jkfit.gbs 
    atoms 2-5   entry F          line   314 file /home/gridsan/tfroembgen/.conda/envs/psi4test/share/psi4/basis/jun-cc-pvdz-jkfit.gbs 
    atoms 6-59  entry C          line   146 file /home/gridsan/tfroembgen/.conda/envs/psi4test/share/psi4/basis/jun-cc-pvdz-jkfit.gbs 
    atoms 60-77 entry H          line    70 file /home/gridsan/tfroembgen/.conda/envs/psi4test/share/psi4/basis/jun-cc-pvdz-jkfit.gbs 


  //>>>>>>>>>>>>>>>>>>>>>>>>>>>>>>>>>>>//
  //               SSAPT0              //
  //<<<<<<<<<<<<<<<<<<<<<<<<<<<<<<<<<<<//


*** tstart() called on d-18-8-4
*** at Mon Jan 22 12:12:00 2024

        SAPT0  
    Ed Hohenstein
     6 June 2009

      Orbital Information
  --------------------------
    NSO        =      1152
    NMO        =      1138
    NRI        =      4087
    NRI (Elst) =      5075
    NOCC A     =        21
    NOCC B     =       171
    FOCC A     =         5
    FOCC B     =        54
    NVIR A     =      1117
    NVIR B     =       967

    Elst10,r            =     0.008489130480 [Eh]
    Exch10              =     0.000000047282 [Eh]
    Exch10 (S^2)        =     0.000000047284 [Eh]

    Iter     Energy [mEh]          dE [mEh]         Residual      Time [s]
       1      -0.00628668       0.006286677       0.571821591           322
       2      -0.00737253       0.001085856       0.297706873           716
       3      -0.00781310       0.000440565       0.056489250           853
       4      -0.00782033       0.000007235       0.011847386           935
       5      -0.00780765      -0.000012685       0.001602177           947
       6      -0.00780922       0.000001574       0.000303319           961
       7      -0.00780916      -0.000000064       0.000068785           973
       8      -0.00780914      -0.000000023       0.000010307           985
       9      -0.00780914       0.000000001       0.000003502          1021
      10      -0.00780914       0.000000001       0.000000538          1042

    CHF Iterations converged


    Iter     Energy [mEh]          dE [mEh]         Residual      Time [s]
       1      -4.50343531       4.503435309      35.294654100           116
       2      -3.04720970      -1.456225606       4.487852627           342
       3      -3.04592583      -0.001283873       1.564766504           427
       4      -3.11714889       0.071223056       0.354718265           445
       5      -3.12058389       0.003435005       0.100532462           463
       6      -3.11918378      -0.001400114       0.048515449           483
       7      -3.11870201      -0.000481764       0.021910352           502
       8      -3.11896112       0.000259108       0.013800165           520
       9      -3.11905243       0.000091309       0.008747705           538
      10      -3.11898063      -0.000071805       0.005325020           556
      11      -3.11896470      -0.000015929       0.002474570           576
      12      -3.11897247       0.000007770       0.000979563           598
      13      -3.11897796       0.000005494       0.000362010           618
      14      -3.11897760      -0.000000357       0.000125607           636
      15      -3.11897656      -0.000001040       0.000048732           655
      16      -3.11897677       0.000000206       0.000032224           677
      17      -3.11897693       0.000000157       0.000013339           694
      18      -3.11897689      -0.000000030       0.000004790           710
      19      -3.11897687      -0.000000023       0.000002513           726
      20      -3.11897687      -0.000000002       0.000001145           744
      21      -3.11897688       0.000000007       0.000000571           760

    CHF Iterations converged

    Ind20,r (A<-B)      =    -0.000007809138 [Eh]
    Ind20,r (B<-A)      =    -0.003118976876 [Eh]
    Ind20,r             =    -0.003126786014 [Eh]
    Exch-Ind20,r (A<-B) =     0.000000168456 [Eh]
    Exch-Ind20,r (B<-A) =     0.000000355503 [Eh]
    Exch-Ind20,r        =     0.000000523959 [Eh]
    Disp20              =    -0.000627267095 [Eh]
    Disp20 (SS)         =    -0.000313633548 [Eh]
    Disp20 (OS)         =    -0.000313633548 [Eh]
    Exch-Disp20         =     0.000000564119 [Eh]
    Exch-Disp20 (SS)    =     0.000000434073 [Eh]
    Exch-Disp20 (OS)    =     0.000000130045 [Eh]

    SAPT Results 
  --------------------------------------------------------------------------------------------------------
    Electrostatics                  8.48913048 [mEh]       5.32700980 [kcal/mol]      22.28820901 [kJ/mol]
      Elst10,r                      8.48913048 [mEh]       5.32700980 [kcal/mol]      22.28820901 [kJ/mol]

    Exchange                        0.00004728 [mEh]       0.00002967 [kcal/mol]       0.00012414 [kJ/mol]
      Exch10                        0.00004728 [mEh]       0.00002967 [kcal/mol]       0.00012414 [kJ/mol]
      Exch10(S^2)                   0.00004728 [mEh]       0.00002967 [kcal/mol]       0.00012415 [kJ/mol]

    Induction                      -3.10129172 [mEh]      -1.94608994 [kcal/mol]      -8.14244030 [kJ/mol]
      Ind20,r                      -3.12678601 [mEh]      -1.96208785 [kcal/mol]      -8.20937555 [kJ/mol]
      Exch-Ind20,r                  0.00052396 [mEh]       0.00032879 [kcal/mol]       0.00137566 [kJ/mol]
      delta HF,r (2)                0.02497033 [mEh]       0.01566912 [kcal/mol]       0.06555959 [kJ/mol]

    Dispersion                     -0.62670298 [mEh]      -0.39326206 [kcal/mol]      -1.64540844 [kJ/mol]
      Disp20                       -0.62726710 [mEh]      -0.39361604 [kcal/mol]      -1.64688953 [kJ/mol]
      Exch-Disp20                   0.00056412 [mEh]       0.00035399 [kcal/mol]       0.00148109 [kJ/mol]
      Disp20 (SS)                  -0.31363355 [mEh]      -0.19680802 [kcal/mol]      -0.82344477 [kJ/mol]
      Disp20 (OS)                  -0.31363355 [mEh]      -0.19680802 [kcal/mol]      -0.82344477 [kJ/mol]
      Exch-Disp20 (SS)              0.00043407 [mEh]       0.00027239 [kcal/mol]       0.00113966 [kJ/mol]
      Exch-Disp20 (OS)              0.00013005 [mEh]       0.00008160 [kcal/mol]       0.00034143 [kJ/mol]

  Total HF                          5.38788604 [mEh]       3.38094953 [kcal/mol]      14.14589284 [kJ/mol]
  Total SAPT0                       4.76118306 [mEh]       2.98768748 [kcal/mol]      12.50048441 [kJ/mol]

  Special recipe for scaled SAPT0 (see Manual):
    Electrostatics sSAPT0           8.48913048 [mEh]       5.32700980 [kcal/mol]      22.28820901 [kJ/mol]
    Exchange sSAPT0                 0.00004728 [mEh]       0.00002967 [kcal/mol]       0.00012414 [kJ/mol]
    Induction sSAPT0               -3.10129172 [mEh]      -1.94608994 [kcal/mol]      -8.14244030 [kJ/mol]
    Dispersion sSAPT0              -0.62670298 [mEh]      -0.39326206 [kcal/mol]      -1.64540844 [kJ/mol]
  Total sSAPT0                      4.76118306 [mEh]       2.98768748 [kcal/mol]      12.50048441 [kJ/mol]
  --------------------------------------------------------------------------------------------------------

*** tstop() called on d-18-8-4 at Mon Jan 22 13:16:31 2024
Module time:
	user time   =    6960.78 seconds =     116.01 minutes
	system time =     649.10 seconds =      10.82 minutes
	total time  =       3871 seconds =      64.52 minutes
Total time:
	user time   =   13195.83 seconds =     219.93 minutes
	system time =     742.14 seconds =      12.37 minutes
	total time  =       4515 seconds =      75.25 minutes

    Psi4 stopped on: Monday, 22 January 2024 01:16PM
    Psi4 wall time for execution: 1:15:16.06

*** Psi4 exiting successfully. Buy a developer a beer!
