
    -----------------------------------------------------------------------
          Psi4: An Open-Source Ab Initio Electronic Structure Package
                               Psi4 1.9 release

                         Git: Rev {} zzzzzzz 


    D. G. A. Smith, L. A. Burns, A. C. Simmonett, R. M. Parrish,
    M. C. Schieber, R. Galvelis, P. Kraus, H. Kruse, R. Di Remigio,
    A. Alenaizan, A. M. James, S. Lehtola, J. P. Misiewicz, M. Scheurer,
    R. A. Shaw, J. B. Schriber, Y. Xie, Z. L. Glick, D. A. Sirianni,
    J. S. O'Brien, J. M. Waldrop, A. Kumar, E. G. Hohenstein,
    B. P. Pritchard, B. R. Brooks, H. F. Schaefer III, A. Yu. Sokolov,
    K. Patkowski, A. E. DePrince III, U. Bozkaya, R. A. King,
    F. A. Evangelista, J. M. Turney, T. D. Crawford, C. D. Sherrill,
    J. Chem. Phys. 152(18) 184108 (2020). https://doi.org/10.1063/5.0006002

                            Additional Code Authors
    E. T. Seidl, C. L. Janssen, E. F. Valeev, M. L. Leininger,
    J. F. Gonthier, R. M. Richard, H. R. McAlexander, M. Saitow, X. Wang,
    P. Verma, M. H. Lechner, A. Jiang, S. Behnle, A. G. Heide,
    M. F. Herbst, and D. L. Poole

             Previous Authors, Complete List of Code Contributors,
                       and Citations for Specific Modules
    https://github.com/psi4/psi4/blob/master/codemeta.json
    https://github.com/psi4/psi4/graphs/contributors
    http://psicode.org/psi4manual/master/introduction.html#citing-psifour

    -----------------------------------------------------------------------


    Psi4 started on: Monday, 22 January 2024 11:56AM

    Process ID: 2404203
    Host:       d-16-12-3
    PSIDATADIR: /home/gridsan/tfroembgen/.conda/envs/psi4test/share/psi4
    Memory:     500.0 MiB
    Threads:    12
    
  ==> Input File <==

--------------------------------------------------------------------------
memory 32 GB # how much memory is available ! Depends on the nodes/cores !

molecule dimer {
# monomer A
-1 1    # Charge and multiplicity
B -0.000046  0.000337 4.799994
F -1.153597  0.000048 5.615641
F  1.153661 -0.000581 5.615641
F -0.000019 -1.153637 3.984360
F -0.000019  1.153978 3.984360
--
# monomer B
0 1     # Charge and multiplicity
C   1.22531237526482      0.70753866091955      0.00613762728373
C   1.22532433589282     -0.70753852257020     -0.00619318228664
C   -0.00000567409046      1.41496628609039     -0.00672680580738
C   2.45644923379077      1.41832825917820      0.00902448468363
C   0.00001130712078     -1.41497612663474      0.00347275151708
C   -1.22530046906674      0.70754574598412      0.00838914760619
C   2.45643823516184     -1.41832293188077     -0.00843833914343
C   -0.00000085313587      2.83680140328112     -0.00913035594137
C   3.68182717731192      0.70931832800114     -0.00808954934571
C   2.45512052870677      2.83422403348893     -0.00819210630633
C   3.68182158506039     -0.70933346742900      0.00798293467272
C   -1.22531311884624     -0.70752714354401     -0.00512042085974
C   1.22670006104402      3.54346985599427      0.00816696660346
C   0.00000526469929     -2.83678176723568      0.00832091913869
C   -2.45643555300670      1.41831729028492      0.00842454345199
C   2.45512389762097     -2.83422965658853      0.00783102630520
C   -1.22671388474763      3.54346943575023      0.00827029982280
C   4.91451777504333      1.42717324448953     -0.00160886631602
C   3.69315067131765      3.54279566454522     -0.00155906667985
C   -2.45643712022637     -1.41831290883911     -0.00846337726810
C   1.22670532178455     -3.54347386990643     -0.00780316414624
C   -2.45512491866593      2.83421703463423     -0.00818572995999
C   4.91452486062398     -1.42718653794377      0.00136387641845
C   1.22142509354026      4.97013443726031      0.00150231067809
C   4.89300870916237      2.82518837202648     -0.00039219795739
C   -1.22669652864725     -3.54347062507680     -0.00753595973677
C   -3.68181849668397      0.70932533873199     -0.00807686886569
C   3.69314758099218     -3.54280096939050      0.00148176697923
C   -1.22143177215231      4.97012866986289      0.00168580605083
C   6.13477145276790      0.68054831910577     -0.00083909176631
C   3.65678936045204      4.97295361556775     -0.00065042889723
C   -2.45512642789169     -2.83421472106065      0.00758666850712
C   -3.68181869921921     -0.70932533146830      0.00810055625144
C   4.89301309775526     -2.82519973363176      0.00021895393805
C   -0.00000059327114      5.65044773803267      0.00045449734393
C   6.13477559217374     -0.68055448207492      0.00042622874941
C   2.47813196269732      5.65357712333155      0.00063835075260
C   1.22142288457925     -4.97012668293268     -0.00129718634452
C   -3.69316190412301      3.54279732619245     -0.00139355922051
C   -1.22142804110313     -4.97011793159564     -0.00140994817719
C   -4.91452132810043      1.42717581899491     -0.00153192130862
C   3.65678749952045     -4.97295485423912      0.00080007163680
C   -2.47813805026426      5.65357479452875      0.00092287576113
C   -3.69314125872231     -3.54278984697859      0.00136564082345
C   -4.91451200321153     -1.42718062802730      0.00139857359209
C   -0.00000552908399     -5.65043791501335      0.00005899322272
C   -4.89302000425900      2.82518897091939     -0.00040227981744
C   2.47812647313991     -5.65357317188818     -0.00029052915548
C   -3.65679823041642      4.97295655404175     -0.00047374852278
C   -4.89299899901461     -2.82519139505969      0.00006491824035
C   -2.47812801824129     -5.65356579800621     -0.00056571680280
C   -6.13477002348955      0.68054913825639     -0.00086464346868
C   -3.65678835334731     -4.97294365097028      0.00058578382008
C   -6.13476456307132     -0.68055354348201      0.00040575295444
H   5.83528897565761      3.36927626695423      0.00396712770529
H   7.07385965258860      1.22821762089947     -0.00037744837300
H   4.60066374401555      5.51238117445323     -0.00014522814529
H   5.83528386714679     -3.36930568472863     -0.00423551337640
H   -0.00001167146422      6.73853104613662     -0.00389474766392
H   7.07386165167227     -1.22822657074368     -0.00008250934481
H   2.47331421164041      6.74068466339473      0.00017162982210
H   4.60066897122302     -5.51237575717576      0.00039007446835
H   -2.47331820069565      6.74068209160650      0.00047297644710
H   -0.00000978838621     -6.73852780445195      0.00458867820736
H   -5.83530143450167      3.36927132229595      0.00410314985360
H   2.47330840367253     -6.74068500242887      0.00027980126949
H   -4.60067436136587      5.51237839860371      0.00002010017831
H   -5.83527902699321     -3.36928859177951     -0.00451481925734
H   -2.47329986759855     -6.74067870613986     -0.00016951527498
H   -7.07385728692578      1.22822084484047     -0.00046143985387
H   -4.60067330624313     -5.51236229778631      0.00021776644566
H   -7.07385645456741     -1.22822025997701     -0.00017736581114

    units angstrom      # Angstroms are the default
    no_reorient         # Geometry fixed, default
    symmetry c1         # C1 symmetry, default
}

set {
    scf_type DF         # Density fitting, faster than exact integrals
    freeze_core True    # Freeze core electrons
    basis jun-cc-pVDZ   # Jun-cc-pVDZ basis set, recommended for sSAPT0 in https://doi.org/10.1063/1.4867135
}

energy('ssapt0')        # Compute sSAPT0 energy, includes also SAPT0
--------------------------------------------------------------------------

  Memory set to  29.802 GiB by Python driver.

Scratch directory: /state/partition1/slurm_tmp/24792923.4294967291.0/
   => Loading Basis Set <=

    Name: JUN-CC-PVDZ
    Role: ORBITAL
    Keyword: BASIS
    atoms 1     entry B          line   130 file /home/gridsan/tfroembgen/.conda/envs/psi4test/share/psi4/basis/jun-cc-pvdz.gbs 
    atoms 2-5   entry F          line   266 file /home/gridsan/tfroembgen/.conda/envs/psi4test/share/psi4/basis/jun-cc-pvdz.gbs 
    atoms 6-59  entry C          line   164 file /home/gridsan/tfroembgen/.conda/envs/psi4test/share/psi4/basis/jun-cc-pvdz.gbs 
    atoms 60-77 entry H          line    36 file /home/gridsan/tfroembgen/.conda/envs/psi4test/share/psi4/basis/jun-cc-pvdz.gbs 

   => Loading Basis Set <=

    Name: JUN-CC-PVDZ
    Role: ORBITAL
    Keyword: BASIS
    atoms 1     entry B          line   130 file /home/gridsan/tfroembgen/.conda/envs/psi4test/share/psi4/basis/jun-cc-pvdz.gbs 
    atoms 2-5   entry F          line   266 file /home/gridsan/tfroembgen/.conda/envs/psi4test/share/psi4/basis/jun-cc-pvdz.gbs 
    atoms 6-59  entry C          line   164 file /home/gridsan/tfroembgen/.conda/envs/psi4test/share/psi4/basis/jun-cc-pvdz.gbs 
    atoms 60-77 entry H          line    36 file /home/gridsan/tfroembgen/.conda/envs/psi4test/share/psi4/basis/jun-cc-pvdz.gbs 


  //>>>>>>>>>>>>>>>>>>>>>>>>>>>>>>>>>>>//
  //              Dimer HF             //
  //<<<<<<<<<<<<<<<<<<<<<<<<<<<<<<<<<<<//

   => Libint2 <=

    Primary   basis highest AM E, G, H:  7, 7, 4
    Auxiliary basis highest AM E, G, H:  7, 7, 5
    Onebody   basis highest AM E, G, H:  7, 7, 5
    Solid Harmonics ordering:            gaussian

*** tstart() called on d-16-12-3
*** at Mon Jan 22 11:56:34 2024

   => Loading Basis Set <=

    Name: JUN-CC-PVDZ
    Role: ORBITAL
    Keyword: BASIS
    atoms 1     entry B          line   130 file /home/gridsan/tfroembgen/.conda/envs/psi4test/share/psi4/basis/jun-cc-pvdz.gbs 
    atoms 2-5   entry F          line   266 file /home/gridsan/tfroembgen/.conda/envs/psi4test/share/psi4/basis/jun-cc-pvdz.gbs 
    atoms 6-59  entry C          line   164 file /home/gridsan/tfroembgen/.conda/envs/psi4test/share/psi4/basis/jun-cc-pvdz.gbs 
    atoms 60-77 entry H          line    36 file /home/gridsan/tfroembgen/.conda/envs/psi4test/share/psi4/basis/jun-cc-pvdz.gbs 


         ---------------------------------------------------------
                                   SCF
               by Justin Turney, Rob Parrish, Andy Simmonett
                          and Daniel G. A. Smith
                              RHF Reference
                       12 Threads,  30517 MiB Core
         ---------------------------------------------------------

  ==> Geometry <==

    Molecular point group: c1
    Full point group: C1

    Geometry (in Angstrom), charge = -1, multiplicity = 1:

       Center              X                  Y                   Z               Mass       
    ------------   -----------------  -----------------  -----------------  -----------------
         B           -0.000046449334     0.000336519434     4.245501860366    11.009305360000
         F           -1.153597449334     0.000047519434     5.061148860366    18.998403162730
         F            1.153660550666    -0.000581480566     5.061148860366    18.998403162730
         F           -0.000019449334    -1.153637480566     3.429867860366    18.998403162730
         F           -0.000019449334     1.153977519434     3.429867860366    18.998403162730
         C            1.225311925931     0.707538180353    -0.548354512350    12.000000000000
         C            1.225323886559    -0.707539003137    -0.560685321921    12.000000000000
         C           -0.000006123424     1.414965805524    -0.561218945441    12.000000000000
         C            2.456448784457     1.418327778612    -0.545467654950    12.000000000000
         C            0.000010857787    -1.414976607201    -0.551019388117    12.000000000000
         C           -1.225300918401     0.707545265418    -0.546102992028    12.000000000000
         C            2.456437785828    -1.418323412447    -0.562930478778    12.000000000000
         C           -0.000001302470     2.836800922715    -0.563622495575    12.000000000000
         C            3.681826727978     0.709317847435    -0.562581688980    12.000000000000
         C            2.455120079373     2.834223552923    -0.562684245940    12.000000000000
         C            3.681821135726    -0.709333947995    -0.546509204961    12.000000000000
         C           -1.225313568180    -0.707527624110    -0.559612560494    12.000000000000
         C            1.226699611710     3.543469375428    -0.546325173031    12.000000000000
         C            0.000004815365    -2.836782247802    -0.546171220495    12.000000000000
         C           -2.456436002341     1.418316809719    -0.546067596182    12.000000000000
         C            2.455123448287    -2.834230137155    -0.546661113329    12.000000000000
         C           -1.226714334082     3.543468955184    -0.546221839811    12.000000000000
         C            4.914517325709     1.427172763923    -0.556101005950    12.000000000000
         C            3.693150221984     3.542795183979    -0.556051206314    12.000000000000
         C           -2.456437569560    -1.418313389406    -0.562955516902    12.000000000000
         C            1.226704872451    -3.543474350473    -0.562295303780    12.000000000000
         C           -2.455125368000     2.834216554068    -0.562677869594    12.000000000000
         C            4.914524411290    -1.427187018510    -0.553128263216    12.000000000000
         C            1.221424644206     4.970133956694    -0.552989828956    12.000000000000
         C            4.893008259828     2.825187891460    -0.554884337591    12.000000000000
         C           -1.226696977981    -3.543471105643    -0.562028099371    12.000000000000
         C           -3.681818946018     0.709324858166    -0.562569008500    12.000000000000
         C            3.693147131658    -3.542801449957    -0.553010372655    12.000000000000
         C           -1.221432221486     4.970128189296    -0.552806333583    12.000000000000
         C            6.134771003434     0.680547838539    -0.555331231400    12.000000000000
         C            3.656788911118     4.972953135001    -0.555142568531    12.000000000000
         C           -2.455126877226    -2.834215201627    -0.546905471127    12.000000000000
         C           -3.681819148553    -0.709325812035    -0.546391583383    12.000000000000
         C            4.893012648421    -2.825200214198    -0.554273185696    12.000000000000
         C           -0.000001042605     5.650447257466    -0.554037642290    12.000000000000
         C            6.134775142840    -0.680554962641    -0.554065910885    12.000000000000
         C            2.478131513363     5.653576642765    -0.553853788881    12.000000000000
         C            1.221422435245    -4.970127163499    -0.555789325979    12.000000000000
         C           -3.693162353457     3.542796845626    -0.555885698855    12.000000000000
         C           -1.221428490437    -4.970118412162    -0.555902087811    12.000000000000
         C           -4.914521777434     1.427175338429    -0.556024060943    12.000000000000
         C            3.656787050187    -4.972955334806    -0.553692067997    12.000000000000
         C           -2.478138499598     5.653574313962    -0.553569263873    12.000000000000
         C           -3.693141708056    -3.542790327545    -0.553126498811    12.000000000000
         C           -4.914512452545    -1.427181108594    -0.553093566042    12.000000000000
         C           -0.000005978418    -5.650438395580    -0.554433146411    12.000000000000
         C           -4.893020453593     2.825188490353    -0.554894419452    12.000000000000
         C            2.478126023806    -5.653573652455    -0.554782668790    12.000000000000
         C           -3.656798679750     4.972956073475    -0.554965888157    12.000000000000
         C           -4.892999448349    -2.825191875626    -0.554427221394    12.000000000000
         C           -2.478128467575    -5.653566278573    -0.555057856437    12.000000000000
         C           -6.134770472823     0.680548657690    -0.555356783103    12.000000000000
         C           -3.656788802681    -4.972944131537    -0.553906355814    12.000000000000
         C           -6.134765012405    -0.680554024048    -0.554086386680    12.000000000000
         H            5.835288526324     3.369275786388    -0.550525011929     1.007825032230
         H            7.073859203255     1.228217140333    -0.554869588007     1.007825032230
         H            4.600663294682     5.512380693887    -0.554637367779     1.007825032230
         H            5.835283417813    -3.369306165295    -0.558727653010     1.007825032230
         H           -0.000012120798     6.738530565570    -0.558386887298     1.007825032230
         H            7.073861202338    -1.228227051310    -0.554574648979     1.007825032230
         H            2.473313762307     6.740684182828    -0.554320509812     1.007825032230
         H            4.600668521889    -5.512376237742    -0.554102065166     1.007825032230
         H           -2.473318650030     6.740681611040    -0.554019163187     1.007825032230
         H           -0.000010237720    -6.738528285018    -0.549903461427     1.007825032230
         H           -5.835301883836     3.369270841730    -0.550388989780     1.007825032230
         H            2.473307954339    -6.740685482995    -0.554212338365     1.007825032230
         H           -4.600674810700     5.512377918037    -0.554472039456     1.007825032230
         H           -5.835279476327    -3.369289072346    -0.559006958891     1.007825032230
         H           -2.473300316932    -6.740679186706    -0.554661654909     1.007825032230
         H           -7.073857736260     1.228220364274    -0.554953579488     1.007825032230
         H           -4.600673755577    -5.512362778353    -0.554274373188     1.007825032230
         H           -7.073856903901    -1.228220740543    -0.554669505445     1.007825032230

  Running in c1 symmetry.

  Rotational constants: A =      0.00178  B =      0.00178  C =      0.00110 [cm^-1]
  Rotational constants: A =     53.33818  B =     53.33139  C =     33.02250 [MHz]
  Nuclear repulsion = 7757.679549824182686

  Charge       = -1
  Multiplicity = 1
  Electrons    = 384
  Nalpha       = 192
  Nbeta        = 192

  ==> Algorithm <==

  SCF Algorithm Type is DF.
  DIIS enabled.
  MOM disabled.
  Fractional occupation disabled.
  Guess Type is SAD.
  Energy threshold   = 1.00e-08
  Density threshold  = 1.00e-08
  Integral threshold = 1.00e-12

  ==> Primary Basis <==

  Basis Set: JUN-CC-PVDZ
    Blend: JUN-CC-PVDZ
    Number of shells: 526
    Number of basis functions: 1152
    Number of Cartesian functions: 1211
    Spherical Harmonics?: true
    Max angular momentum: 2

   => Loading Basis Set <=

    Name: (JUN-CC-PVDZ AUX)
    Role: JKFIT
    Keyword: DF_BASIS_SCF
    atoms 1     entry B          line    90 file /home/gridsan/tfroembgen/.conda/envs/psi4test/share/psi4/basis/jun-cc-pvdz-jkfit.gbs 
    atoms 2-5   entry F          line   314 file /home/gridsan/tfroembgen/.conda/envs/psi4test/share/psi4/basis/jun-cc-pvdz-jkfit.gbs 
    atoms 6-59  entry C          line   146 file /home/gridsan/tfroembgen/.conda/envs/psi4test/share/psi4/basis/jun-cc-pvdz-jkfit.gbs 
    atoms 60-77 entry H          line    70 file /home/gridsan/tfroembgen/.conda/envs/psi4test/share/psi4/basis/jun-cc-pvdz-jkfit.gbs 

  ==> Integral Setup <==

  ==> DiskDFJK: Density-Fitted J/K Matrices <==

    J tasked:                  Yes
    K tasked:                  Yes
    wK tasked:                  No
    OpenMP threads:             12
    Integrals threads:          12
    Memory [MiB]:            22888
    Algorithm:                Core
    Integral Cache:           SAVE
    Schwarz Cutoff:          1E-12
    Fitting Condition:       1E-10

   => Auxiliary Basis Set <=

  Basis Set: (JUN-CC-PVDZ AUX)
    Blend: JUN-CC-PVDZ-JKFIT
    Number of shells: 1755
    Number of basis functions: 5075
    Number of Cartesian functions: 5819
    Spherical Harmonics?: true
    Max angular momentum: 3

  Minimum eigenvalue in the overlap matrix is 8.0667596954E-10.
  Reciprocal condition number of the overlap matrix is 3.5433180859E-11.
    Using canonical orthogonalization.
  Overall, 14 of 1152 possible MOs eliminated.


  ==> Pre-Iterations <==

  SCF Guess: Superposition of Atomic Densities via on-the-fly atomic UHF (no occupation information).

   -------------------------
    Irrep   Nso     Nmo    
   -------------------------
     A       1152    1138 
   -------------------------
    Total    1152    1138
   -------------------------

  ==> Iterations <==

                           Total Energy        Delta E     RMS |[F,P]|

   @DF-RHF iter SAD: -2483.28196815555839   -2.48328e+03   0.00000e+00 
   @DF-RHF iter   1: -2477.61009407813071    5.67187e+00   1.10500e-03 DIIS/ADIIS
   @DF-RHF iter   2: -2478.50515815276322   -8.95064e-01   4.85016e-04 DIIS/ADIIS
   @DF-RHF iter   3: -2478.64367247700693   -1.38514e-01   1.37085e-04 DIIS/ADIIS
   @DF-RHF iter   4: -2478.65750811881389   -1.38356e-02   6.02456e-05 DIIS
   @DF-RHF iter   5: -2478.66051494162730   -3.00682e-03   1.70535e-05 DIIS
   @DF-RHF iter   6: -2478.66082597621380   -3.11035e-04   5.40662e-06 DIIS
   @DF-RHF iter   7: -2478.66090824281855   -8.22666e-05   2.66681e-06 DIIS
   @DF-RHF iter   8: -2478.66093106127437   -2.28185e-05   1.21307e-06 DIIS
   @DF-RHF iter   9: -2478.66093780869096   -6.74742e-06   2.59100e-07 DIIS
   @DF-RHF iter  10: -2478.66093804216507   -2.33474e-07   9.20481e-08 DIIS
   @DF-RHF iter  11: -2478.66093805958690   -1.74218e-08   3.61423e-08 DIIS
   @DF-RHF iter  12: -2478.66093806333402   -3.74712e-09   1.42798e-08 DIIS
   @DF-RHF iter  13: -2478.66093806375829   -4.24279e-10   6.29371e-09 DIIS
  Energy and wave function converged.


  ==> Post-Iterations <==

    Orbital Energies [Eh]
    ---------------------

    Doubly Occupied:                                                      

       1A    -26.071250     2A    -26.071072     3A    -26.069011  
       4A    -26.068976     5A    -11.187305     6A    -11.187304  
       7A    -11.187245     8A    -11.187244     9A    -11.187172  
      10A    -11.187169    11A    -11.187113    12A    -11.187112  
      13A    -11.187038    14A    -11.186995    15A    -11.186952  
      16A    -11.186907    17A    -11.184439    18A    -11.184427  
      19A    -11.184266    20A    -11.184244    21A    -11.184236  
      22A    -11.184194    23A    -11.184112    24A    -11.184074  
      25A    -11.184053    26A    -11.184050    27A    -11.184007  
      28A    -11.183930    29A    -11.183716    30A    -11.183536  
      31A    -11.183437    32A    -11.183156    33A    -11.183154  
      34A    -11.182957    35A    -11.182845    36A    -11.182838  
      37A    -11.182722    38A    -11.182656    39A    -11.182651  
      40A    -11.182648    41A    -11.182631    42A    -11.182579  
      43A    -11.182460    44A    -11.182373    45A    -11.182216  
      46A    -11.182193    47A    -11.181785    48A    -11.181349  
      49A    -11.181314    50A    -11.180654    51A    -11.180653  
      52A    -11.180615    53A    -11.180614    54A    -11.180401  
      55A    -11.180347    56A    -11.180308    57A    -11.180277  
      58A    -11.179769    59A     -7.542111    60A     -1.413949  
      61A     -1.355240    62A     -1.354178    63A     -1.353125  
      64A     -1.168104    65A     -1.146207    66A     -1.145923  
      67A     -1.117056    68A     -1.117045    69A     -1.106237  
      70A     -1.086343    71A     -1.076786    72A     -1.061736  
      73A     -1.061497    74A     -1.042130    75A     -1.042101  
      76A     -1.009348    77A     -1.009329    78A     -1.005241  
      79A     -0.995225    80A     -0.995218    81A     -0.967682  
      82A     -0.950241    83A     -0.947524    84A     -0.947390  
      85A     -0.946840    86A     -0.942307    87A     -0.914301  
      88A     -0.914270    89A     -0.890542    90A     -0.890540  
      91A     -0.823273    92A     -0.823257    93A     -0.813975  
      94A     -0.812010    95A     -0.811829    96A     -0.808645  
      97A     -0.808616    98A     -0.790787    99A     -0.767999  
     100A     -0.746823   101A     -0.743374   102A     -0.739648  
     103A     -0.739539   104A     -0.724221   105A     -0.724205  
     106A     -0.673528   107A     -0.672249   108A     -0.661571  
     109A     -0.661552   110A     -0.660680   111A     -0.660577  
     112A     -0.644453   113A     -0.627941   114A     -0.627835  
     115A     -0.621945   116A     -0.621840   117A     -0.605233  
     118A     -0.590855   119A     -0.580946   120A     -0.580159  
     121A     -0.580151   122A     -0.578202   123A     -0.568608  
     124A     -0.568539   125A     -0.557579   126A     -0.555543  
     127A     -0.555493   128A     -0.537941   129A     -0.531859  
     130A     -0.531349   131A     -0.530991   132A     -0.529131  
     133A     -0.529128   134A     -0.528987   135A     -0.528882  
     136A     -0.521564   137A     -0.517859   138A     -0.517748  
     139A     -0.516238   140A     -0.502197   141A     -0.501867  
     142A     -0.497315   143A     -0.497305   144A     -0.493800  
     145A     -0.493715   146A     -0.486261   147A     -0.484530  
     148A     -0.484478   149A     -0.468303   150A     -0.468288  
     151A     -0.465555   152A     -0.465550   153A     -0.458399  
     154A     -0.453140   155A     -0.451597   156A     -0.451502  
     157A     -0.450202   158A     -0.449600   159A     -0.430444  
     160A     -0.424638   161A     -0.422645   162A     -0.415762  
     163A     -0.412824   164A     -0.411593   165A     -0.411452  
     166A     -0.411266   167A     -0.410166   168A     -0.410153  
     169A     -0.395801   170A     -0.395621   171A     -0.388346  
     172A     -0.387900   173A     -0.387342   174A     -0.377534  
     175A     -0.377389   176A     -0.368421   177A     -0.368366  
     178A     -0.331112   179A     -0.331095   180A     -0.329117  
     181A     -0.305271   182A     -0.305233   183A     -0.277126  
     184A     -0.261576   185A     -0.260207   186A     -0.259933  
     187A     -0.240060   188A     -0.228687   189A     -0.210307  
     190A     -0.210178   191A     -0.152837   192A     -0.152785  

    Virtual:                                                              

     193A      0.085544   194A      0.085700   195A      0.104461  
     196A      0.104598   197A      0.106332   198A      0.106954  
     199A      0.106990   200A      0.113738   201A      0.117899  
     202A      0.128895   203A      0.128911   204A      0.137661  
     205A      0.137697   206A      0.143661   207A      0.143665  
     208A      0.144080   209A      0.150767   210A      0.150816  
     211A      0.151195   212A      0.151334   213A      0.151833  
     214A      0.156607   215A      0.157402   216A      0.157996  
     217A      0.158943   218A      0.163406   219A      0.165948  
     220A      0.172413   221A      0.172504   222A      0.174255  
     223A      0.176351   224A      0.180821   225A      0.183633  
     226A      0.183775   227A      0.187118   228A      0.187516  
     229A      0.187843   230A      0.188032   231A      0.188810  
     232A      0.191283   233A      0.191823   234A      0.195257  
     235A      0.196139   236A      0.196178   237A      0.202879  
     238A      0.210676   239A      0.210681   240A      0.211203  
     241A      0.212452   242A      0.215647   243A      0.215865  
     244A      0.217476   245A      0.219888   246A      0.219909  
     247A      0.231487   248A      0.234220   249A      0.234395  
     250A      0.240607   251A      0.244991   252A      0.246892  
     253A      0.246947   254A      0.248296   255A      0.248485  
     256A      0.251528   257A      0.251664   258A      0.253733  
     259A      0.256833   260A      0.257836   261A      0.259801  
     262A      0.263726   263A      0.263875   264A      0.264273  
     265A      0.264312   266A      0.266387   267A      0.270711  
     268A      0.270831   269A      0.272452   270A      0.273165  
     271A      0.273559   272A      0.274946   273A      0.275031  
     274A      0.276895   275A      0.279448   276A      0.286493  
     277A      0.287356   278A      0.287654   279A      0.289331  
     280A      0.290497   281A      0.291146   282A      0.292847  
     283A      0.292952   284A      0.296939   285A      0.298184  
     286A      0.300153   287A      0.300663   288A      0.300932  
     289A      0.305509   290A      0.305520   291A      0.307808  
     292A      0.308449   293A      0.317636   294A      0.317956  
     295A      0.319030   296A      0.319882   297A      0.321453  
     298A      0.321775   299A      0.323597   300A      0.327476  
     301A      0.328647   302A      0.328812   303A      0.336463  
     304A      0.336563   305A      0.337717   306A      0.337911  
     307A      0.342989   308A      0.348057   309A      0.349198  
     310A      0.350387   311A      0.352570   312A      0.354018  
     313A      0.356945   314A      0.357733   315A      0.357858  
     316A      0.360083   317A      0.362531   318A      0.364011  
     319A      0.366627   320A      0.366804   321A      0.368244  
     322A      0.373501   323A      0.373727   324A      0.374354  
     325A      0.375110   326A      0.375222   327A      0.376926  
     328A      0.380304   329A      0.381491   330A      0.381703  
     331A      0.384147   332A      0.385660   333A      0.386212  
     334A      0.386243   335A      0.386403   336A      0.391416  
     337A      0.392709   338A      0.396001   339A      0.398959  
     340A      0.400305   341A      0.402304   342A      0.404933  
     343A      0.405460   344A      0.408174   345A      0.409100  
     346A      0.409455   347A      0.413935   348A      0.415433  
     349A      0.417501   350A      0.417680   351A      0.418037  
     352A      0.419019   353A      0.421097   354A      0.427169  
     355A      0.431310   356A      0.432998   357A      0.434468  
     358A      0.437136   359A      0.438298   360A      0.441849  
     361A      0.445816   362A      0.448273   363A      0.448670  
     364A      0.449664   365A      0.451077   366A      0.453896  
     367A      0.454252   368A      0.457354   369A      0.457929  
     370A      0.457972   371A      0.458946   372A      0.459380  
     373A      0.459433   374A      0.460113   375A      0.464259  
     376A      0.465729   377A      0.465896   378A      0.466657  
     379A      0.467568   380A      0.471230   381A      0.473296  
     382A      0.473431   383A      0.474912   384A      0.479510  
     385A      0.481165   386A      0.484700   387A      0.484859  
     388A      0.485304   389A      0.486345   390A      0.486405  
     391A      0.487440   392A      0.488233   393A      0.490957  
     394A      0.493311   395A      0.494358   396A      0.495181  
     397A      0.496757   398A      0.496951   399A      0.500509  
     400A      0.505611   401A      0.506557   402A      0.507004  
     403A      0.507580   404A      0.507957   405A      0.509906  
     406A      0.513284   407A      0.514308   408A      0.516214  
     409A      0.518203   410A      0.519386   411A      0.520533  
     412A      0.520814   413A      0.521021   414A      0.521664  
     415A      0.527687   416A      0.532622   417A      0.533405  
     418A      0.533626   419A      0.539339   420A      0.539425  
     421A      0.540268   422A      0.542933   423A      0.543595  
     424A      0.544513   425A      0.546762   426A      0.549901  
     427A      0.550030   428A      0.555889   429A      0.557163  
     430A      0.560204   431A      0.560522   432A      0.560617  
     433A      0.562605   434A      0.565488   435A      0.566652  
     436A      0.567880   437A      0.568289   438A      0.568352  
     439A      0.575284   440A      0.575344   441A      0.576498  
     442A      0.576887   443A      0.582956   444A      0.584090  
     445A      0.584722   446A      0.589525   447A      0.595451  
     448A      0.595597   449A      0.597305   450A      0.600164  
     451A      0.603495   452A      0.606268   453A      0.608737  
     454A      0.610169   455A      0.610363   456A      0.612989  
     457A      0.613699   458A      0.615877   459A      0.617841  
     460A      0.620895   461A      0.621335   462A      0.622271  
     463A      0.623864   464A      0.627502   465A      0.630471  
     466A      0.633019   467A      0.637955   468A      0.638221  
     469A      0.638334   470A      0.638815   471A      0.638918  
     472A      0.646095   473A      0.655910   474A      0.663329  
     475A      0.664328   476A      0.666502   477A      0.669910  
     478A      0.671659   479A      0.674828   480A      0.676546  
     481A      0.690836   482A      0.691438   483A      0.695030  
     484A      0.698061   485A      0.698573   486A      0.700485  
     487A      0.703708   488A      0.704224   489A      0.716592  
     490A      0.718289   491A      0.721307   492A      0.726131  
     493A      0.726629   494A      0.732992   495A      0.740668  
     496A      0.745858   497A      0.746490   498A      0.748595  
     499A      0.748784   500A      0.749760   501A      0.759613  
     502A      0.784843   503A      0.787762   504A      0.788090  
     505A      0.803345   506A      0.808595   507A      0.810911  
     508A      0.814618   509A      0.816506   510A      0.816609  
     511A      0.816669   512A      0.822670   513A      0.827528  
     514A      0.831696   515A      0.836298   516A      0.846654  
     517A      0.848143   518A      0.862131   519A      0.870991  
     520A      0.871281   521A      0.876858   522A      0.880822  
     523A      0.884236   524A      0.888593   525A      0.889689  
     526A      0.893613   527A      0.894428   528A      0.897071  
     529A      0.897337   530A      0.898655   531A      0.898766  
     532A      0.909232   533A      0.924956   534A      0.926271  
     535A      0.931309   536A      0.932408   537A      0.934612  
     538A      0.936064   539A      0.937167   540A      0.940317  
     541A      0.945618   542A      0.945623   543A      0.948395  
     544A      0.948821   545A      0.958149   546A      0.958280  
     547A      0.960290   548A      0.962777   549A      0.967822  
     550A      0.968026   551A      0.969807   552A      0.975197  
     553A      0.977367   554A      0.977779   555A      0.980751  
     556A      0.981760   557A      0.984034   558A      0.984235  
     559A      0.988875   560A      0.989469   561A      0.989808  
     562A      0.995289   563A      0.996394   564A      1.001457  
     565A      1.005336   566A      1.006495   567A      1.006566  
     568A      1.009062   569A      1.010842   570A      1.012669  
     571A      1.018263   572A      1.019325   573A      1.022499  
     574A      1.023435   575A      1.034827   576A      1.038525  
     577A      1.039022   578A      1.039117   579A      1.042698  
     580A      1.042944   581A      1.044199   582A      1.048906  
     583A      1.049663   584A      1.055165   585A      1.055834  
     586A      1.059639   587A      1.060239   588A      1.063613  
     589A      1.070671   590A      1.076209   591A      1.079297  
     592A      1.081234   593A      1.084484   594A      1.084746  
     595A      1.086773   596A      1.087163   597A      1.087876  
     598A      1.095091   599A      1.103781   600A      1.103953  
     601A      1.106706   602A      1.107753   603A      1.107925  
     604A      1.111191   605A      1.113478   606A      1.114965  
     607A      1.116679   608A      1.117617   609A      1.118091  
     610A      1.119437   611A      1.121360   612A      1.121679  
     613A      1.125548   614A      1.126708   615A      1.128062  
     616A      1.130625   617A      1.140500   618A      1.141166  
     619A      1.141774   620A      1.145119   621A      1.151272  
     622A      1.152957   623A      1.156532   624A      1.156656  
     625A      1.158345   626A      1.158502   627A      1.161522  
     628A      1.164984   629A      1.167050   630A      1.170713  
     631A      1.172331   632A      1.175074   633A      1.177612  
     634A      1.178172   635A      1.179430   636A      1.180389  
     637A      1.181325   638A      1.185481   639A      1.187109  
     640A      1.193871   641A      1.198385   642A      1.202161  
     643A      1.202208   644A      1.202998   645A      1.208510  
     646A      1.213559   647A      1.213718   648A      1.214993  
     649A      1.216491   650A      1.218525   651A      1.220136  
     652A      1.220742   653A      1.223179   654A      1.226631  
     655A      1.229373   656A      1.234711   657A      1.237512  
     658A      1.248153   659A      1.256919   660A      1.257254  
     661A      1.261440   662A      1.262074   663A      1.265599  
     664A      1.267969   665A      1.270170   666A      1.272285  
     667A      1.273316   668A      1.274381   669A      1.284872  
     670A      1.289674   671A      1.292929   672A      1.294344  
     673A      1.294670   674A      1.297022   675A      1.307282  
     676A      1.308211   677A      1.309239   678A      1.329078  
     679A      1.329183   680A      1.332264   681A      1.333679  
     682A      1.334905   683A      1.335031   684A      1.336035  
     685A      1.340023   686A      1.346253   687A      1.347228  
     688A      1.347617   689A      1.357981   690A      1.365378  
     691A      1.368072   692A      1.368339   693A      1.369177  
     694A      1.370332   695A      1.376828   696A      1.378892  
     697A      1.379453   698A      1.380612   699A      1.382011  
     700A      1.389849   701A      1.392001   702A      1.393793  
     703A      1.396501   704A      1.397806   705A      1.402349  
     706A      1.402679   707A      1.407931   708A      1.411671  
     709A      1.415995   710A      1.419225   711A      1.423084  
     712A      1.424525   713A      1.428624   714A      1.428841  
     715A      1.430979   716A      1.431516   717A      1.435913  
     718A      1.441423   719A      1.444745   720A      1.448797  
     721A      1.453910   722A      1.463665   723A      1.466585  
     724A      1.475369   725A      1.475611   726A      1.482507  
     727A      1.483105   728A      1.483975   729A      1.484320  
     730A      1.491168   731A      1.493899   732A      1.501066  
     733A      1.501144   734A      1.503543   735A      1.507102  
     736A      1.507429   737A      1.510429   738A      1.511550  
     739A      1.511846   740A      1.512615   741A      1.520077  
     742A      1.521131   743A      1.522062   744A      1.522146  
     745A      1.539104   746A      1.541074   747A      1.549302  
     748A      1.551580   749A      1.583164   750A      1.588078  
     751A      1.590342   752A      1.594771   753A      1.594878  
     754A      1.601852   755A      1.625498   756A      1.650567  
     757A      1.651993   758A      1.658568   759A      1.660592  
     760A      1.674277   761A      1.676263   762A      1.679813  
     763A      1.684813   764A      1.686078   765A      1.687549  
     766A      1.690278   767A      1.692792   768A      1.697046  
     769A      1.699023   770A      1.700438   771A      1.710223  
     772A      1.711492   773A      1.713946   774A      1.715624  
     775A      1.717234   776A      1.718588   777A      1.719219  
     778A      1.721644   779A      1.733181   780A      1.733242  
     781A      1.733959   782A      1.739499   783A      1.747588  
     784A      1.748140   785A      1.750589   786A      1.752175  
     787A      1.752222   788A      1.755639   789A      1.760171  
     790A      1.760470   791A      1.767518   792A      1.770157  
     793A      1.770245   794A      1.770338   795A      1.776199  
     796A      1.779870   797A      1.780045   798A      1.786926  
     799A      1.787690   800A      1.814147   801A      1.825102  
     802A      1.829421   803A      1.830049   804A      1.830806  
     805A      1.833593   806A      1.848649   807A      1.848689  
     808A      1.863570   809A      1.863631   810A      1.886905  
     811A      1.887162   812A      1.887862   813A      1.897652  
     814A      1.898721   815A      1.898791   816A      1.903434  
     817A      1.903860   818A      1.912300   819A      1.915714  
     820A      1.919505   821A      1.930908   822A      1.931012  
     823A      1.935222   824A      1.936777   825A      1.937581  
     826A      1.942436   827A      1.944951   828A      1.953393  
     829A      1.953619   830A      1.967531   831A      1.969130  
     832A      1.969220   833A      1.969881   834A      1.972451  
     835A      1.973010   836A      1.981923   837A      1.982062  
     838A      1.986474   839A      1.990132   840A      1.990314  
     841A      1.991403   842A      1.991743   843A      1.994557  
     844A      1.994753   845A      2.008598   846A      2.012320  
     847A      2.013023   848A      2.014283   849A      2.015153  
     850A      2.015503   851A      2.019329   852A      2.027693  
     853A      2.028753   854A      2.029121   855A      2.029513  
     856A      2.030196   857A      2.035663   858A      2.050641  
     859A      2.057289   860A      2.057498   861A      2.058832  
     862A      2.065421   863A      2.067861   864A      2.069078  
     865A      2.069596   866A      2.071548   867A      2.075546  
     868A      2.078702   869A      2.082945   870A      2.083726  
     871A      2.093523   872A      2.093996   873A      2.096625  
     874A      2.101764   875A      2.102303   876A      2.102905  
     877A      2.103403   878A      2.103652   879A      2.106211  
     880A      2.110626   881A      2.122602   882A      2.124549  
     883A      2.126842   884A      2.133265   885A      2.135182  
     886A      2.136500   887A      2.141401   888A      2.142899  
     889A      2.147110   890A      2.147987   891A      2.148875  
     892A      2.153573   893A      2.155771   894A      2.156302  
     895A      2.162677   896A      2.162784   897A      2.165062  
     898A      2.166154   899A      2.167754   900A      2.168858  
     901A      2.169714   902A      2.170741   903A      2.173649  
     904A      2.173906   905A      2.180557   906A      2.181223  
     907A      2.181310   908A      2.185150   909A      2.188090  
     910A      2.189292   911A      2.192216   912A      2.192418  
     913A      2.195032   914A      2.195834   915A      2.196934  
     916A      2.201270   917A      2.201774   918A      2.206157  
     919A      2.206554   920A      2.207550   921A      2.208019  
     922A      2.214209   923A      2.214362   924A      2.227903  
     925A      2.234492   926A      2.235284   927A      2.235861  
     928A      2.237258   929A      2.244499   930A      2.251254  
     931A      2.252608   932A      2.260552   933A      2.260946  
     934A      2.262854   935A      2.265755   936A      2.268922  
     937A      2.271778   938A      2.275618   939A      2.291681  
     940A      2.292080   941A      2.295083   942A      2.296262  
     943A      2.298511   944A      2.306656   945A      2.307271  
     946A      2.311736   947A      2.312563   948A      2.313790  
     949A      2.314758   950A      2.317449   951A      2.322671  
     952A      2.326784   953A      2.329685   954A      2.331355  
     955A      2.341530   956A      2.341757   957A      2.342436  
     958A      2.347003   959A      2.349401   960A      2.371168  
     961A      2.377423   962A      2.386013   963A      2.387552  
     964A      2.396125   965A      2.400786   966A      2.406517  
     967A      2.406708   968A      2.407450   969A      2.410935  
     970A      2.424239   971A      2.425643   972A      2.425905  
     973A      2.426881   974A      2.440227   975A      2.441126  
     976A      2.450649   977A      2.454685   978A      2.486369  
     979A      2.496118   980A      2.496445   981A      2.496648  
     982A      2.506941   983A      2.514499   984A      2.515191  
     985A      2.542937   986A      2.545112   987A      2.546276  
     988A      2.557023   989A      2.557783   990A      2.574425  
     991A      2.590593   992A      2.601908   993A      2.603476  
     994A      2.616253   995A      2.617064   996A      2.618216  
     997A      2.623464   998A      2.623524   999A      2.629521  
    1000A      2.631682  1001A      2.631892  1002A      2.644199  
    1003A      2.644593  1004A      2.645207  1005A      2.645279  
    1006A      2.656818  1007A      2.657033  1008A      2.660168  
    1009A      2.660536  1010A      2.662271  1011A      2.679030  
    1012A      2.694486  1013A      2.694902  1014A      2.700249  
    1015A      2.704604  1016A      2.705339  1017A      2.711554  
    1018A      2.711773  1019A      2.721231  1020A      2.721549  
    1021A      2.727317  1022A      2.755097  1023A      2.756171  
    1024A      2.756493  1025A      2.758308  1026A      2.777639  
    1027A      2.777792  1028A      2.786229  1029A      2.786549  
    1030A      2.791565  1031A      2.791754  1032A      2.795904  
    1033A      2.796175  1034A      2.813167  1035A      2.823584  
    1036A      2.824751  1037A      2.851447  1038A      2.868671  
    1039A      2.868989  1040A      2.889388  1041A      2.900978  
    1042A      2.901209  1043A      2.925088  1044A      2.926247  
    1045A      2.931535  1046A      2.933065  1047A      2.933700  
    1048A      2.933799  1049A      2.940676  1050A      2.988015  
    1051A      2.988473  1052A      2.994208  1053A      2.998268  
    1054A      3.003893  1055A      3.004338  1056A      3.021893  
    1057A      3.022835  1058A      3.035494  1059A      3.070545  
    1060A      3.077716  1061A      3.080935  1062A      3.083416  
    1063A      3.087238  1064A      3.104377  1065A      3.138494  
    1066A      3.138767  1067A      3.143555  1068A      3.144313  
    1069A      3.181815  1070A      3.184016  1071A      3.198908  
    1072A      3.201084  1073A      3.202115  1074A      3.208376  
    1075A      3.218163  1076A      3.218357  1077A      3.218789  
    1078A      3.219790  1079A      3.220114  1080A      3.229734  
    1081A      3.230785  1082A      3.236910  1083A      3.237543  
    1084A      3.261432  1085A      3.280499  1086A      3.292193  
    1087A      3.307168  1088A      3.314968  1089A      3.349038  
    1090A      3.349287  1091A      3.349831  1092A      3.355039  
    1093A      3.357881  1094A      3.491361  1095A      3.492112  
    1096A      3.525007  1097A      3.557517  1098A      3.561054  
    1099A      3.626879  1100A      3.654805  1101A      3.657082  
    1102A      3.669845  1103A      3.699785  1104A      3.702315  
    1105A      3.735729  1106A      3.743704  1107A      3.842598  
    1108A      3.859345  1109A      3.860244  1110A      3.941979  
    1111A      3.942072  1112A      3.985185  1113A      3.985736  
    1114A      4.051056  1115A      4.085224  1116A      4.117347  
    1117A      4.133103  1118A      4.165550  1119A      4.171470  
    1120A      4.172074  1121A      4.172680  1122A      4.199788  
    1123A      4.200188  1124A      4.200967  1125A      4.204272  
    1126A      4.204411  1127A      4.235956  1128A      4.242011  
    1129A      4.253265  1130A      4.446777  1131A      4.447312  
    1132A      4.447719  1133A      4.649390  1134A      4.657051  
    1135A      4.657328  1136A      4.749159  1137A      4.784389  
    1138A      4.786240  

    Final Occupation by Irrep:
              A 
    DOCC [   192 ]
    NA   [   192 ]
    NB   [   192 ]

  @DF-RHF Final Energy: -2478.66093806375829

   => Energetics <=

    Nuclear Repulsion Energy =           7757.6795498241826863
    One-Electron Energy =              -18871.3756407371620298
    Two-Electron Energy =                8635.0351528492210491
    Total Energy =                      -2478.6609380637582944

Computation Completed


Properties will be evaluated at   0.000000,   0.000000,   0.000000 [a0]

Properties computed using the SCF density matrix


 Multipole Moments:

 ------------------------------------------------------------------------------------
     Multipole            Electronic (a.u.)      Nuclear  (a.u.)        Total (a.u.)
 ------------------------------------------------------------------------------------

 L = 1.  Multiply by 2.5417464519 to convert [e a0] to [Debye]
 Dipole X            :         -0.0002266           -0.0000160           -0.0002426
 Dipole Y            :          0.0012671           -0.0001716            0.0010955
 Dipole Z            :         22.5290970          -29.4254264           -6.8963294
 Magnitude           :                                                    6.8963295

 ------------------------------------------------------------------------------------

*** tstop() called on d-16-12-3 at Mon Jan 22 12:02:45 2024
Module time:
	user time   =    3333.33 seconds =      55.56 minutes
	system time =      67.02 seconds =       1.12 minutes
	total time  =        371 seconds =       6.18 minutes
Total time:
	user time   =    3333.33 seconds =      55.56 minutes
	system time =      67.02 seconds =       1.12 minutes
	total time  =        371 seconds =       6.18 minutes

  //>>>>>>>>>>>>>>>>>>>>>>>>>>>>>>>>>>>//
  //            Monomer A HF           //
  //<<<<<<<<<<<<<<<<<<<<<<<<<<<<<<<<<<<//

   => Libint2 <=

    Primary   basis highest AM E, G, H:  7, 7, 4
    Auxiliary basis highest AM E, G, H:  7, 7, 5
    Onebody   basis highest AM E, G, H:  7, 7, 5
    Solid Harmonics ordering:            gaussian

*** tstart() called on d-16-12-3
*** at Mon Jan 22 12:02:45 2024

   => Loading Basis Set <=

    Name: JUN-CC-PVDZ
    Role: ORBITAL
    Keyword: BASIS
    atoms 1     entry B          line   130 file /home/gridsan/tfroembgen/.conda/envs/psi4test/share/psi4/basis/jun-cc-pvdz.gbs 
    atoms 2-5   entry F          line   266 file /home/gridsan/tfroembgen/.conda/envs/psi4test/share/psi4/basis/jun-cc-pvdz.gbs 
    atoms 6-59  entry C          line   164 file /home/gridsan/tfroembgen/.conda/envs/psi4test/share/psi4/basis/jun-cc-pvdz.gbs 
    atoms 60-77 entry H          line    36 file /home/gridsan/tfroembgen/.conda/envs/psi4test/share/psi4/basis/jun-cc-pvdz.gbs 


         ---------------------------------------------------------
                                   SCF
               by Justin Turney, Rob Parrish, Andy Simmonett
                          and Daniel G. A. Smith
                              RHF Reference
                       12 Threads,  30517 MiB Core
         ---------------------------------------------------------

  ==> Geometry <==

    Molecular point group: c1
    Full point group: C1

    Geometry (in Angstrom), charge = -1, multiplicity = 1:

       Center              X                  Y                   Z               Mass       
    ------------   -----------------  -----------------  -----------------  -----------------
         B           -0.000046449334     0.000336519434     4.245501860366    11.009305360000
         F           -1.153597449334     0.000047519434     5.061148860366    18.998403162730
         F            1.153660550666    -0.000581480566     5.061148860366    18.998403162730
         F           -0.000019449334    -1.153637480566     3.429867860366    18.998403162730
         F           -0.000019449334     1.153977519434     3.429867860366    18.998403162730
      Gh(C)           1.225311925931     0.707538180353    -0.548354512350    12.000000000000
      Gh(C)           1.225323886559    -0.707539003137    -0.560685321921    12.000000000000
      Gh(C)          -0.000006123424     1.414965805524    -0.561218945441    12.000000000000
      Gh(C)           2.456448784457     1.418327778612    -0.545467654950    12.000000000000
      Gh(C)           0.000010857787    -1.414976607201    -0.551019388117    12.000000000000
      Gh(C)          -1.225300918401     0.707545265418    -0.546102992028    12.000000000000
      Gh(C)           2.456437785828    -1.418323412447    -0.562930478778    12.000000000000
      Gh(C)          -0.000001302470     2.836800922715    -0.563622495575    12.000000000000
      Gh(C)           3.681826727978     0.709317847435    -0.562581688980    12.000000000000
      Gh(C)           2.455120079373     2.834223552923    -0.562684245940    12.000000000000
      Gh(C)           3.681821135726    -0.709333947995    -0.546509204961    12.000000000000
      Gh(C)          -1.225313568180    -0.707527624110    -0.559612560494    12.000000000000
      Gh(C)           1.226699611710     3.543469375428    -0.546325173031    12.000000000000
      Gh(C)           0.000004815365    -2.836782247802    -0.546171220495    12.000000000000
      Gh(C)          -2.456436002341     1.418316809719    -0.546067596182    12.000000000000
      Gh(C)           2.455123448287    -2.834230137155    -0.546661113329    12.000000000000
      Gh(C)          -1.226714334082     3.543468955184    -0.546221839811    12.000000000000
      Gh(C)           4.914517325709     1.427172763923    -0.556101005950    12.000000000000
      Gh(C)           3.693150221984     3.542795183979    -0.556051206314    12.000000000000
      Gh(C)          -2.456437569560    -1.418313389406    -0.562955516902    12.000000000000
      Gh(C)           1.226704872451    -3.543474350473    -0.562295303780    12.000000000000
      Gh(C)          -2.455125368000     2.834216554068    -0.562677869594    12.000000000000
      Gh(C)           4.914524411290    -1.427187018510    -0.553128263216    12.000000000000
      Gh(C)           1.221424644206     4.970133956694    -0.552989828956    12.000000000000
      Gh(C)           4.893008259828     2.825187891460    -0.554884337591    12.000000000000
      Gh(C)          -1.226696977981    -3.543471105643    -0.562028099371    12.000000000000
      Gh(C)          -3.681818946018     0.709324858166    -0.562569008500    12.000000000000
      Gh(C)           3.693147131658    -3.542801449957    -0.553010372655    12.000000000000
      Gh(C)          -1.221432221486     4.970128189296    -0.552806333583    12.000000000000
      Gh(C)           6.134771003434     0.680547838539    -0.555331231400    12.000000000000
      Gh(C)           3.656788911118     4.972953135001    -0.555142568531    12.000000000000
      Gh(C)          -2.455126877226    -2.834215201627    -0.546905471127    12.000000000000
      Gh(C)          -3.681819148553    -0.709325812035    -0.546391583383    12.000000000000
      Gh(C)           4.893012648421    -2.825200214198    -0.554273185696    12.000000000000
      Gh(C)          -0.000001042605     5.650447257466    -0.554037642290    12.000000000000
      Gh(C)           6.134775142840    -0.680554962641    -0.554065910885    12.000000000000
      Gh(C)           2.478131513363     5.653576642765    -0.553853788881    12.000000000000
      Gh(C)           1.221422435245    -4.970127163499    -0.555789325979    12.000000000000
      Gh(C)          -3.693162353457     3.542796845626    -0.555885698855    12.000000000000
      Gh(C)          -1.221428490437    -4.970118412162    -0.555902087811    12.000000000000
      Gh(C)          -4.914521777434     1.427175338429    -0.556024060943    12.000000000000
      Gh(C)           3.656787050187    -4.972955334806    -0.553692067997    12.000000000000
      Gh(C)          -2.478138499598     5.653574313962    -0.553569263873    12.000000000000
      Gh(C)          -3.693141708056    -3.542790327545    -0.553126498811    12.000000000000
      Gh(C)          -4.914512452545    -1.427181108594    -0.553093566042    12.000000000000
      Gh(C)          -0.000005978418    -5.650438395580    -0.554433146411    12.000000000000
      Gh(C)          -4.893020453593     2.825188490353    -0.554894419452    12.000000000000
      Gh(C)           2.478126023806    -5.653573652455    -0.554782668790    12.000000000000
      Gh(C)          -3.656798679750     4.972956073475    -0.554965888157    12.000000000000
      Gh(C)          -4.892999448349    -2.825191875626    -0.554427221394    12.000000000000
      Gh(C)          -2.478128467575    -5.653566278573    -0.555057856437    12.000000000000
      Gh(C)          -6.134770472823     0.680548657690    -0.555356783103    12.000000000000
      Gh(C)          -3.656788802681    -4.972944131537    -0.553906355814    12.000000000000
      Gh(C)          -6.134765012405    -0.680554024048    -0.554086386680    12.000000000000
      Gh(H)           5.835288526324     3.369275786388    -0.550525011929     1.007825032230
      Gh(H)           7.073859203255     1.228217140333    -0.554869588007     1.007825032230
      Gh(H)           4.600663294682     5.512380693887    -0.554637367779     1.007825032230
      Gh(H)           5.835283417813    -3.369306165295    -0.558727653010     1.007825032230
      Gh(H)          -0.000012120798     6.738530565570    -0.558386887298     1.007825032230
      Gh(H)           7.073861202338    -1.228227051310    -0.554574648979     1.007825032230
      Gh(H)           2.473313762307     6.740684182828    -0.554320509812     1.007825032230
      Gh(H)           4.600668521889    -5.512376237742    -0.554102065166     1.007825032230
      Gh(H)          -2.473318650030     6.740681611040    -0.554019163187     1.007825032230
      Gh(H)          -0.000010237720    -6.738528285018    -0.549903461427     1.007825032230
      Gh(H)          -5.835301883836     3.369270841730    -0.550388989780     1.007825032230
      Gh(H)           2.473307954339    -6.740685482995    -0.554212338365     1.007825032230
      Gh(H)          -4.600674810700     5.512377918037    -0.554472039456     1.007825032230
      Gh(H)          -5.835279476327    -3.369289072346    -0.559006958891     1.007825032230
      Gh(H)          -2.473300316932    -6.740679186706    -0.554661654909     1.007825032230
      Gh(H)          -7.073857736260     1.228220364274    -0.554953579488     1.007825032230
      Gh(H)          -4.600673755577    -5.512362778353    -0.554274373188     1.007825032230
      Gh(H)          -7.073856903901    -1.228220740543    -0.554669505445     1.007825032230

  Running in c1 symmetry.

  Rotational constants: A =      0.00178  B =      0.00178  C =      0.00110 [cm^-1]
  Rotational constants: A =     53.33818  B =     53.33139  C =     33.02250 [MHz]
  Nuclear repulsion =  178.879482610381274

  Charge       = -1
  Multiplicity = 1
  Electrons    = 42
  Nalpha       = 21
  Nbeta        = 21

  ==> Algorithm <==

  SCF Algorithm Type is DF.
  DIIS enabled.
  MOM disabled.
  Fractional occupation disabled.
  Guess Type is SAD.
  Energy threshold   = 1.00e-08
  Density threshold  = 1.00e-08
  Integral threshold = 1.00e-12

  ==> Primary Basis <==

  Basis Set: JUN-CC-PVDZ
    Blend: JUN-CC-PVDZ
    Number of shells: 526
    Number of basis functions: 1152
    Number of Cartesian functions: 1211
    Spherical Harmonics?: true
    Max angular momentum: 2

   => Loading Basis Set <=

    Name: (JUN-CC-PVDZ AUX)
    Role: JKFIT
    Keyword: DF_BASIS_SCF
    atoms 1     entry B          line    90 file /home/gridsan/tfroembgen/.conda/envs/psi4test/share/psi4/basis/jun-cc-pvdz-jkfit.gbs 
    atoms 2-5   entry F          line   314 file /home/gridsan/tfroembgen/.conda/envs/psi4test/share/psi4/basis/jun-cc-pvdz-jkfit.gbs 
    atoms 6-59  entry C          line   146 file /home/gridsan/tfroembgen/.conda/envs/psi4test/share/psi4/basis/jun-cc-pvdz-jkfit.gbs 
    atoms 60-77 entry H          line    70 file /home/gridsan/tfroembgen/.conda/envs/psi4test/share/psi4/basis/jun-cc-pvdz-jkfit.gbs 

  ==> Integral Setup <==

  ==> DiskDFJK: Density-Fitted J/K Matrices <==

    J tasked:                  Yes
    K tasked:                  Yes
    wK tasked:                  No
    OpenMP threads:             12
    Integrals threads:          12
    Memory [MiB]:            22888
    Algorithm:                Core
    Integral Cache:           LOAD
    Schwarz Cutoff:          1E-12
    Fitting Condition:       1E-10

   => Auxiliary Basis Set <=

  Basis Set: (JUN-CC-PVDZ AUX)
    Blend: JUN-CC-PVDZ-JKFIT
    Number of shells: 1755
    Number of basis functions: 5075
    Number of Cartesian functions: 5819
    Spherical Harmonics?: true
    Max angular momentum: 3

  Minimum eigenvalue in the overlap matrix is 8.0667596954E-10.
  Reciprocal condition number of the overlap matrix is 3.5433180859E-11.
    Using canonical orthogonalization.
  Overall, 14 of 1152 possible MOs eliminated.


  ==> Pre-Iterations <==

  SCF Guess: Superposition of Atomic Densities via on-the-fly atomic UHF (no occupation information).

   -------------------------
    Irrep   Nso     Nmo    
   -------------------------
     A       1152    1138 
   -------------------------
    Total    1152    1138
   -------------------------

  ==> Iterations <==

                           Total Energy        Delta E     RMS |[F,P]|

   @DF-RHF iter SAD:  -421.23044717483367   -4.21230e+02   0.00000e+00 
   @DF-RHF iter   1:  -422.65035885006887   -1.41991e+00   5.30237e-04 DIIS/ADIIS
   @DF-RHF iter   2:  -422.73323404975326   -8.28752e-02   3.23383e-04 DIIS/ADIIS
   @DF-RHF iter   3:  -422.77179462981320   -3.85606e-02   1.74328e-05 DIIS
   @DF-RHF iter   4:  -422.77215600210275   -3.61372e-04   2.76402e-06 DIIS
   @DF-RHF iter   5:  -422.77216468730063   -8.68520e-06   7.09777e-07 DIIS
   @DF-RHF iter   6:  -422.77216525800372   -5.70703e-07   1.46013e-07 DIIS
   @DF-RHF iter   7:  -422.77216527951350   -2.15098e-08   1.59484e-08 DIIS
   @DF-RHF iter   8:  -422.77216527974593   -2.32433e-10   6.44550e-09 DIIS
  Energy and wave function converged.


  ==> Post-Iterations <==

    Orbital Energies [Eh]
    ---------------------

    Doubly Occupied:                                                      

       1A    -26.067058     2A    -26.067036     3A    -26.067019  
       4A    -26.066855     5A     -7.539034     6A     -1.410833  
       7A     -1.351192     8A     -1.351130     9A     -1.350933  
      10A     -0.602110    11A     -0.528308    12A     -0.528296  
      13A     -0.528222    14A     -0.447172    15A     -0.447132  
      16A     -0.408400    17A     -0.408346    18A     -0.408299  
      19A     -0.384931    20A     -0.384817    21A     -0.384759  

    Virtual:                                                              

      22A      0.087337    23A      0.087987    24A      0.088164  
      25A      0.095178    26A      0.095196    27A      0.106770  
      28A      0.107398    29A      0.114019    30A      0.123118  
      31A      0.123134    32A      0.128211    33A      0.128241  
      34A      0.140783    35A      0.141142    36A      0.141143  
      37A      0.143418    38A      0.144455    39A      0.144626  
      40A      0.144669    41A      0.154008    42A      0.156373  
      43A      0.156395    44A      0.162597    45A      0.162608  
      46A      0.165228    47A      0.171771    48A      0.175074  
      49A      0.176623    50A      0.177256    51A      0.177373  
      52A      0.181103    53A      0.183983    54A      0.185048  
      55A      0.185508    56A      0.185591    57A      0.186099  
      58A      0.191670    59A      0.191906    60A      0.197471  
      61A      0.197805    62A      0.197973    63A      0.198291  
      64A      0.200899    65A      0.200917    66A      0.203027  
      67A      0.208647    68A      0.208771    69A      0.210864  
      70A      0.210900    71A      0.216334    72A      0.217115  
      73A      0.220597    74A      0.220657    75A      0.221512  
      76A      0.223156    77A      0.225154    78A      0.228004  
      79A      0.228114    80A      0.230854    81A      0.231001  
      82A      0.231714    83A      0.232695    84A      0.238948  
      85A      0.242245    86A      0.242271    87A      0.243945  
      88A      0.244087    89A      0.248743    90A      0.251473  
      91A      0.256245    92A      0.257593    93A      0.260666  
      94A      0.261704    95A      0.262983    96A      0.263407  
      97A      0.264842    98A      0.265501    99A      0.266700  
     100A      0.266738   101A      0.272568   102A      0.272894  
     103A      0.276237   104A      0.277188   105A      0.280852  
     106A      0.280912   107A      0.285649   108A      0.285670  
     109A      0.288406   110A      0.288543   111A      0.291704  
     112A      0.291924   113A      0.295698   114A      0.296923  
     115A      0.297735   116A      0.299426   117A      0.299454  
     118A      0.302596   119A      0.303510   120A      0.304590  
     121A      0.307910   122A      0.312854   123A      0.314940  
     124A      0.320727   125A      0.321486   126A      0.323851  
     127A      0.324806   128A      0.324906   129A      0.325076  
     130A      0.326785   131A      0.327132   132A      0.329114  
     133A      0.335253   134A      0.335662   135A      0.341877  
     136A      0.342284   137A      0.345514   138A      0.347042  
     139A      0.348869   140A      0.349175   141A      0.349788  
     142A      0.350358   143A      0.352228   144A      0.352234  
     145A      0.353866   146A      0.353982   147A      0.360674  
     148A      0.364040   149A      0.371502   150A      0.374397  
     151A      0.376943   152A      0.377122   153A      0.379667  
     154A      0.379725   155A      0.383772   156A      0.388586  
     157A      0.388909   158A      0.391879   159A      0.395699  
     160A      0.395945   161A      0.397101   162A      0.399985  
     163A      0.401072   164A      0.402729   165A      0.403460  
     166A      0.404871   167A      0.406936   168A      0.408205  
     169A      0.411807   170A      0.411975   171A      0.418620  
     172A      0.420176   173A      0.424900   174A      0.427725  
     175A      0.428108   176A      0.430409   177A      0.431247  
     178A      0.433976   179A      0.435720   180A      0.436843  
     181A      0.436976   182A      0.437087   183A      0.438944  
     184A      0.439275   185A      0.441273   186A      0.442644  
     187A      0.447403   188A      0.450287   189A      0.450951  
     190A      0.451524   191A      0.454988   192A      0.455422  
     193A      0.456381   194A      0.459024   195A      0.459696  
     196A      0.461404   197A      0.466669   198A      0.472944  
     199A      0.474337   200A      0.474584   201A      0.482207  
     202A      0.484135   203A      0.485692   204A      0.485871  
     205A      0.486976   206A      0.487686   207A      0.487855  
     208A      0.492801   209A      0.497695   210A      0.498429  
     211A      0.498642   212A      0.502849   213A      0.503183  
     214A      0.504877   215A      0.505875   216A      0.510516  
     217A      0.511468   218A      0.511676   219A      0.512421  
     220A      0.513419   221A      0.514245   222A      0.516341  
     223A      0.518748   224A      0.519826   225A      0.520932  
     226A      0.525511   227A      0.525837   228A      0.529019  
     229A      0.529543   230A      0.530104   231A      0.530444  
     232A      0.532456   233A      0.535513   234A      0.542616  
     235A      0.545424   236A      0.548808   237A      0.552014  
     238A      0.553461   239A      0.555309   240A      0.556432  
     241A      0.557458   242A      0.559584   243A      0.559606  
     244A      0.561139   245A      0.562369   246A      0.563573  
     247A      0.572674   248A      0.573394   249A      0.573533  
     250A      0.576904   251A      0.577025   252A      0.577314  
     253A      0.578173   254A      0.584590   255A      0.588099  
     256A      0.589610   257A      0.590689   258A      0.591710  
     259A      0.592931   260A      0.595408   261A      0.598640  
     262A      0.599418   263A      0.601203   264A      0.601232  
     265A      0.602001   266A      0.603854   267A      0.606819  
     268A      0.610358   269A      0.615893   270A      0.616565  
     271A      0.619356   272A      0.624647   273A      0.624702  
     274A      0.628101   275A      0.634615   276A      0.635038  
     277A      0.640442   278A      0.641522   279A      0.642699  
     280A      0.645572   281A      0.646157   282A      0.650191  
     283A      0.650774   284A      0.653449   285A      0.653519  
     286A      0.653857   287A      0.661839   288A      0.664686  
     289A      0.668129   290A      0.669295   291A      0.669691  
     292A      0.674866   293A      0.679254   294A      0.680982  
     295A      0.682849   296A      0.684652   297A      0.685553  
     298A      0.685941   299A      0.688736   300A      0.689597  
     301A      0.690414   302A      0.690635   303A      0.695218  
     304A      0.705500   305A      0.707215   306A      0.712433  
     307A      0.714618   308A      0.715279   309A      0.716667  
     310A      0.716771   311A      0.717974   312A      0.719384  
     313A      0.720325   314A      0.721144   315A      0.727822  
     316A      0.730827   317A      0.735144   318A      0.739245  
     319A      0.740263   320A      0.744866   321A      0.745928  
     322A      0.750044   323A      0.751608   324A      0.752891  
     325A      0.753434   326A      0.757978   327A      0.759303  
     328A      0.760061   329A      0.770752   330A      0.772358  
     331A      0.772796   332A      0.776603   333A      0.778702  
     334A      0.788110   335A      0.788389   336A      0.789755  
     337A      0.791476   338A      0.796547   339A      0.799443  
     340A      0.802182   341A      0.805272   342A      0.806180  
     343A      0.809661   344A      0.813343   345A      0.816212  
     346A      0.816462   347A      0.817311   348A      0.818902  
     349A      0.820930   350A      0.830751   351A      0.831454  
     352A      0.832840   353A      0.833491   354A      0.842222  
     355A      0.845789   356A      0.846867   357A      0.847455  
     358A      0.848884   359A      0.853480   360A      0.853693  
     361A      0.856543   362A      0.859402   363A      0.860143  
     364A      0.864267   365A      0.865105   366A      0.865706  
     367A      0.869551   368A      0.869833   369A      0.874131  
     370A      0.876230   371A      0.879192   372A      0.879743  
     373A      0.880096   374A      0.881270   375A      0.881939  
     376A      0.882417   377A      0.882945   378A      0.886118  
     379A      0.895203   380A      0.906581   381A      0.907488  
     382A      0.907685   383A      0.922418   384A      0.922466  
     385A      0.924100   386A      0.953607   387A      0.953640  
     388A      0.956462   389A      0.957220   390A      0.959137  
     391A      0.963359   392A      0.968895   393A      0.969310  
     394A      0.973403   395A      0.973678   396A      0.977450  
     397A      0.981293   398A      0.994569   399A      0.998468  
     400A      0.998726   401A      1.013951   402A      1.016236  
     403A      1.023491   404A      1.030191   405A      1.032834  
     406A      1.032973   407A      1.044215   408A      1.044405  
     409A      1.052109   410A      1.055902   411A      1.064277  
     412A      1.064280   413A      1.088631   414A      1.088985  
     415A      1.114858   416A      1.115497   417A      1.135327  
     418A      1.135677   419A      1.136957   420A      1.137247  
     421A      1.137428   422A      1.150063   423A      1.150124  
     424A      1.172281   425A      1.173616   426A      1.173832  
     427A      1.183381   428A      1.238675   429A      1.239080  
     430A      1.240747   431A      1.241011   432A      1.241372  
     433A      1.254713   434A      1.254865   435A      1.256193  
     436A      1.276007   437A      1.276320   438A      1.298309  
     439A      1.298425   440A      1.299477   441A      1.304305  
     442A      1.313972   443A      1.356641   444A      1.358056  
     445A      1.371247   446A      1.378083   447A      1.378451  
     448A      1.385326   449A      1.385508   450A      1.387787  
     451A      1.398421   452A      1.398576   453A      1.409587  
     454A      1.413172   455A      1.437731   456A      1.451990  
     457A      1.452116   458A      1.493961   459A      1.520881  
     460A      1.528715   461A      1.531790   462A      1.546021  
     463A      1.547182   464A      1.553687   465A      1.554125  
     466A      1.556152   467A      1.558198   468A      1.566704  
     469A      1.568665   470A      1.631917   471A      1.638242  
     472A      1.638541   473A      1.641645   474A      1.644307  
     475A      1.653849   476A      1.654200   477A      1.657824  
     478A      1.661122   479A      1.712412   480A      1.720271  
     481A      1.724419   482A      1.736328   483A      1.738096  
     484A      1.743298   485A      1.753856   486A      1.754668  
     487A      1.768133   488A      1.770213   489A      1.772237  
     490A      1.774450   491A      1.785919   492A      1.821686  
     493A      1.822588   494A      1.823370   495A      1.823632  
     496A      1.826095   497A      1.828756   498A      1.833607  
     499A      1.834213   500A      1.847269   501A      1.853508  
     502A      1.853883   503A      1.855347   504A      1.868941  
     505A      1.869970   506A      1.873995   507A      1.875399  
     508A      1.889255   509A      1.895606   510A      1.905610  
     511A      1.906047   512A      1.906416   513A      1.906768  
     514A      1.907807   515A      1.908872   516A      1.909827  
     517A      1.913487   518A      1.914758   519A      1.916431  
     520A      1.922441   521A      1.924915   522A      1.927852  
     523A      1.928716   524A      1.937351   525A      1.937974  
     526A      1.953718   527A      1.959305   528A      1.961659  
     529A      1.962098   530A      1.963232   531A      1.965159  
     532A      1.968141   533A      1.970264   534A      1.974725  
     535A      1.978053   536A      1.986590   537A      1.987160  
     538A      1.990391   539A      1.992595   540A      1.994341  
     541A      1.994503   542A      1.998320   543A      1.999759  
     544A      2.007145   545A      2.008893   546A      2.016529  
     547A      2.017027   548A      2.017585   549A      2.019960  
     550A      2.022523   551A      2.024119   552A      2.031876  
     553A      2.033097   554A      2.043768   555A      2.049481  
     556A      2.049905   557A      2.050834   558A      2.053315  
     559A      2.054923   560A      2.058454   561A      2.067738  
     562A      2.068253   563A      2.068830   564A      2.073201  
     565A      2.073252   566A      2.074307   567A      2.075437  
     568A      2.079053   569A      2.080265   570A      2.081970  
     571A      2.083390   572A      2.083854   573A      2.086843  
     574A      2.094074   575A      2.104712   576A      2.108302  
     577A      2.108962   578A      2.116096   579A      2.149409  
     580A      2.151776   581A      2.153020   582A      2.157122  
     583A      2.159100   584A      2.160448   585A      2.163667  
     586A      2.165057   587A      2.168777   588A      2.173042  
     589A      2.173643   590A      2.174870   591A      2.180816  
     592A      2.194749   593A      2.195578   594A      2.196210  
     595A      2.200886   596A      2.202406   597A      2.209858  
     598A      2.210558   599A      2.215680   600A      2.216656  
     601A      2.218138   602A      2.218464   603A      2.221096  
     604A      2.223098   605A      2.226983   606A      2.227767  
     607A      2.228247   608A      2.230134   609A      2.230473  
     610A      2.232835   611A      2.235128   612A      2.236607  
     613A      2.238691   614A      2.239361   615A      2.240371  
     616A      2.242431   617A      2.242752   618A      2.243493  
     619A      2.247298   620A      2.248037   621A      2.249122  
     622A      2.255439   623A      2.255595   624A      2.256543  
     625A      2.257603   626A      2.259244   627A      2.260825  
     628A      2.262953   629A      2.263309   630A      2.264439  
     631A      2.267511   632A      2.268369   633A      2.270219  
     634A      2.270421   635A      2.272500   636A      2.276212  
     637A      2.277137   638A      2.286026   639A      2.292170  
     640A      2.299819   641A      2.302793   642A      2.303770  
     643A      2.314329   644A      2.315091   645A      2.319042  
     646A      2.323824   647A      2.325952   648A      2.328312  
     649A      2.330220   650A      2.331393   651A      2.338595  
     652A      2.342720   653A      2.350016   654A      2.350891  
     655A      2.352228   656A      2.353338   657A      2.353823  
     658A      2.354414   659A      2.364444   660A      2.364689  
     661A      2.370511   662A      2.370989   663A      2.376681  
     664A      2.387451   665A      2.388334   666A      2.395843  
     667A      2.407721   668A      2.410665   669A      2.411866  
     670A      2.412339   671A      2.416631   672A      2.417238  
     673A      2.426929   674A      2.427105   675A      2.436772  
     676A      2.440461   677A      2.443321   678A      2.448348  
     679A      2.448909   680A      2.452206   681A      2.452456  
     682A      2.452882   683A      2.457618   684A      2.459174  
     685A      2.459281   686A      2.464405   687A      2.470642  
     688A      2.471362   689A      2.473340   690A      2.474344  
     691A      2.475050   692A      2.475678   693A      2.482891  
     694A      2.488474   695A      2.490498   696A      2.497250  
     697A      2.500818   698A      2.501153   699A      2.509280  
     700A      2.516053   701A      2.525778   702A      2.526134  
     703A      2.533749   704A      2.535763   705A      2.539312  
     706A      2.541134   707A      2.541795   708A      2.548231  
     709A      2.550958   710A      2.554089   711A      2.559127  
     712A      2.561168   713A      2.564087   714A      2.566789  
     715A      2.568437   716A      2.573464   717A      2.581178  
     718A      2.583579   719A      2.583662   720A      2.589478  
     721A      2.592624   722A      2.593243   723A      2.602614  
     724A      2.604825   725A      2.608347   726A      2.615672  
     727A      2.615955   728A      2.621382   729A      2.626965  
     730A      2.629328   731A      2.630184   732A      2.631060  
     733A      2.631231   734A      2.638539   735A      2.639390  
     736A      2.640302   737A      2.644619   738A      2.647098  
     739A      2.651484   740A      2.660468   741A      2.661726  
     742A      2.684504   743A      2.684704   744A      2.693897  
     745A      2.704288   746A      2.704329   747A      2.704656  
     748A      2.710627   749A      2.710734   750A      2.711496  
     751A      2.713650   752A      2.720427   753A      2.726276  
     754A      2.732260   755A      2.732964   756A      2.733424  
     757A      2.736637   758A      2.737733   759A      2.740315  
     760A      2.743306   761A      2.754901   762A      2.758090  
     763A      2.769862   764A      2.771006   765A      2.779842  
     766A      2.781041   767A      2.785076   768A      2.788949  
     769A      2.793490   770A      2.796150   771A      2.796342  
     772A      2.797029   773A      2.798054   774A      2.803554  
     775A      2.803630   776A      2.822718   777A      2.825117  
     778A      2.825982   779A      2.828048   780A      2.830070  
     781A      2.832763   782A      2.837525   783A      2.838875  
     784A      2.838938   785A      2.848074   786A      2.864406  
     787A      2.867736   788A      2.890245   789A      2.900015  
[...]
     715A      1.409663   716A      1.413749   717A      1.414404  
     718A      1.415664   719A      1.420245   720A      1.423307  
     721A      1.429658   722A      1.430303   723A      1.436182  
     724A      1.436719   725A      1.437634   726A      1.440369  
     727A      1.440634   728A      1.444293   729A      1.445224  
     730A      1.449445   731A      1.450049   732A      1.451023  
     733A      1.451069   734A      1.468047   735A      1.471699  
     736A      1.477616   737A      1.480762   738A      1.517137  
     739A      1.517405   740A      1.521909   741A      1.522154  
     742A      1.534288   743A      1.552420   744A      1.581213  
     745A      1.601394   746A      1.601986   747A      1.604275  
     748A      1.610163   749A      1.611575   750A      1.613129  
     751A      1.613405   752A      1.613639   753A      1.620802  
     754A      1.623966   755A      1.625350   756A      1.634556  
     757A      1.634751   758A      1.641537   759A      1.642238  
     760A      1.643650   761A      1.644574   762A      1.645845  
     763A      1.646310   764A      1.650540   765A      1.661491  
     766A      1.661676   767A      1.666332   768A      1.667511  
     769A      1.673791   770A      1.676818   771A      1.676934  
     772A      1.677250   773A      1.677299   774A      1.678417  
     775A      1.684249   776A      1.687362   777A      1.687438  
     778A      1.696393   779A      1.699177   780A      1.699412  
     781A      1.699918   782A      1.701451   783A      1.704830  
     784A      1.704946   785A      1.715920   786A      1.716195  
     787A      1.723192   788A      1.741911   789A      1.751832  
     790A      1.760722   791A      1.760999   792A      1.761147  
     793A      1.761708   794A      1.765805   795A      1.769224  
     796A      1.774792   797A      1.777520   798A      1.787809  
     799A      1.792445   800A      1.793120   801A      1.816868  
     802A      1.817794   803A      1.818454   804A      1.824925  
     805A      1.825023   806A      1.830115   807A      1.831914  
     808A      1.835090   809A      1.842497   810A      1.842892  
     811A      1.851037   812A      1.861072   813A      1.861594  
     814A      1.864870   815A      1.867244   816A      1.869665  
     817A      1.870861   818A      1.873053   819A      1.880356  
     820A      1.880409   821A      1.896574   822A      1.896680  
     823A      1.899296   824A      1.903313   825A      1.903766  
     826A      1.908441   827A      1.909070   828A      1.916490  
     829A      1.916646   830A      1.918017   831A      1.919480  
     832A      1.919862   833A      1.921212   834A      1.922252  
     835A      1.922297   836A      1.940925   837A      1.942410  
     838A      1.942649   839A      1.944433   840A      1.947506  
     841A      1.947944   842A      1.955306   843A      1.957382  
     844A      1.957648   845A      1.958153   846A      1.960158  
     847A      1.975654   848A      1.983793   849A      1.985562  
     850A      1.993545   851A      1.997238   852A      1.999106  
     853A      2.001244   854A      2.007563   855A      2.008744  
     856A      2.012671   857A      2.014112   858A      2.028274  
     859A      2.030280   860A      2.030603   861A      2.031138  
     862A      2.031921   863A      2.032074   864A      2.033680  
     865A      2.048653   866A      2.053007   867A      2.053815  
     868A      2.059652   869A      2.061693   870A      2.062550  
     871A      2.063134   872A      2.070360   873A      2.073718  
     874A      2.074369   875A      2.076976   876A      2.078817  
     877A      2.080943   878A      2.086506   879A      2.089026  
     880A      2.092446   881A      2.093232   882A      2.095234  
     883A      2.097200   884A      2.098055   885A      2.101405  
     886A      2.102302   887A      2.108942   888A      2.109383  
     889A      2.110623   890A      2.111786   891A      2.113233  
     892A      2.117410   893A      2.119987   894A      2.120294  
     895A      2.121463   896A      2.121916   897A      2.122336  
     898A      2.128299   899A      2.129611   900A      2.134687  
     901A      2.136356   902A      2.136437   903A      2.138064  
     904A      2.143500   905A      2.143611   906A      2.156699  
     907A      2.160298   908A      2.161553   909A      2.163399  
     910A      2.163479   911A      2.172182   912A      2.179592  
     913A      2.180422   914A      2.191471   915A      2.191729  
     916A      2.192653   917A      2.194709   918A      2.196085  
     919A      2.196358   920A      2.203379   921A      2.219816  
     922A      2.220611   923A      2.220860   924A      2.228597  
     925A      2.229337   926A      2.232532   927A      2.234632  
     928A      2.243557   929A      2.244523   930A      2.244816  
     931A      2.245044   932A      2.248232   933A      2.260456  
     934A      2.260749   935A      2.270478   936A      2.270760  
     937A      2.272484   938A      2.273029   939A      2.281139  
     940A      2.300671   941A      2.306768   942A      2.312782  
     943A      2.313734   944A      2.322814   945A      2.328224  
     946A      2.331345   947A      2.331475   948A      2.332968  
     949A      2.336232   950A      2.351217   951A      2.352796  
     952A      2.353236   953A      2.353854   954A      2.367023  
     955A      2.367903   956A      2.374906   957A      2.383984  
     958A      2.416228   959A      2.424158   960A      2.424591  
     961A      2.424660   962A      2.436555   963A      2.441587  
     964A      2.441855   965A      2.470502   966A      2.474154  
     967A      2.475291   968A      2.485908   969A      2.486565  
     970A      2.502519   971A      2.520406   972A      2.530201  
     973A      2.530988   974A      2.545447   975A      2.546492  
     976A      2.547359   977A      2.554569   978A      2.554646  
     979A      2.555007   980A      2.560197   981A      2.560355  
     982A      2.573167   983A      2.573260   984A      2.575336  
     985A      2.575744   986A      2.586115   987A      2.586243  
     988A      2.587727   989A      2.590240   990A      2.591556  
     991A      2.608718   992A      2.624188   993A      2.624621  
     994A      2.629209   995A      2.631758   996A      2.632642  
     997A      2.641695   998A      2.641827   999A      2.651650  
    1000A      2.651912  1001A      2.656933  1002A      2.683433  
    1003A      2.684200  1004A      2.685351  1005A      2.688001  
    1006A      2.702700  1007A      2.702878  1008A      2.713214  
    1009A      2.713308  1010A      2.718977  1011A      2.719040  
    1012A      2.723801  1013A      2.724056  1014A      2.739932  
    1015A      2.752938  1016A      2.754021  1017A      2.777758  
    1018A      2.795147  1019A      2.795276  1020A      2.817345  
    1021A      2.827216  1022A      2.828913  1023A      2.831422  
    1024A      2.845280  1025A      2.851059  1026A      2.854436  
    1027A      2.856232  1028A      2.858526  1029A      2.859831  
    1030A      2.861856  1031A      2.870837  1032A      2.876281  
    1033A      2.917683  1034A      2.919167  1035A      2.925554  
    1036A      2.933894  1037A      2.934449  1038A      2.950736  
    1039A      2.952145  1040A      2.963854  1041A      3.010699  
    1042A      3.011011  1043A      3.012217  1044A      3.030402  
    1045A      3.064487  1046A      3.064772  1047A      3.070890  
    1048A      3.071437  1049A      3.111228  1050A      3.112111  
    1051A      3.129308  1052A      3.130095  1053A      3.130873  
    1054A      3.137665  1055A      3.147472  1056A      3.147614  
    1057A      3.147963  1058A      3.149557  1059A      3.149581  
    1060A      3.158962  1061A      3.159897  1062A      3.166469  
    1063A      3.167010  1064A      3.191964  1065A      3.211221  
    1066A      3.219915  1067A      3.238685  1068A      3.275211  
    1069A      3.277162  1070A      3.277290  1071A      3.282914  
    1072A      3.284434  1073A      3.417354  1074A      3.417759  
    1075A      3.443602  1076A      3.482744  1077A      3.486265  
    1078A      3.551030  1079A      3.579032  1080A      3.580659  
    1081A      3.594851  1082A      3.627552  1083A      3.629868  
    1084A      3.663426  1085A      3.671172  1086A      3.769575  
    1087A      3.784298  1088A      3.785105  1089A      3.871269  
    1090A      3.871293  1091A      3.913643  1092A      3.913913  
    1093A      3.977116  1094A      4.011177  1095A      4.040744  
    1096A      4.054719  1097A      4.086192  1098A      4.228881  
    1099A      4.298265  1100A      4.306530  1101A      4.377657  
    1102A      5.751453  1103A      5.752220  1104A      5.758042  
    1105A      5.758472  1106A      5.761634  1107A      5.762480  
    1108A      5.765253  1109A      5.766387  1110A      5.788160  
    1111A      5.793445  1112A      5.801691  1113A      6.023340  
    1114A      6.024203  1115A      6.025622  1116A      6.200325  
    1117A      6.330303  1118A      6.330554  1119A      6.382124  
    1120A      6.383228  1121A      6.383945  1122A      7.182062  
    1123A      7.248917  1124A      7.266415  1125A      7.276434  
    1126A      7.299773  1127A      7.310346  1128A      7.319888  
    1129A      7.324567  1130A      7.484401  1131A      7.533562  
    1132A      7.586043  1133A      7.694010  1134A     12.641095  
    1135A     42.917707  1136A     42.931760  1137A     42.938378  
    1138A     42.950223  

    Final Occupation by Irrep:
              A 
    DOCC [   171 ]
    NA   [   171 ]
    NB   [   171 ]

  @DF-RHF Final Energy: -2055.89310584189161

   => Energetics <=

    Nuclear Repulsion Energy =           6452.5568002797781446
    One-Electron Energy =              -15636.4673016220895079
    Two-Electron Energy =                7128.0173955004192976
    Total Energy =                      -2055.8931058418911562

Computation Completed


Properties will be evaluated at   0.000000,   0.000000,   0.000000 [a0]

Properties computed using the SCF density matrix


 Multipole Moments:

 ------------------------------------------------------------------------------------
     Multipole            Electronic (a.u.)      Nuclear  (a.u.)        Total (a.u.)
 ------------------------------------------------------------------------------------

 L = 1.  Multiply by 2.5417464519 to convert [e a0] to [Debye]
 Dipole X            :          0.0000666            0.0000112            0.0000778
 Dipole Y            :          0.0002584           -0.0000531            0.0002053
 Dipole Z            :        358.3581943         -358.3621356           -0.0039413
 Magnitude           :                                                    0.0039475

 ------------------------------------------------------------------------------------

*** tstop() called on d-16-12-3 at Mon Jan 22 12:08:43 2024
Module time:
	user time   =    2312.60 seconds =      38.54 minutes
	system time =      41.15 seconds =       0.69 minutes
	total time  =        242 seconds =       4.03 minutes
Total time:
	user time   =    6746.03 seconds =     112.43 minutes
	system time =     124.94 seconds =       2.08 minutes
	total time  =        729 seconds =      12.15 minutes
  Constructing Basis Sets for SAPT...

   => Loading Basis Set <=

    Name: (JUN-CC-PVDZ AUX)
    Role: RIFIT
    Keyword: DF_BASIS_SAPT
    atoms 1     entry B          line    56 file /home/gridsan/tfroembgen/.conda/envs/psi4test/share/psi4/basis/jun-cc-pvdz-ri.gbs 
    atoms 2-5   entry F          line   232 file /home/gridsan/tfroembgen/.conda/envs/psi4test/share/psi4/basis/jun-cc-pvdz-ri.gbs 
    atoms 6-59  entry C          line   100 file /home/gridsan/tfroembgen/.conda/envs/psi4test/share/psi4/basis/jun-cc-pvdz-ri.gbs 
    atoms 60-77 entry H          line    30 file /home/gridsan/tfroembgen/.conda/envs/psi4test/share/psi4/basis/jun-cc-pvdz-ri.gbs 

   => Loading Basis Set <=

    Name: (JUN-CC-PVDZ AUX)
    Role: JKFIT
    Keyword: DF_BASIS_ELST
    atoms 1     entry B          line    90 file /home/gridsan/tfroembgen/.conda/envs/psi4test/share/psi4/basis/jun-cc-pvdz-jkfit.gbs 
    atoms 2-5   entry F          line   314 file /home/gridsan/tfroembgen/.conda/envs/psi4test/share/psi4/basis/jun-cc-pvdz-jkfit.gbs 
    atoms 6-59  entry C          line   146 file /home/gridsan/tfroembgen/.conda/envs/psi4test/share/psi4/basis/jun-cc-pvdz-jkfit.gbs 
    atoms 60-77 entry H          line    70 file /home/gridsan/tfroembgen/.conda/envs/psi4test/share/psi4/basis/jun-cc-pvdz-jkfit.gbs 


  //>>>>>>>>>>>>>>>>>>>>>>>>>>>>>>>>>>>//
  //               SSAPT0              //
  //<<<<<<<<<<<<<<<<<<<<<<<<<<<<<<<<<<<//


*** tstart() called on d-16-12-3
*** at Mon Jan 22 12:08:44 2024

        SAPT0  
    Ed Hohenstein
     6 June 2009

      Orbital Information
  --------------------------
    NSO        =      1152
    NMO        =      1138
    NRI        =      4087
    NRI (Elst) =      5075
    NOCC A     =        21
    NOCC B     =       171
    FOCC A     =         5
    FOCC B     =        54
    NVIR A     =      1117
    NVIR B     =       967

    Elst10,r            =     0.011479476881 [Eh]
    Exch10              =     0.000270966576 [Eh]
    Exch10 (S^2)        =     0.000270973815 [Eh]

    Iter     Energy [mEh]          dE [mEh]         Residual      Time [s]
       1      -0.02951520       0.029515202       0.853701214           115
       2      -0.03411086       0.004595662       0.390918443           699
       3      -0.03509361       0.000982746       0.071107000           758
       4      -0.03500620      -0.000087412       0.018500244          1039
       5      -0.03498531      -0.000020888       0.002782367          1282
       6      -0.03498928       0.000003974       0.001028123          1310
       7      -0.03498990       0.000000618       0.000230640          1336
       8      -0.03498956      -0.000000341       0.000046820          1349
       9      -0.03498956       0.000000001       0.000008625          1361
      10      -0.03498957       0.000000008       0.000001373          1373
      11      -0.03498957      -0.000000000       0.000000262          1388

    CHF Iterations converged


    Iter     Energy [mEh]          dE [mEh]         Residual      Time [s]
       1     -10.89884287      10.898842869      55.297519923           286
       2      -7.33602316      -3.562819712       7.191299950           352
       3      -7.32414583      -0.011877329       2.443903317           402
       4      -7.49155579       0.167409964       0.582081040           421
       5      -7.50155217       0.009996382       0.171591639           437
       6      -7.49747652      -0.004075658       0.083438354           452
       7      -7.49640277      -0.001073744       0.034642825           466
       8      -7.49699688       0.000594110       0.017153543           481
       9      -7.49719250       0.000195618       0.009539123           496
      10      -7.49710184      -0.000090662       0.008263080           511
      11      -7.49704366      -0.000058176       0.004197100           526
      12      -7.49706063       0.000016968       0.001609651           541
      13      -7.49707607       0.000015440       0.000567511           556
      14      -7.49707529      -0.000000778       0.000184558           571
      15      -7.49707292      -0.000002372       0.000065084           586
      16      -7.49707324       0.000000322       0.000036651           602
      17      -7.49707354       0.000000302       0.000016912           618
      18      -7.49707354      -0.000000006       0.000005752           633
      19      -7.49707348      -0.000000056       0.000002500           648
      20      -7.49707347      -0.000000011       0.000001023           664
      21      -7.49707348       0.000000010       0.000000573           679

    CHF Iterations converged

    Ind20,r (A<-B)      =    -0.000034989571 [Eh]
    Ind20,r (B<-A)      =    -0.007497073480 [Eh]
    Ind20,r             =    -0.007532063050 [Eh]
    Exch-Ind20,r (A<-B) =     0.000021564778 [Eh]
    Exch-Ind20,r (B<-A) =     0.000031774730 [Eh]
    Exch-Ind20,r        =     0.000053339508 [Eh]
    Disp20              =    -0.002847856263 [Eh]
    Disp20 (SS)         =    -0.001423928132 [Eh]
    Disp20 (OS)         =    -0.001423928132 [Eh]
    Exch-Disp20         =     0.000065135313 [Eh]
    Exch-Disp20 (SS)    =     0.000043396838 [Eh]
    Exch-Disp20 (OS)    =     0.000021738475 [Eh]

    SAPT Results 
  --------------------------------------------------------------------------------------------------------
    Electrostatics                 11.47947688 [mEh]       7.20348050 [kcal/mol]      30.13936240 [kJ/mol]
      Elst10,r                     11.47947688 [mEh]       7.20348050 [kcal/mol]      30.13936240 [kJ/mol]

    Exchange                        0.27096658 [mEh]       0.17003409 [kcal/mol]       0.71142265 [kJ/mol]
      Exch10                        0.27096658 [mEh]       0.17003409 [kcal/mol]       0.71142265 [kJ/mol]
      Exch10(S^2)                   0.27097381 [mEh]       0.17003864 [kcal/mol]       0.71144165 [kJ/mol]

    Induction                      -7.41738558 [mEh]      -4.65447972 [kcal/mol]     -19.47434315 [kJ/mol]
      Ind20,r                      -7.53206305 [mEh]      -4.72644092 [kcal/mol]     -19.77542881 [kJ/mol]
      Exch-Ind20,r                  0.05333951 [mEh]       0.03347105 [kcal/mol]       0.14004286 [kJ/mol]
      delta HF,r (2)                0.06133796 [mEh]       0.03849015 [kcal/mol]       0.16104280 [kJ/mol]

    Dispersion                     -2.78272095 [mEh]      -1.74618376 [kcal/mol]      -7.30603285 [kJ/mol]
      Disp20                       -2.84785626 [mEh]      -1.78705679 [kcal/mol]      -7.47704559 [kJ/mol]
      Exch-Disp20                   0.06513531 [mEh]       0.04087303 [kcal/mol]       0.17101274 [kJ/mol]
      Disp20 (SS)                  -1.42392813 [mEh]      -0.89352839 [kcal/mol]      -3.73852279 [kJ/mol]
      Disp20 (OS)                  -1.42392813 [mEh]      -0.89352839 [kcal/mol]      -3.73852279 [kJ/mol]
      Exch-Disp20 (SS)              0.04339684 [mEh]       0.02723193 [kcal/mol]       0.11393838 [kJ/mol]
      Exch-Disp20 (OS)              0.02173847 [mEh]       0.01364110 [kcal/mol]       0.05707436 [kJ/mol]

  Total HF                          4.33305788 [mEh]       2.71903487 [kcal/mol]      11.37644189 [kJ/mol]
  Total SAPT0                       1.55033693 [mEh]       0.97285111 [kcal/mol]       4.07040905 [kJ/mol]

  Special recipe for scaled SAPT0 (see Manual):
    Electrostatics sSAPT0          11.47947688 [mEh]       7.20348050 [kcal/mol]      30.13936240 [kJ/mol]
    Exchange sSAPT0                 0.27096658 [mEh]       0.17003409 [kcal/mol]       0.71142265 [kJ/mol]
    Induction sSAPT0               -7.41738985 [mEh]      -4.65448240 [kcal/mol]     -19.47435437 [kJ/mol]
    Dispersion sSAPT0              -2.78272617 [mEh]      -1.74618703 [kcal/mol]      -7.30604655 [kJ/mol]
  Total sSAPT0                      1.55032743 [mEh]       0.97284515 [kcal/mol]       4.07038412 [kJ/mol]
  --------------------------------------------------------------------------------------------------------

*** tstop() called on d-16-12-3 at Mon Jan 22 13:06:41 2024
Module time:
	user time   =    6931.04 seconds =     115.52 minutes
	system time =     598.98 seconds =       9.98 minutes
	total time  =       3477 seconds =      57.95 minutes
Total time:
	user time   =   13678.78 seconds =     227.98 minutes
	system time =     723.95 seconds =      12.07 minutes
	total time  =       4207 seconds =      70.12 minutes

    Psi4 stopped on: Monday, 22 January 2024 01:06PM
    Psi4 wall time for execution: 1:10:09.50

*** Psi4 exiting successfully. Buy a developer a beer!
