
    -----------------------------------------------------------------------
          Psi4: An Open-Source Ab Initio Electronic Structure Package
                               Psi4 1.9 release

                         Git: Rev {} zzzzzzz 


    D. G. A. Smith, L. A. Burns, A. C. Simmonett, R. M. Parrish,
    M. C. Schieber, R. Galvelis, P. Kraus, H. Kruse, R. Di Remigio,
    A. Alenaizan, A. M. James, S. Lehtola, J. P. Misiewicz, M. Scheurer,
    R. A. Shaw, J. B. Schriber, Y. Xie, Z. L. Glick, D. A. Sirianni,
    J. S. O'Brien, J. M. Waldrop, A. Kumar, E. G. Hohenstein,
    B. P. Pritchard, B. R. Brooks, H. F. Schaefer III, A. Yu. Sokolov,
    K. Patkowski, A. E. DePrince III, U. Bozkaya, R. A. King,
    F. A. Evangelista, J. M. Turney, T. D. Crawford, C. D. Sherrill,
    J. Chem. Phys. 152(18) 184108 (2020). https://doi.org/10.1063/5.0006002

                            Additional Code Authors
    E. T. Seidl, C. L. Janssen, E. F. Valeev, M. L. Leininger,
    J. F. Gonthier, R. M. Richard, H. R. McAlexander, M. Saitow, X. Wang,
    P. Verma, M. H. Lechner, A. Jiang, S. Behnle, A. G. Heide,
    M. F. Herbst, and D. L. Poole

             Previous Authors, Complete List of Code Contributors,
                       and Citations for Specific Modules
    https://github.com/psi4/psi4/blob/master/codemeta.json
    https://github.com/psi4/psi4/graphs/contributors
    http://psicode.org/psi4manual/master/introduction.html#citing-psifour

    -----------------------------------------------------------------------


    Psi4 started on: Saturday, 27 January 2024 11:25AM

    Process ID: 3412164
    Host:       n2cn0502
    PSIDATADIR: /opt/software/pc2/EB-SW/software/PSI4/1.9-foss-2022a/share/psi4
    Memory:     500.0 MiB
    Threads:    16
    
  ==> Input File <==

--------------------------------------------------------------------------
memory 64 GB # how much memory is available ! Depends on the nodes/cores !

molecule dimer {
# monomer A
-1 1    # Charge and multiplicity
B -0.000046  0.000337 4.999994
F -1.153597  0.000048 5.815641
F  1.153661 -0.000581 5.815641
F -0.000019 -1.153637 4.184360
F -0.000019  1.153978 4.184360
--
# monomer B
0 1     # Charge and multiplicity
C   -3.66844126402057      7.80375217008252      0.00190004133558
C   -4.84759871934653      7.13124183134024     -0.00046653359696
C   -4.89495929917518      5.69633040353158     -0.00103944469517
C   -3.65374067877320      4.98073034095895      0.00662099703436
C   -2.40942512149445      7.11398103667468      0.00209438359570
C   -2.42547734410473      5.68112195090346     -0.00491050527438
C   -1.19474401643570      7.78614419430947      0.00356656413763
C   0.03795902893699      7.09942164575698      0.00139585983271
C   0.03033258741920      5.66948955970466     -0.00408752508301
C   -1.20098450790502      4.96927034791531      0.00488220885047
C   1.27795782581485      7.77285944319479      0.00277170839332
C   2.48535808472416      7.08769688523756      0.00049722048857
C   2.48612868491717      5.65477081024076     -0.00644052849921
C   1.25408291964399      4.95607811366431      0.00518741308898
C   3.75171459140595      7.76391215098033      0.00062407186893
C   4.92356605618520      7.07878077698995     -0.00143240883900
C   4.95560727132542      5.64344746336949     -0.00159282164606
C   3.70680153420475      4.94121020833308      0.00349873852374
H   -3.65852113775815      8.89082741913536      0.00358502958574
H   -1.18921332975660      8.87412108735996      0.00753844057883
H   1.28429423888630      8.86083343548850      0.00693053253426
H   3.75354208679975      8.85103527897216      0.00214659618464
H   5.86995870320703      7.61379483465560     -0.00235777588134
H   -5.78823170750226      7.67630221293400     -0.00202638095293
C   -6.09197395869619      4.99326001364347     -0.00291168518608
C   -6.12866148031747      3.58258016879823     -0.00171050815740
C   -3.66457974004527      3.56418217974434     -0.00463560277484
C   -4.89429820469869      2.86108077590057      0.00453338221034
C   -2.43733499489796      2.84761165708481      0.00719617576166
C   -1.20922785759670      3.54788693497833     -0.00648285103018
C   1.24714157216223      3.53468075142962     -0.00729145743546
C   0.01517603956900      2.83311183930540      0.00439272578912
C   2.46764517244071      2.82128997725533      0.00449278391269
C   3.70254947457969      3.52466015442405     -0.00899517692985
C   6.14498038638375      4.92757236613191     -0.00282626685777
C   6.16658835886151      3.51658447594213     -0.00065971342101
C   4.92460995845939      2.80840792535402      0.00587903281610
H   7.08990550964105      5.46688776622306     -0.00658814770723
H   -7.03104175110130      5.54268795285765     -0.00714490013730
C   -7.33969804112295      2.85841153457957     -0.00333767559888
C   -7.36488195805880      1.47032337158330     -0.00157213747140
C   -4.90350460894690      1.44442681216000     -0.00628840166334
C   -6.13225715261081      0.73993935705394      0.00600164231964
C   -3.67687480051673      0.72669714267312      0.00433931473643
C   -2.44565658606518      1.42964113326212     -0.00597039546461
C   -1.22360068130162      0.71532450163492      0.00545886906656
C   0.00763786931376      1.41738314923765      0.00392452278437
C   1.23121980774686      0.70211669058719     -0.01490206287210
C   2.46082110053113      1.40329203612573      0.00460244601878
C   3.68443025419614      0.68719842821222      0.00377365974158
C   4.91870890153864      1.39173456118907     -0.00862816189375
C   7.36980207796101      2.77948220318441     -0.00242013321349
C   7.38016266612146      1.39121750785509     -0.00087345036788
C   6.13979953912259      0.67411862320065      0.00545489144369
H   -8.27919079934664      3.40711804112415     -0.00763522772059
H   8.31511347147953      3.31811809662368     -0.00663070901292
C   -8.59175593758115      0.72483255304480     -0.00123170985383
C   -8.59902460370342     -0.63263980622873      0.00089141472904
C   -6.13981313911873     -0.67413663715361     -0.00609792660607
C   -7.38018411213749     -1.39126618958160      0.00131813493501
C   -4.91868448025621     -1.39175501803000      0.00624257154343
C   -3.68443829568458     -0.68723731573599     -0.00478966852105
C   -2.46081704024768     -1.40334517882457      0.00575341766833
C   -1.23116201232071     -0.70217386488055     -0.00636696112346
C   -0.00756962538737     -1.41741884941102      0.00108956317991
C   1.22364771588843     -0.71527537726392      0.01109518512883
C   2.44567064933149     -1.42964328900682     -0.00065482763106
C   3.67686670284649     -0.72670743155550     -0.00479541202602
C   6.13224884641929     -0.73997883984993     -0.00632338623858
C   4.90351914550401     -1.44445752054090      0.00751768830159
C   8.59901484869081      0.63260386666793     -0.00101133422380
C   8.59174548810050     -0.72485086719319      0.00072504603735
C   7.36486276438985     -1.47033266560598      0.00049486934466
H   -9.52830597181814      1.27684744919284     -0.00270163681798
H   9.54141097460619      1.17457248844457     -0.00206336648518
C   -7.36983790976868     -2.77954514593389      0.00312634335708
C   -4.92459910905015     -2.80843725734101     -0.00460528907921
C   -6.16662249566744     -3.51665219282533      0.00169655107992
C   -3.70251035970491     -3.52468154912026      0.00571878010666
C   -2.46764698511392     -2.82132596280400     -0.00632585824990
C   -0.01513347410770     -2.83314164539971     -0.00604426974092
C   -1.24712184122656     -3.53473217556300      0.00551968366725
C   1.20924506964357     -3.54791467864352      0.00805871345849
C   2.43733602215464     -2.84764173817541     -0.00608104485234
C   4.89430234377080     -2.86112296828604     -0.00526030478103
C   3.66461525504104     -3.56421984553201      0.00761911515957
C   6.12863901474565     -3.58258405771778      0.00096495711699
C   7.33967266469532     -2.85841330737039      0.00248018319869
H   -9.54144911125902     -1.17456346666430      0.00226083090216
H   9.52826186807155     -1.27691907390448      0.00197485379837
H   -8.31516504384864     -3.31814985321231      0.00729857188773
H   8.27915514249207     -3.40714078989363      0.00681973918158
C   -6.14499418870218     -4.92764727278338      0.00302254913999
C   -3.70678334799751     -4.94126171411716     -0.00679841894792
C   -4.95559005800169     -5.64349397349412      0.00116871569699
C   -2.48612132622665     -5.65478557440947      0.00614125209662
C   -1.25405833548005     -4.95612205000132     -0.00503435388927
C   1.20101257386816     -4.96928038819302     -0.00385322963129
C   -0.03033667441341     -5.66952030313900      0.00398997003238
C   3.65375010132847     -4.98074377541453     -0.00309522988330
C   2.42549269587528     -5.68117463552727      0.00628170066869
C   6.09196561781097     -4.99325796338655      0.00325918379042
C   4.89497644461045     -5.69634842095790      0.00202298796027
H   -7.08989238804069     -5.46699984223871      0.00742531082125
H   7.03105520920009     -5.54265853633254      0.00683896355417
C   -4.92354532219813     -7.07882109967734      0.00061394679214
C   -2.48534208823777     -7.08772807792913     -0.00189594564379
C   -3.75168589177895     -7.76394715763627     -0.00170126671874
C   -0.03794895698805     -7.09946487446944     -0.00168022049625
C   -1.27795610040136     -7.77290438466689     -0.00366491325785
C   2.40944432072629     -7.11402201200282     -0.00081701968533
C   1.19474993715296     -7.78618536556242     -0.00296931056689
C   4.84762105249800     -7.13126211057943      0.00168979497423
C   3.66847160587561     -7.80378799294376     -0.00065863938960
H   -5.86994035041618     -7.61383059804164      0.00215798365757
H   5.78824962538815     -7.67633218931421      0.00281691445618
H   -3.75352693944918     -8.85107156923607     -0.00353718114765
H   -1.28430440589466     -8.86087539249706     -0.00809229711623
H   1.18922157469537     -8.87416062058945     -0.00706194725726
H   3.65854661482387     -8.89086063405326     -0.00231318081200

    units angstrom      # Angstroms are the default
    no_reorient         # Geometry fixed, default
    symmetry c1         # C1 symmetry, default
}

set {
    scf_type DF         # Density fitting, faster than exact integrals
    freeze_core True    # Freeze core electrons
    basis jun-cc-pVDZ   # Jun-cc-pVDZ basis set, recommended for sSAPT0 in https://doi.org/10.1063/1.4867135
}

energy('ssapt0')        # Compute sSAPT0 energy, includes also SAPT0
--------------------------------------------------------------------------

  Memory set to  59.605 GiB by Python driver.

Scratch directory: /tmp/
   => Loading Basis Set <=

    Name: JUN-CC-PVDZ
    Role: ORBITAL
    Keyword: BASIS
    atoms 1                                                   entry B          line   130 file /opt/software/pc2/EB-SW/software/PSI4/1.9-foss-2022a/share/psi4/basis/jun-cc-pvdz.gbs 
    atoms 2-5                                                 entry F          line   266 file /opt/software/pc2/EB-SW/software/PSI4/1.9-foss-2022a/share/psi4/basis/jun-cc-pvdz.gbs 
    atoms 6-23, 30-42, 45-59, 62-78, 81-93, 98-108, 111-119   entry C          line   164 file /opt/software/pc2/EB-SW/software/PSI4/1.9-foss-2022a/share/psi4/basis/jun-cc-pvdz.gbs 
    atoms 24-29, 43-44, 60-61, 79-80, 94-97, 109-110, 120-125 entry H          line    36 file /opt/software/pc2/EB-SW/software/PSI4/1.9-foss-2022a/share/psi4/basis/jun-cc-pvdz.gbs 

   => Loading Basis Set <=

    Name: JUN-CC-PVDZ
    Role: ORBITAL
    Keyword: BASIS
    atoms 1                                                   entry B          line   130 file /opt/software/pc2/EB-SW/software/PSI4/1.9-foss-2022a/share/psi4/basis/jun-cc-pvdz.gbs 
    atoms 2-5                                                 entry F          line   266 file /opt/software/pc2/EB-SW/software/PSI4/1.9-foss-2022a/share/psi4/basis/jun-cc-pvdz.gbs 
    atoms 6-23, 30-42, 45-59, 62-78, 81-93, 98-108, 111-119   entry C          line   164 file /opt/software/pc2/EB-SW/software/PSI4/1.9-foss-2022a/share/psi4/basis/jun-cc-pvdz.gbs 
    atoms 24-29, 43-44, 60-61, 79-80, 94-97, 109-110, 120-125 entry H          line    36 file /opt/software/pc2/EB-SW/software/PSI4/1.9-foss-2022a/share/psi4/basis/jun-cc-pvdz.gbs 


  //>>>>>>>>>>>>>>>>>>>>>>>>>>>>>>>>>>>//
  //              Dimer HF             //
  //<<<<<<<<<<<<<<<<<<<<<<<<<<<<<<<<<<<//

   => Libint2 <=

    Primary   basis highest AM E, G, H:  5, 4, 3
    Auxiliary basis highest AM E, G, H:  6, 5, 4
    Onebody   basis highest AM E, G, H:  6, 5, 4
    Solid Harmonics ordering:            gaussian

*** tstart() called on n2cn0502
*** at Sat Jan 27 11:26:27 2024

   => Loading Basis Set <=

    Name: JUN-CC-PVDZ
    Role: ORBITAL
    Keyword: BASIS
    atoms 1                                                   entry B          line   130 file /opt/software/pc2/EB-SW/software/PSI4/1.9-foss-2022a/share/psi4/basis/jun-cc-pvdz.gbs 
    atoms 2-5                                                 entry F          line   266 file /opt/software/pc2/EB-SW/software/PSI4/1.9-foss-2022a/share/psi4/basis/jun-cc-pvdz.gbs 
    atoms 6-23, 30-42, 45-59, 62-78, 81-93, 98-108, 111-119   entry C          line   164 file /opt/software/pc2/EB-SW/software/PSI4/1.9-foss-2022a/share/psi4/basis/jun-cc-pvdz.gbs 
    atoms 24-29, 43-44, 60-61, 79-80, 94-97, 109-110, 120-125 entry H          line    36 file /opt/software/pc2/EB-SW/software/PSI4/1.9-foss-2022a/share/psi4/basis/jun-cc-pvdz.gbs 


         ---------------------------------------------------------
                                   SCF
               by Justin Turney, Rob Parrish, Andy Simmonett
                          and Daniel G. A. Smith
                              RHF Reference
                       16 Threads,  61035 MiB Core
         ---------------------------------------------------------

  ==> Geometry <==

    Molecular point group: c1
    Full point group: C1

    Geometry (in Angstrom), charge = -1, multiplicity = 1:

       Center              X                  Y                   Z               Mass       
    ------------   -----------------  -----------------  -----------------  -----------------
         B           -0.000050191042     0.000351518223     4.655613296801    11.009305360000
         F           -1.153601191042     0.000062518223     5.471260296801    18.998403162730
         F            1.153656808958    -0.000566481777     5.471260296801    18.998403162730
         F           -0.000023191042    -1.153622481777     3.839979296801    18.998403162730
         F           -0.000023191042     1.153992518223     3.839979296801    18.998403162730
         C           -3.668445455062     7.803766688305    -0.342480661863    12.000000000000
         C           -4.847602910388     7.131256349563    -0.344847236796    12.000000000000
         C           -4.894963490217     5.696344921754    -0.345420147894    12.000000000000
         C           -3.653744869815     4.980744859182    -0.337759706165    12.000000000000
         C           -2.409429312536     7.113995554897    -0.342286319603    12.000000000000
         C           -2.425481535146     5.681136469126    -0.349291208473    12.000000000000
         C           -1.194748207477     7.786158712532    -0.340814139061    12.000000000000
         C            0.037954837895     7.099436163980    -0.342984843366    12.000000000000
         C            0.030328396378     5.669504077927    -0.348468228282    12.000000000000
         C           -1.200988698947     4.969284866138    -0.339498494349    12.000000000000
         C            1.277953634773     7.772873961417    -0.341608994806    12.000000000000
         C            2.485353893683     7.087711403460    -0.343883482710    12.000000000000
         C            2.486124493876     5.654785328463    -0.350821231698    12.000000000000
         C            1.254078728602     4.956092631887    -0.339193290110    12.000000000000
         C            3.751710400364     7.763926669203    -0.343756631330    12.000000000000
         C            4.923561865144     7.078795295213    -0.345813112038    12.000000000000
         C            4.955603080284     5.643461981592    -0.345973524845    12.000000000000
         C            3.706797343163     4.941224726556    -0.340881964675    12.000000000000
         H           -3.658525328800     8.890841937358    -0.340795673613     1.007825032230
         H           -1.189217520798     8.874135605583    -0.336842262620     1.007825032230
         H            1.284290047845     8.860847953711    -0.337450170665     1.007825032230
         H            3.753537895758     8.851049797195    -0.342234107014     1.007825032230
         H            5.869954512165     7.613809352878    -0.346738479080     1.007825032230
         H           -5.788235898544     7.676316731157    -0.346407084152     1.007825032230
         C           -6.091978149738     4.993274531866    -0.347292388385    12.000000000000
         C           -6.128665671359     3.582594687021    -0.346091211356    12.000000000000
         C           -3.664583931087     3.564196697967    -0.349016305974    12.000000000000
         C           -4.894302395740     2.861095294123    -0.339847320989    12.000000000000
         C           -2.437339185940     2.847626175307    -0.337184527437    12.000000000000
         C           -1.209232048638     3.547901453201    -0.350863554229    12.000000000000
         C            1.247137381121     3.534695269652    -0.351672160634    12.000000000000
         C            0.015171848527     2.833126357528    -0.339987977410    12.000000000000
         C            2.467640981399     2.821304495478    -0.339887919286    12.000000000000
         C            3.702545283538     3.524674672647    -0.353375880129    12.000000000000
         C            6.144976195342     4.927586884354    -0.347206970057    12.000000000000
         C            6.166584167820     3.516598994165    -0.345040416620    12.000000000000
         C            4.924605767418     2.808422443577    -0.338501670383    12.000000000000
         H            7.089901318599     5.466902284446    -0.350968850906     1.007825032230
         H           -7.031045942143     5.542702471080    -0.351525603336     1.007825032230
         C           -7.339702232165     2.858426052802    -0.347718378798    12.000000000000
         C           -7.364886149100     1.470337889806    -0.345952840670    12.000000000000
         C           -4.903508799989     1.444441330383    -0.350669104862    12.000000000000
         C           -6.132261343652     0.739953875277    -0.338379060879    12.000000000000
         C           -3.676878991558     0.726711660896    -0.340041388463    12.000000000000
         C           -2.445660777107     1.429655651485    -0.350351098664    12.000000000000
         C           -1.223604872343     0.715339019858    -0.338921834132    12.000000000000
         C            0.007633678272     1.417397667460    -0.340456180415    12.000000000000
         C            1.231215616705     0.702131208810    -0.359282766071    12.000000000000
         C            2.460816909489     1.403306554348    -0.339778257180    12.000000000000
         C            3.684426063155     0.687212946435    -0.340607043457    12.000000000000
         C            4.918704710497     1.391749079412    -0.353008865093    12.000000000000
         C            7.369797886919     2.779496721407    -0.346800836413    12.000000000000
         C            7.380158475080     1.391232026078    -0.345254153567    12.000000000000
         C            6.139795348081     0.674133141423    -0.338925811755    12.000000000000
         H           -8.279194990388     3.407132559347    -0.352015930920     1.007825032230
         H            8.315109280438     3.318132614846    -0.351011412212     1.007825032230
         C           -8.591760128623     0.724847071267    -0.345612413053    12.000000000000
         C           -8.599028794745    -0.632625288006    -0.343489288470    12.000000000000
         C           -6.139817330160    -0.674122118931    -0.350478629805    12.000000000000
         C           -7.380188303179    -1.391251671359    -0.343062568264    12.000000000000
         C           -4.918688671298    -1.391740499807    -0.338138131656    12.000000000000
         C           -3.684442486726    -0.687222797513    -0.349170371720    12.000000000000
         C           -2.460821231289    -1.403330660602    -0.338627285531    12.000000000000
         C           -1.231166203362    -0.702159346658    -0.350747664322    12.000000000000
         C           -0.007573816429    -1.417404331188    -0.343291140019    12.000000000000
         C            1.223643524847    -0.715260859041    -0.333285518070    12.000000000000
         C            2.445666458290    -1.429628770784    -0.345035530830    12.000000000000
         C            3.676862511805    -0.726692913333    -0.349176115225    12.000000000000
         C            6.132244655378    -0.739964321627    -0.350704089438    12.000000000000
         C            4.903514954462    -1.444443002318    -0.336863014897    12.000000000000
         C            8.599010657649     0.632618384891    -0.345392037423    12.000000000000
         C            8.591741297059    -0.724836348971    -0.343655657162    12.000000000000
         C            7.364858573348    -1.470318147383    -0.343885833854    12.000000000000
         H           -9.528310162860     1.276861967415    -0.347082340017     1.007825032230
         H            9.541406783565     1.174587006667    -0.346444069684     1.007825032230
         C           -7.369842100810    -2.779530627711    -0.341254359842    12.000000000000
         C           -4.924603300092    -2.808422739118    -0.348985992278    12.000000000000
         C           -6.166626686709    -3.516637674603    -0.342684152119    12.000000000000
         C           -3.702514550747    -3.524667030898    -0.338661923092    12.000000000000
         C           -2.467651176156    -2.821311444581    -0.350706561449    12.000000000000
         C           -0.015137665149    -2.833127127177    -0.350424972940    12.000000000000
         C           -1.247126032268    -3.534717657340    -0.338861019532    12.000000000000
         C            1.209240878602    -3.547900160421    -0.336321989741    12.000000000000
         C            2.437331831113    -2.847627219953    -0.350461748051    12.000000000000
         C            4.894298152729    -2.861108450063    -0.349641007980    12.000000000000
         C            3.664611063999    -3.564205327309    -0.336761588039    12.000000000000
         C            6.128634823704    -3.582569539495    -0.343415746082    12.000000000000
         C            7.339668473654    -2.858398789148    -0.341900520000    12.000000000000
         H           -9.541453302301    -1.174548948442    -0.342119872297     1.007825032230
         H            9.528257677030    -1.276904555682    -0.342405849401     1.007825032230
         H           -8.315169234890    -3.318135334990    -0.337082131311     1.007825032230
         H            8.279150951450    -3.407126271671    -0.337560964017     1.007825032230
         C           -6.144998379744    -4.927632754561    -0.341358154059    12.000000000000
         C           -3.706787539039    -4.941247195895    -0.351179122147    12.000000000000
         C           -4.955594249043    -5.643479455272    -0.343211987502    12.000000000000
         C           -2.486125517268    -5.654771056187    -0.338239451102    12.000000000000
         C           -1.254062526522    -4.956107531779    -0.349415057088    12.000000000000
         C            1.201008382827    -4.969265869970    -0.348233932830    12.000000000000
         C           -0.030340865455    -5.669505784916    -0.340390733167    12.000000000000
         C            3.653745910287    -4.980729257192    -0.347475933082    12.000000000000
         C            2.425488504834    -5.681160117305    -0.338099002530    12.000000000000
         C            6.091961426769    -4.993243445164    -0.341121519409    12.000000000000
         C            4.894972253569    -5.696333902735    -0.342357715239    12.000000000000
         H           -7.089896579082    -5.466985324016    -0.336955392378     1.007825032230
         H            7.031051018158    -5.542644018110    -0.337541739645     1.007825032230
         C           -4.923549513240    -7.078806581455    -0.343766756407    12.000000000000
         C           -2.485346279279    -7.087713559707    -0.346276648843    12.000000000000
         C           -3.751690082821    -7.763932639414    -0.346081969918    12.000000000000
         C           -0.037953148030    -7.099450356247    -0.346060923695    12.000000000000
         C           -1.277960291443    -7.772889866444    -0.348045616457    12.000000000000
         C            2.409440129685    -7.114007493780    -0.345197722884    12.000000000000
         C            1.194745746111    -7.786170847340    -0.347350013766    12.000000000000
         C            4.847616861456    -7.131247592357    -0.342690908225    12.000000000000
         C            3.668467414834    -7.803773474721    -0.345039342589    12.000000000000
         H           -5.869944541458    -7.613816079819    -0.342222719541     1.007825032230
         H            5.788245434347    -7.676317671092    -0.341563788743     1.007825032230
         H           -3.753531130491    -8.851057051013    -0.347917884347     1.007825032230
         H           -1.284308596936    -8.860860874274    -0.352473000315     1.007825032230
         H            1.189217383654    -8.874146102367    -0.351442650456     1.007825032230
         H            3.658542423782    -8.890846115831    -0.346693884011     1.007825032230

  Running in c1 symmetry.

  Rotational constants: A =      0.00065  B =      0.00065  C =      0.00035 [cm^-1]
  Rotational constants: A =     19.42074  B =     19.41752  C =     10.55117 [MHz]
  Nuclear repulsion = 17481.495833975746791

  Charge       = -1
  Multiplicity = 1
  Electrons    = 642
  Nalpha       = 321
  Nbeta        = 321

  ==> Algorithm <==

  SCF Algorithm Type is DF.
  DIIS enabled.
  MOM disabled.
  Fractional occupation disabled.
  Guess Type is SAD.
  Energy threshold   = 1.00e-08
  Density threshold  = 1.00e-08
  Integral threshold = 1.00e-12

  ==> Primary Basis <==

  Basis Set: JUN-CC-PVDZ
    Blend: JUN-CC-PVDZ
    Number of shells: 880
    Number of basis functions: 1938
    Number of Cartesian functions: 2039
    Spherical Harmonics?: true
    Max angular momentum: 2

   => Loading Basis Set <=

    Name: (JUN-CC-PVDZ AUX)
    Role: JKFIT
    Keyword: DF_BASIS_SCF
    atoms 1                                                   entry B          line    90 file /opt/software/pc2/EB-SW/software/PSI4/1.9-foss-2022a/share/psi4/basis/jun-cc-pvdz-jkfit.gbs 
    atoms 2-5                                                 entry F          line   314 file /opt/software/pc2/EB-SW/software/PSI4/1.9-foss-2022a/share/psi4/basis/jun-cc-pvdz-jkfit.gbs 
    atoms 6-23, 30-42, 45-59, 62-78, 81-93, 98-108, 111-119   entry C          line   146 file /opt/software/pc2/EB-SW/software/PSI4/1.9-foss-2022a/share/psi4/basis/jun-cc-pvdz-jkfit.gbs 
    atoms 24-29, 43-44, 60-61, 79-80, 94-97, 109-110, 120-125 entry H          line    70 file /opt/software/pc2/EB-SW/software/PSI4/1.9-foss-2022a/share/psi4/basis/jun-cc-pvdz-jkfit.gbs 

  ==> Integral Setup <==

  ==> DiskDFJK: Density-Fitted J/K Matrices <==

    J tasked:                  Yes
    K tasked:                  Yes
    wK tasked:                  No
    OpenMP threads:             16
    Integrals threads:          16
    Memory [MiB]:            45776
    Algorithm:                Disk
    Integral Cache:           SAVE
    Schwarz Cutoff:          1E-12
    Fitting Condition:       1E-10

   => Auxiliary Basis Set <=

  Basis Set: (JUN-CC-PVDZ AUX)
    Blend: JUN-CC-PVDZ-JKFIT
    Number of shells: 2943
    Number of basis functions: 8531
    Number of Cartesian functions: 9791
    Spherical Harmonics?: true
    Max angular momentum: 3

  Minimum eigenvalue in the overlap matrix is 8.9114299129E-11.
  Reciprocal condition number of the overlap matrix is 3.8574997886E-12.
    Using canonical orthogonalization.
  Overall, 38 of 1938 possible MOs eliminated.


  ==> Pre-Iterations <==

  SCF Guess: Superposition of Atomic Densities via on-the-fly atomic UHF (no occupation information).

   -------------------------
    Irrep   Nso     Nmo    
   -------------------------
     A       1938    1900 
   -------------------------
    Total    1938    1900
   -------------------------

  ==> Iterations <==

                           Total Energy        Delta E     RMS |[F,P]|

   @DF-RHF iter SAD: -4085.01507293753139   -4.08502e+03   0.00000e+00 
   @DF-RHF iter   1: -4071.51443882876765    1.35006e+01   7.90742e-04 DIIS/ADIIS
   @DF-RHF iter   2: -4072.91596425941407   -1.40153e+00   3.10071e-04 DIIS/ADIIS
   @DF-RHF iter   3: -4073.08203565360509   -1.66071e-01   1.02644e-04 DIIS/ADIIS
   @DF-RHF iter   4: -4073.10415218107482   -2.21165e-02   3.77136e-05 DIIS
   @DF-RHF iter   5: -4073.10755713025264   -3.40495e-03   1.07457e-05 DIIS
   @DF-RHF iter   6: -4073.10799503915086   -4.37909e-04   4.25877e-06 DIIS
   @DF-RHF iter   7: -4073.10817322053663   -1.78181e-04   2.15897e-06 DIIS
   @DF-RHF iter   8: -4073.10822569268612   -5.24721e-05   1.19657e-06 DIIS
   @DF-RHF iter   9: -4073.10824209551538   -1.64028e-05   3.71521e-07 DIIS
   @DF-RHF iter  10: -4073.10824312866180   -1.03315e-06   1.81668e-07 DIIS
   @DF-RHF iter  11: -4073.10824331623007   -1.87568e-07   6.29053e-08 DIIS
   @DF-RHF iter  12: -4073.10824335047755   -3.42475e-08   3.29269e-08 DIIS
   @DF-RHF iter  13: -4073.10824335862026   -8.14271e-09   1.10738e-08 DIIS
   @DF-RHF iter  14: -4073.10824335920279   -5.82531e-10   5.02649e-09 DIIS
  Energy and wave function converged.


  ==> Post-Iterations <==

    Orbital Energies [Eh]
    ---------------------

    Doubly Occupied:                                                      

       1A    -26.074357     2A    -26.074176     3A    -26.071132  
       4A    -26.071099     5A    -11.202914     6A    -11.202910  
       7A    -11.202895     8A    -11.202893     9A    -11.202845  
      10A    -11.202844    11A    -11.202835    12A    -11.202834  
      13A    -11.202803    14A    -11.202798    15A    -11.202788  
      16A    -11.202782    17A    -11.202338    18A    -11.202335  
      19A    -11.202324    20A    -11.202322    21A    -11.202242  
      22A    -11.202227    23A    -11.200058    24A    -11.200044  
      25A    -11.199969    26A    -11.199953    27A    -11.199860  
      28A    -11.199825    29A    -11.199795    30A    -11.199729  
      31A    -11.199715    32A    -11.199667    33A    -11.199555  
      34A    -11.199532    35A    -11.198990    36A    -11.198987  
      37A    -11.198913    38A    -11.198907    39A    -11.198900  
      40A    -11.198894    41A    -11.198861    42A    -11.198855  
      43A    -11.198753    44A    -11.198736    45A    -11.198688  
      46A    -11.198666    47A    -11.198113    48A    -11.198097  
      49A    -11.198025    50A    -11.197992    51A    -11.197930  
      52A    -11.197882    53A    -11.197847    54A    -11.197796  
      55A    -11.197747    56A    -11.197710    57A    -11.197624  
      58A    -11.197609    59A    -11.197489    60A    -11.197487  
      61A    -11.197449    62A    -11.197431    63A    -11.197420  
      64A    -11.197419    65A    -11.197418    66A    -11.197415  
      67A    -11.197253    68A    -11.197228    69A    -11.197191  
      70A    -11.197158    71A    -11.196608    72A    -11.196551  
      73A    -11.196400    74A    -11.196298    75A    -11.196191  
      76A    -11.196132    77A    -11.195480    78A    -11.195278  
      79A    -11.195227    80A    -11.195069    81A    -11.195063  
      82A    -11.195052    83A    -11.194996    84A    -11.194991  
      85A    -11.194977    86A    -11.194946    87A    -11.194944  
      88A    -11.194935    89A    -11.194921    90A    -11.194919  
      91A    -11.194897    92A    -11.194868    93A    -11.194857  
      94A    -11.194825    95A    -11.194458    96A    -11.194171  
      97A    -11.194119    98A    -11.193268    99A    -11.193214  
     100A    -11.192745   101A     -7.544729   102A     -1.416587  
     103A     -1.358339   104A     -1.356773   105A     -1.355248  
     106A     -1.188653   107A     -1.176213   108A     -1.176042  
     109A     -1.158986   110A     -1.158978   111A     -1.151451  
     112A     -1.140746   113A     -1.134662   114A     -1.125013  
     115A     -1.124836   116A     -1.113777   117A     -1.113751  
     118A     -1.093119   119A     -1.093096   120A     -1.089733  
     121A     -1.085061   122A     -1.085054   123A     -1.067264  
     124A     -1.053488   125A     -1.052430   126A     -1.052314  
     127A     -1.049957   128A     -1.049844   129A     -1.027338  
     130A     -1.027305   131A     -1.017503   132A     -1.017484  
     133A     -1.005817   134A     -1.005806   135A     -1.002458  
     136A     -0.986205   137A     -0.986193   138A     -0.979745  
     139A     -0.979264   140A     -0.979245   141A     -0.962997  
     142A     -0.957509   143A     -0.957457   144A     -0.947118  
     145A     -0.945377   146A     -0.942905   147A     -0.938787  
     148A     -0.938739   149A     -0.932074   150A     -0.909573  
     151A     -0.909570   152A     -0.895841   153A     -0.895798  
     154A     -0.846834   155A     -0.846797   156A     -0.842792  
     157A     -0.842750   158A     -0.840658   159A     -0.829259  
     160A     -0.829206   161A     -0.827842   162A     -0.827826  
     163A     -0.827729   164A     -0.812736   165A     -0.811278  
     166A     -0.791998   167A     -0.786072   168A     -0.786003  
     169A     -0.783199   170A     -0.781617   171A     -0.774212  
     172A     -0.774189   173A     -0.769226   174A     -0.769199  
     175A     -0.725804   176A     -0.725800   177A     -0.721448  
     178A     -0.721439   179A     -0.721255   180A     -0.721162  
     181A     -0.720133   182A     -0.706490   183A     -0.698423  
     184A     -0.688904   185A     -0.674604   186A     -0.666600  
     187A     -0.666535   188A     -0.664284   189A     -0.664037  
     190A     -0.664003   191A     -0.656104   192A     -0.652153  
     193A     -0.652126   194A     -0.639860   195A     -0.639827  
     196A     -0.626432   197A     -0.626419   198A     -0.624205  
     199A     -0.622096   200A     -0.622067   201A     -0.618376  
     202A     -0.607851   203A     -0.594064   204A     -0.590952  
     205A     -0.590940   206A     -0.590136   207A     -0.588210  
     208A     -0.588168   209A     -0.580287   210A     -0.579665  
     211A     -0.579629   212A     -0.579601   213A     -0.575133  
     214A     -0.575119   215A     -0.568725   216A     -0.556109  
     217A     -0.556096   218A     -0.551352   219A     -0.549167  
     220A     -0.549162   221A     -0.538351   222A     -0.537416  
     223A     -0.537328   224A     -0.537278   225A     -0.535966  
     226A     -0.535859   227A     -0.535733   228A     -0.535712  
     229A     -0.534921   230A     -0.534512   231A     -0.533958  
     232A     -0.533431   233A     -0.530920   234A     -0.530900  
     235A     -0.530822   236A     -0.524977   237A     -0.519735  
     238A     -0.519722   239A     -0.514181   240A     -0.514165  
     241A     -0.513714   242A     -0.507772   243A     -0.507741  
     244A     -0.505427   245A     -0.505421   246A     -0.504543  
     247A     -0.502791   248A     -0.499861   249A     -0.497718  
     250A     -0.497658   251A     -0.493569   252A     -0.490489  
     253A     -0.489917   254A     -0.483461   255A     -0.473925  
     256A     -0.473902   257A     -0.471166   258A     -0.470975  
     259A     -0.468367   260A     -0.468360   261A     -0.465674  
     262A     -0.456457   263A     -0.456401   264A     -0.455693  
     265A     -0.455668   266A     -0.452997   267A     -0.452839  
     268A     -0.450471   269A     -0.450437   270A     -0.437677  
     271A     -0.435681   272A     -0.435666   273A     -0.430962  
     274A     -0.430913   275A     -0.425635   276A     -0.422248  
     277A     -0.418194   278A     -0.418191   279A     -0.414268  
     280A     -0.414090   281A     -0.414033   282A     -0.413799  
     283A     -0.407681   284A     -0.405644   285A     -0.405628  
     286A     -0.397472   287A     -0.391397   288A     -0.390488  
     289A     -0.389684   290A     -0.383532   291A     -0.383439  
     292A     -0.378526   293A     -0.377595   294A     -0.377342  
     295A     -0.375959   296A     -0.374706   297A     -0.346169  
     298A     -0.346093   299A     -0.326943   300A     -0.326918  
     301A     -0.323988   302A     -0.323966   303A     -0.320539  
     304A     -0.293575   305A     -0.293562   306A     -0.289635  
     307A     -0.273987   308A     -0.273939   309A     -0.273162  
     310A     -0.269595   311A     -0.269476   312A     -0.244548  
     313A     -0.240551   314A     -0.239044   315A     -0.238931  
     316A     -0.225848   317A     -0.198747   318A     -0.190748  
     319A     -0.190686   320A     -0.143564   321A     -0.143488  

    Virtual:                                                              

     322A      0.048824   323A      0.048933   324A      0.091410  
     325A      0.091564   326A      0.091586   327A      0.093957  
     328A      0.093980   329A      0.096765   330A      0.097359  
     331A      0.097479   332A      0.099323   333A      0.101892  
     334A      0.107370   335A      0.107380   336A      0.118677  
     337A      0.118685   338A      0.124960   339A      0.127240  
     340A      0.127715   341A      0.131961   342A      0.132064  
     343A      0.132911   344A      0.133205   345A      0.134294  
     346A      0.134747   347A      0.135213   348A      0.135386  
     349A      0.135567   350A      0.139319   351A      0.139437  
     352A      0.142919   353A      0.145188   354A      0.145372  
     355A      0.145392   356A      0.146310   357A      0.146347  
     358A      0.152575   359A      0.157272   360A      0.157301  
     361A      0.157785   362A      0.160523   363A      0.160588  
     364A      0.160789   365A      0.162893   366A      0.164563  
     367A      0.164702   368A      0.166531   369A      0.167362  
     370A      0.168283   371A      0.168767   372A      0.169430  
     373A      0.169562   374A      0.173633   375A      0.175832  
     376A      0.175896   377A      0.177630   378A      0.178161  
     379A      0.180846   380A      0.182933   381A      0.183003  
     382A      0.186079   383A      0.186619   384A      0.190716  
     385A      0.190993   386A      0.194884   387A      0.194902  
     388A      0.196216   389A      0.197324   390A      0.197473  
     391A      0.200150   392A      0.200264   393A      0.206852  
     394A      0.210678   395A      0.211179   396A      0.211369  
     397A      0.212184   398A      0.213353   399A      0.214045  
     400A      0.214607   401A      0.214904   402A      0.215321  
     403A      0.219006   404A      0.219272   405A      0.219951  
     406A      0.220043   407A      0.220741   408A      0.221018  
     409A      0.221626   410A      0.222812   411A      0.225149  
     412A      0.230046   413A      0.231253   414A      0.233496  
     415A      0.233620   416A      0.234133   417A      0.238520  
     418A      0.238589   419A      0.239381   420A      0.239787  
     421A      0.239918   422A      0.243393   423A      0.246616  
     424A      0.247018   425A      0.248952   426A      0.249273  
     427A      0.252522   428A      0.252819   429A      0.253652  
     430A      0.254970   431A      0.255078   432A      0.255206  
     433A      0.255666   434A      0.255870   435A      0.259267  
     436A      0.259278   437A      0.259860   438A      0.265674  
     439A      0.265779   440A      0.267246   441A      0.267650  
     442A      0.267878   443A      0.268381   444A      0.268469  
     445A      0.269060   446A      0.270212   447A      0.270340  
     448A      0.270962   449A      0.271084   450A      0.272174  
     451A      0.272400   452A      0.274260   453A      0.274285  
     454A      0.280284   455A      0.281074   456A      0.281390  
     457A      0.282295   458A      0.282865   459A      0.286012  
     460A      0.286043   461A      0.287614   462A      0.287853  
     463A      0.287916   464A      0.288979   465A      0.290531  
     466A      0.290583   467A      0.291836   468A      0.292488  
     469A      0.293757   470A      0.300736   471A      0.300975  
     472A      0.301696   473A      0.304198   474A      0.304763  
     475A      0.307024   476A      0.310699   477A      0.311727  
     478A      0.311937   479A      0.312042   480A      0.313153  
     481A      0.313720   482A      0.314560   483A      0.316128  
     484A      0.316263   485A      0.316388   486A      0.318992  
     487A      0.320147   488A      0.320920   489A      0.320969  
     490A      0.322086   491A      0.323459   492A      0.324979  
     493A      0.325781   494A      0.325818   495A      0.328922  
     496A      0.333355   497A      0.333424   498A      0.334718  
     499A      0.335158   500A      0.335344   501A      0.338003  
     502A      0.338059   503A      0.339239   504A      0.341975  
     505A      0.342309   506A      0.342439   507A      0.342652  
     508A      0.344865   509A      0.346281   510A      0.349056  
     511A      0.353154   512A      0.354154   513A      0.354280  
     514A      0.355170   515A      0.356500   516A      0.357172  
     517A      0.360662   518A      0.360844   519A      0.361475  
     520A      0.361716   521A      0.362449   522A      0.363385  
     523A      0.363476   524A      0.364409   525A      0.365228  
     526A      0.366592   527A      0.366663   528A      0.367558  
     529A      0.370264   530A      0.370517   531A      0.370794  
     532A      0.371094   533A      0.371481   534A      0.374939  
     535A      0.375652   536A      0.375735   537A      0.379048  
     538A      0.380812   539A      0.381693   540A      0.382077  
     541A      0.382323   542A      0.383499   543A      0.384453  
     544A      0.384664   545A      0.385639   546A      0.385765  
     547A      0.385966   548A      0.386896   549A      0.388928  
     550A      0.390184   551A      0.391785   552A      0.393722  
     553A      0.393784   554A      0.396226   555A      0.397392  
     556A      0.397453   557A      0.399043   558A      0.400406  
     559A      0.400581   560A      0.401067   561A      0.403150  
     562A      0.404000   563A      0.409743   564A      0.411081  
     565A      0.411991   566A      0.412350   567A      0.414617  
     568A      0.416543   569A      0.417511   570A      0.417876  
     571A      0.418346   572A      0.418762   573A      0.419698  
     574A      0.421353   575A      0.421611   576A      0.423532  
     577A      0.423855   578A      0.424112   579A      0.425835  
     580A      0.427924   581A      0.428992   582A      0.431310  
     583A      0.432603   584A      0.432990   585A      0.434078  
     586A      0.435852   587A      0.437086   588A      0.438506  
     589A      0.438837   590A      0.439825   591A      0.441597  
     592A      0.444255   593A      0.444794   594A      0.445485  
     595A      0.445782   596A      0.446753   597A      0.449003  
     598A      0.450048   599A      0.450320   600A      0.451289  
     601A      0.452961   602A      0.453457   603A      0.454360  
     604A      0.454672   605A      0.455688   606A      0.456958  
     607A      0.457555   608A      0.458105   609A      0.458385  
     610A      0.459765   611A      0.459961   612A      0.461099  
     613A      0.462059   614A      0.462642   615A      0.464510  
     616A      0.465017   617A      0.465485   618A      0.466650  
     619A      0.466703   620A      0.467328   621A      0.468957  
     622A      0.469260   623A      0.469379   624A      0.469997  
     625A      0.471069   626A      0.471867   627A      0.471923  
     628A      0.473833   629A      0.475455   630A      0.475637  
     631A      0.476334   632A      0.477770   633A      0.478336  
     634A      0.479429   635A      0.480006   636A      0.481532  
     637A      0.481912   638A      0.482047   639A      0.484242  
     640A      0.484423   641A      0.485674   642A      0.486597  
     643A      0.487712   644A      0.489808   645A      0.491379  
     646A      0.492224   647A      0.493041   648A      0.493266  
     649A      0.493831   650A      0.494272   651A      0.494740  
     652A      0.495130   653A      0.496536   654A      0.498569  
     655A      0.499233   656A      0.499496   657A      0.499768  
     658A      0.501395   659A      0.502045   660A      0.504908  
     661A      0.505979   662A      0.506236   663A      0.507198  
     664A      0.508198   665A      0.509758   666A      0.511105  
     667A      0.511326   668A      0.512283   669A      0.513637  
     670A      0.513735   671A      0.514726   672A      0.515133  
     673A      0.516047   674A      0.516371   675A      0.518196  
     676A      0.520581   677A      0.521199   678A      0.521659  
     679A      0.524766   680A      0.524983   681A      0.526365  
     682A      0.527399   683A      0.528193   684A      0.528420  
     685A      0.532694   686A      0.533663   687A      0.535024  
     688A      0.535223   689A      0.535339   690A      0.536929  
     691A      0.537565   692A      0.538398   693A      0.541051  
     694A      0.541384   695A      0.542429   696A      0.542998  
     697A      0.543584   698A      0.544333   699A      0.544547  
     700A      0.546352   701A      0.550117   702A      0.551168  
     703A      0.551197   704A      0.551629   705A      0.551896  
     706A      0.552822   707A      0.553235   708A      0.553733  
     709A      0.556080   710A      0.556620   711A      0.556985  
     712A      0.557834   713A      0.558755   714A      0.560419  
     715A      0.560872   716A      0.561067   717A      0.562062  
     718A      0.562630   719A      0.567760   720A      0.569042  
     721A      0.569371   722A      0.570385   723A      0.571241  
     724A      0.574005   725A      0.576206   726A      0.576646  
     727A      0.578107   728A      0.578978   729A      0.579134  
     730A      0.579502   731A      0.580064   732A      0.583987  
     733A      0.585555   734A      0.585991   735A      0.586461  
     736A      0.588939   737A      0.591919   738A      0.593397  
     739A      0.594028   740A      0.595701   741A      0.596093  
     742A      0.596218   743A      0.598378   744A      0.598765  
     745A      0.602004   746A      0.603433   747A      0.606842  
     748A      0.609563   749A      0.610303   750A      0.611771  
     751A      0.615919   752A      0.618300   753A      0.619870  
     754A      0.622693   755A      0.624592   756A      0.624974  
     757A      0.625896   758A      0.625980   759A      0.629051  
     760A      0.630133   761A      0.630750   762A      0.632958  
     763A      0.635073   764A      0.636267   765A      0.639836  
     766A      0.641729   767A      0.643732   768A      0.645330  
     769A      0.645436   770A      0.647244   771A      0.647579  
     772A      0.648701   773A      0.648899   774A      0.650281  
     775A      0.652767   776A      0.656394   777A      0.656960  
     778A      0.657908   779A      0.659854   780A      0.661830  
     781A      0.663407   782A      0.664869   783A      0.666942  
     784A      0.667870   785A      0.669026   786A      0.671503  
     787A      0.672346   788A      0.675356   789A      0.675578  
     790A      0.679247   791A      0.680743   792A      0.682087  
     793A      0.682765   794A      0.684673   795A      0.688084  
     796A      0.689261   797A      0.693946   798A      0.695131  
     799A      0.698068   800A      0.700612   801A      0.706144  
     802A      0.706364   803A      0.706382   804A      0.707246  
     805A      0.709023   806A      0.718344   807A      0.720193  
     808A      0.720725   809A      0.721572   810A      0.721786  
     811A      0.724399   812A      0.725588   813A      0.729264  
     814A      0.732544   815A      0.732951   816A      0.735227  
     817A      0.738497   818A      0.739448   819A      0.739689  
     820A      0.742038   821A      0.750071   822A      0.750407  
     823A      0.750730   824A      0.751028   825A      0.752785  
     826A      0.755875   827A      0.756157   828A      0.756651  
     829A      0.761767   830A      0.767160   831A      0.768198  
     832A      0.768972   833A      0.772858   834A      0.775198  
     835A      0.775607   836A      0.776885   837A      0.781611  
     838A      0.784853   839A      0.786739   840A      0.791287  
     841A      0.793095   842A      0.794470   843A      0.799723  
     844A      0.801255   845A      0.802559   846A      0.804629  
     847A      0.807624   848A      0.812205   849A      0.813590  
     850A      0.814167   851A      0.814527   852A      0.815978  
     853A      0.824411   854A      0.834396   855A      0.839097  
     856A      0.844434   857A      0.847081   858A      0.849133  
     859A      0.849270   860A      0.853184   861A      0.854790  
     862A      0.857431   863A      0.860787   864A      0.861409  
     865A      0.863399   866A      0.864950   867A      0.866182  
     868A      0.869713   869A      0.871243   870A      0.874139  
     871A      0.875253   872A      0.875417   873A      0.877429  
     874A      0.878025   875A      0.878643   876A      0.886919  
     877A      0.887564   878A      0.888790   879A      0.895964  
     880A      0.896215   881A      0.897386   882A      0.899926  
     883A      0.903320   884A      0.904557   885A      0.904725  
     886A      0.905333   887A      0.907090   888A      0.910301  
     889A      0.910948   890A      0.912033   891A      0.917351  
     892A      0.918327   893A      0.921123   894A      0.921387  
     895A      0.921989   896A      0.926083   897A      0.927215  
     898A      0.929322   899A      0.929624   900A      0.930840  
     901A      0.933138   902A      0.934529   903A      0.935602  
     904A      0.935797   905A      0.937176   906A      0.939340  
     907A      0.940743   908A      0.942294   909A      0.943817  
     910A      0.946651   911A      0.947541   912A      0.949275  
     913A      0.950314   914A      0.952733   915A      0.955616  
     916A      0.956791   917A      0.957524   918A      0.958258  
     919A      0.959950   920A      0.964237   921A      0.964316  
     922A      0.965231   923A      0.968773   924A      0.971336  
     925A      0.972192   926A      0.973064   927A      0.974643  
     928A      0.976932   929A      0.979171   930A      0.980479  
     931A      0.980832   932A      0.982898   933A      0.984117  
     934A      0.987649   935A      0.988030   936A      0.989833  
     937A      0.991008   938A      0.992229   939A      0.992749  
     940A      0.994100   941A      0.997740   942A      1.000411  
     943A      1.000958   944A      1.002377   945A      1.003542  
     946A      1.004643   947A      1.006788   948A      1.009223  
     949A      1.009446   950A      1.009577   951A      1.012259  
     952A      1.013383   953A      1.014620   954A      1.015159  
     955A      1.015425   956A      1.016681   957A      1.017695  
     958A      1.018802   959A      1.023643   960A      1.023799  
     961A      1.028127   962A      1.030005   963A      1.031013  
     964A      1.033166   965A      1.041268   966A      1.042134  
     967A      1.044181   968A      1.050101   969A      1.051698  
     970A      1.052845   971A      1.053958   972A      1.054301  
     973A      1.057018   974A      1.058040   975A      1.063426  
     976A      1.063604   977A      1.064022   978A      1.064757  
     979A      1.065247   980A      1.065834   981A      1.072828  
     982A      1.074477   983A      1.075254   984A      1.076065  
     985A      1.077741   986A      1.079866   987A      1.081290  
     988A      1.081953   989A      1.082281   990A      1.086241  
     991A      1.088262   992A      1.091018   993A      1.095891  
     994A      1.096433   995A      1.097087   996A      1.101809  
     997A      1.105639   998A      1.106133   999A      1.107172  
    1000A      1.107772  1001A      1.107986  1002A      1.109458  
    1003A      1.109575  1004A      1.110888  1005A      1.111148  
    1006A      1.113146  1007A      1.114083  1008A      1.115981  
    1009A      1.118401  1010A      1.118707  1011A      1.120310  
    1012A      1.121236  1013A      1.122256  1014A      1.123049  
    1015A      1.125369  1016A      1.126469  1017A      1.128936  
    1018A      1.129732  1019A      1.130508  1020A      1.131049  
    1021A      1.131336  1022A      1.132414  1023A      1.133157  
    1024A      1.135167  1025A      1.135529  1026A      1.136040  
    1027A      1.136252  1028A      1.137425  1029A      1.138147  
    1030A      1.138629  1031A      1.139040  1032A      1.139808  
    1033A      1.141519  1034A      1.141944  1035A      1.142173  
    1036A      1.142517  1037A      1.143247  1038A      1.144001  
    1039A      1.145007  1040A      1.145530  1041A      1.146292  
    1042A      1.147347  1043A      1.148059  1044A      1.149141  
    1045A      1.149727  1046A      1.151590  1047A      1.153038  
    1048A      1.155118  1049A      1.157769  1050A      1.159195  
    1051A      1.160738  1052A      1.162212  1053A      1.163666  
    1054A      1.164175  1055A      1.164936  1056A      1.165851  
    1057A      1.167041  1058A      1.168827  1059A      1.173094  
    1060A      1.174270  1061A      1.176701  1062A      1.177068  
    1063A      1.180123  1064A      1.180426  1065A      1.182656  
    1066A      1.184895  1067A      1.185330  1068A      1.187285  
    1069A      1.189168  1070A      1.191774  1071A      1.193657  
    1072A      1.194049  1073A      1.197749  1074A      1.199579  
    1075A      1.200296  1076A      1.200692  1077A      1.203614  
    1078A      1.204467  1079A      1.205956  1080A      1.206730  
    1081A      1.209610  1082A      1.211661  1083A      1.212617  
    1084A      1.213047  1085A      1.213257  1086A      1.216314  
    1087A      1.216923  1088A      1.218152  1089A      1.218830  
    1090A      1.222027  1091A      1.222868  1092A      1.224968  
    1093A      1.230675  1094A      1.232916  1095A      1.233450  
    1096A      1.233887  1097A      1.238309  1098A      1.241442  
    1099A      1.245205  1100A      1.247028  1101A      1.247933  
    1102A      1.248750  1103A      1.248989  1104A      1.252458  
    1105A      1.254422  1106A      1.255460  1107A      1.257332  
    1108A      1.264197  1109A      1.264715  1110A      1.266076  
    1111A      1.267749  1112A      1.271093  1113A      1.271755  
    1114A      1.272528  1115A      1.273694  1116A      1.274317  
    1117A      1.278344  1118A      1.278541  1119A      1.279653  
    1120A      1.283292  1121A      1.284157  1122A      1.284950  
    1123A      1.286120  1124A      1.295153  1125A      1.296136  
    1126A      1.306487  1127A      1.311882  1128A      1.312383  
    1129A      1.313028  1130A      1.313525  1131A      1.313634  
    1132A      1.319337  1133A      1.321873  1134A      1.321960  
    1135A      1.325495  1136A      1.326904  1137A      1.328164  
    1138A      1.330834  1139A      1.332684  1140A      1.339911  
    1141A      1.341376  1142A      1.341771  1143A      1.347384  
    1144A      1.350576  1145A      1.351575  1146A      1.352360  
    1147A      1.353643  1148A      1.353930  1149A      1.354601  
    1150A      1.357641  1151A      1.360401  1152A      1.361570  
    1153A      1.363622  1154A      1.364031  1155A      1.364811  
    1156A      1.372310  1157A      1.373157  1158A      1.374101  
    1159A      1.374916  1160A      1.376594  1161A      1.377132  
    1162A      1.378789  1163A      1.380770  1164A      1.383450  
    1165A      1.384404  1166A      1.386003  1167A      1.386488  
    1168A      1.389275  1169A      1.389442  1170A      1.394013  
    1171A      1.394581  1172A      1.395095  1173A      1.396847  
    1174A      1.401435  1175A      1.401677  1176A      1.414756  
    1177A      1.415623  1178A      1.416755  1179A      1.417212  
    1180A      1.420265  1181A      1.420713  1182A      1.421888  
    1183A      1.422640  1184A      1.423186  1185A      1.423227  
    1186A      1.430157  1187A      1.433231  1188A      1.433429  
    1189A      1.435699  1190A      1.436348  1191A      1.438569  
    1192A      1.447747  1193A      1.447881  1194A      1.448190  
    1195A      1.451979  1196A      1.452290  1197A      1.456062  
    1198A      1.456417  1199A      1.462924  1200A      1.466454  
    1201A      1.468411  1202A      1.468451  1203A      1.469911  
    1204A      1.470441  1205A      1.470582  1206A      1.471491  
    1207A      1.476650  1208A      1.477111  1209A      1.482991  
    1210A      1.483143  1211A      1.485468  1212A      1.488187  
    1213A      1.488512  1214A      1.489278  1215A      1.489812  
    1216A      1.492333  1217A      1.493176  1218A      1.496675  
    1219A      1.497934  1220A      1.499131  1221A      1.500860  
    1222A      1.502676  1223A      1.503570  1224A      1.504750  
    1225A      1.512353  1226A      1.512701  1227A      1.514741  
    1228A      1.515980  1229A      1.516464  1230A      1.516915  
    1231A      1.521083  1232A      1.528988  1233A      1.532493  
    1234A      1.532655  1235A      1.533792  1236A      1.534418  
    1237A      1.534936  1238A      1.536820  1239A      1.542620  
    1240A      1.545200  1241A      1.545604  1242A      1.545807  
    1243A      1.553755  1244A      1.559052  1245A      1.559530  
    1246A      1.561373  1247A      1.564865  1248A      1.567475  
    1249A      1.567907  1250A      1.568840  1251A      1.579528  
    1252A      1.581911  1253A      1.598435  1254A      1.598652  
    1255A      1.601360  1256A      1.607404  1257A      1.616073  
    1258A      1.616104  1259A      1.646832  1260A      1.647644  
    1261A      1.652211  1262A      1.654876  1263A      1.656834  
    1264A      1.664528  1265A      1.666438  1266A      1.669459  
    1267A      1.669868  1268A      1.670061  1269A      1.671649  
    1270A      1.673439  1271A      1.673901  1272A      1.674512  
    1273A      1.676516  1274A      1.678304  1275A      1.679188  
    1276A      1.679322  1277A      1.680897  1278A      1.682308  
    1279A      1.682672  1280A      1.685975  1281A      1.687133  
    1282A      1.687464  1283A      1.688969  1284A      1.689602  
    1285A      1.690899  1286A      1.694037  1287A      1.696766  
    1288A      1.697259  1289A      1.698491  1290A      1.699647  
    1291A      1.699885  1292A      1.700874  1293A      1.701367  
    1294A      1.701910  1295A      1.702392  1296A      1.703106  
    1297A      1.704265  1298A      1.704517  1299A      1.706162  
    1300A      1.709537  1301A      1.712263  1302A      1.712457  
    1303A      1.716575  1304A      1.716885  1305A      1.718006  
    1306A      1.718325  1307A      1.727913  1308A      1.728137  
    1309A      1.731039  1310A      1.731258  1311A      1.731559  
    1312A      1.732391  1313A      1.733518  1314A      1.735214  
    1315A      1.736331  1316A      1.737296  1317A      1.740638  
    1318A      1.741489  1319A      1.748426  1320A      1.750459  
    1321A      1.754894  1322A      1.755106  1323A      1.758883  
    1324A      1.759140  1325A      1.760133  1326A      1.761475  
    1327A      1.768707  1328A      1.768783  1329A      1.771768  
    1330A      1.775474  1331A      1.775628  1332A      1.776320  
    1333A      1.779580  1334A      1.781462  1335A      1.784642  
    1336A      1.785106  1337A      1.787036  1338A      1.787092  
    1339A      1.790960  1340A      1.798336  1341A      1.808149  
    1342A      1.808422  1343A      1.809584  1344A      1.809833  
    1345A      1.811024  1346A      1.825522  1347A      1.827078  
    1348A      1.827861  1349A      1.840837  1350A      1.842413  
    1351A      1.844640  1352A      1.845154  1353A      1.866907  
    1354A      1.867093  1355A      1.871069  1356A      1.879273  
    1357A      1.883601  1358A      1.885976  1359A      1.886446  
    1360A      1.886989  1361A      1.887371  1362A      1.887826  
    1363A      1.892569  1364A      1.893872  1365A      1.894674  
    1366A      1.899164  1367A      1.900059  1368A      1.900509  
    1369A      1.900887  1370A      1.908628  1371A      1.909769  
    1372A      1.913481  1373A      1.914262  1374A      1.920642  
    1375A      1.921289  1376A      1.925141  1377A      1.925207  
    1378A      1.926712  1379A      1.928492  1380A      1.930131  
    1381A      1.932067  1382A      1.932139  1383A      1.933106  
    1384A      1.933373  1385A      1.939305  1386A      1.939647  
    1387A      1.940314  1388A      1.942783  1389A      1.944538  
    1390A      1.945085  1391A      1.945883  1392A      1.948522  
    1393A      1.951125  1394A      1.953548  1395A      1.962228  
    1396A      1.962855  1397A      1.963783  1398A      1.965709  
    1399A      1.967451  1400A      1.970559  1401A      1.971159  
    1402A      1.978696  1403A      1.979040  1404A      1.983803  
    1405A      1.985047  1406A      1.985173  1407A      1.987330  
    1408A      1.987659  1409A      1.988917  1410A      1.994755  
    1411A      1.994965  1412A      1.997119  1413A      1.997924  
    1414A      1.999074  1415A      1.999378  1416A      2.002672  
    1417A      2.003867  1418A      2.004051  1419A      2.005364  
    1420A      2.008036  1421A      2.010329  1422A      2.015324  
    1423A      2.016521  1424A      2.017363  1425A      2.019654  
    1426A      2.020071  1427A      2.021551  1428A      2.024529  
    1429A      2.024639  1430A      2.027240  1431A      2.029003  
    1432A      2.030434  1433A      2.032644  1434A      2.034310  
    1435A      2.036683  1436A      2.039838  1437A      2.044652  
    1438A      2.045882  1439A      2.046586  1440A      2.048001  
    1441A      2.048966  1442A      2.049832  1443A      2.051161  
    1444A      2.055281  1445A      2.055904  1446A      2.058867  
    1447A      2.063171  1448A      2.064198  1449A      2.068787  
    1450A      2.071417  1451A      2.071991  1452A      2.072731  
    1453A      2.074821  1454A      2.076777  1455A      2.077596  
    1456A      2.079125  1457A      2.079516  1458A      2.082174  
    1459A      2.082496  1460A      2.083629  1461A      2.085086  
    1462A      2.088402  1463A      2.090929  1464A      2.091481  
    1465A      2.092696  1466A      2.093419  1467A      2.097087  
    1468A      2.097621  1469A      2.098765  1470A      2.100019  
    1471A      2.104304  1472A      2.108713  1473A      2.109896  
    1474A      2.111787  1475A      2.116201  1476A      2.117574  
    1477A      2.118022  1478A      2.120281  1479A      2.122646  
    1480A      2.123908  1481A      2.125152  1482A      2.126952  
    1483A      2.127999  1484A      2.130543  1485A      2.131344  
    1486A      2.133345  1487A      2.138171  1488A      2.139159  
    1489A      2.141184  1490A      2.141845  1491A      2.142962  
    1492A      2.143412  1493A      2.143676  1494A      2.145826  
    1495A      2.146369  1496A      2.146488  1497A      2.148424  
    1498A      2.148562  1499A      2.150177  1500A      2.150552  
    1501A      2.151163  1502A      2.152855  1503A      2.153367  
    1504A      2.154878  1505A      2.158707  1506A      2.159347  
    1507A      2.160711  1508A      2.162243  1509A      2.163497  
    1510A      2.164540  1511A      2.165536  1512A      2.166007  
    1513A      2.168616  1514A      2.169476  1515A      2.172180  
    1516A      2.174192  1517A      2.175449  1518A      2.176736  
    1519A      2.177295  1520A      2.177787  1521A      2.178636  
    1522A      2.181166  1523A      2.181713  1524A      2.186944  
    1525A      2.187889  1526A      2.188029  1527A      2.190648  
    1528A      2.190688  1529A      2.191400  1530A      2.193542  
    1531A      2.195593  1532A      2.200169  1533A      2.200847  
    1534A      2.202597  1535A      2.203079  1536A      2.203379  
    1537A      2.204922  1538A      2.205683  1539A      2.206191  
    1540A      2.213341  1541A      2.216261  1542A      2.217949  
    1543A      2.219685  1544A      2.220554  1545A      2.220905  
    1546A      2.221025  1547A      2.221608  1548A      2.222307  
    1549A      2.223449  1550A      2.224360  1551A      2.231920  
    1552A      2.232936  1553A      2.238329  1554A      2.240723  
    1555A      2.242256  1556A      2.242578  1557A      2.251313  
    1558A      2.253078  1559A      2.255168  1560A      2.255707  
    1561A      2.256742  1562A      2.258879  1563A      2.260219  
    1564A      2.260547  1565A      2.261250  1566A      2.262648  
    1567A      2.264755  1568A      2.265645  1569A      2.266270  
    1570A      2.267739  1571A      2.269799  1572A      2.271120  
    1573A      2.275455  1574A      2.277170  1575A      2.279845  
    1576A      2.281763  1577A      2.282067  1578A      2.282900  
    1579A      2.287362  1580A      2.287765  1581A      2.288923  
    1582A      2.289596  1583A      2.290851  1584A      2.292151  
    1585A      2.294566  1586A      2.299224  1587A      2.302355  
    1588A      2.303091  1589A      2.305812  1590A      2.306008  
    1591A      2.306424  1592A      2.313865  1593A      2.316402  
    1594A      2.319297  1595A      2.320855  1596A      2.322999  
    1597A      2.325249  1598A      2.326743  1599A      2.327416  
    1600A      2.334009  1601A      2.339673  1602A      2.343113  
    1603A      2.344992  1604A      2.350141  1605A      2.351337  
    1606A      2.355408  1607A      2.359170  1608A      2.363787  
    1609A      2.363956  1610A      2.369322  1611A      2.384442  
    1612A      2.385373  1613A      2.385568  1614A      2.387339  
    1615A      2.388572  1616A      2.390138  1617A      2.390319  
    1618A      2.393898  1619A      2.395464  1620A      2.396579  
    1621A      2.397597  1622A      2.401133  1623A      2.403043  
    1624A      2.403201  1625A      2.404791  1626A      2.406159  
    1627A      2.406352  1628A      2.406911  1629A      2.413473  
    1630A      2.413770  1631A      2.433800  1632A      2.437689  
    1633A      2.439543  1634A      2.444040  1635A      2.448402  
    1636A      2.453969  1637A      2.456511  1638A      2.457704  
    1639A      2.460184  1640A      2.478802  1641A      2.480472  
    1642A      2.485353  1643A      2.488117  1644A      2.495217  
    1645A      2.502887  1646A      2.504295  1647A      2.514532  
    1648A      2.515001  1649A      2.524501  1650A      2.524733  
    1651A      2.528053  1652A      2.528355  1653A      2.531696  
    1654A      2.531989  1655A      2.550099  1656A      2.550405  
    1657A      2.557212  1658A      2.561127  1659A      2.565663  
    1660A      2.566524  1661A      2.569845  1662A      2.576233  
    1663A      2.599973  1664A      2.600564  1665A      2.601173  
    1666A      2.602314  1667A      2.603063  1668A      2.606100  
    1669A      2.606993  1670A      2.607836  1671A      2.610848  
    1672A      2.611742  1673A      2.619745  1674A      2.620056  
    1675A      2.624998  1676A      2.629562  1677A      2.631243  
    1678A      2.637961  1679A      2.641178  1680A      2.641742  
    1681A      2.644966  1682A      2.645826  1683A      2.646054  
    1684A      2.646229  1685A      2.650260  1686A      2.653215  
    1687A      2.661109  1688A      2.661289  1689A      2.673043  
    1690A      2.673240  1691A      2.673654  1692A      2.674011  
    1693A      2.677467  1694A      2.678213  1695A      2.693457  
    1696A      2.701189  1697A      2.701753  1698A      2.704177  
    1699A      2.706287  1700A      2.707045  1701A      2.710344  
    1702A      2.711336  1703A      2.711536  1704A      2.714929  
    1705A      2.715385  1706A      2.726053  1707A      2.727816  
    1708A      2.728900  1709A      2.728971  1710A      2.729626  
    1711A      2.736156  1712A      2.736405  1713A      2.736695  
    1714A      2.745167  1715A      2.747162  1716A      2.748523  
    1717A      2.751836  1718A      2.752263  1719A      2.752635  
    1720A      2.753662  1721A      2.756898  1722A      2.758027  
    1723A      2.765999  1724A      2.780046  1725A      2.789419  
    1726A      2.789946  1727A      2.790389  1728A      2.791582  
    1729A      2.791699  1730A      2.813508  1731A      2.824575  
    1732A      2.824917  1733A      2.837727  1734A      2.840039  
    1735A      2.842109  1736A      2.842764  1737A      2.862081  
    1738A      2.862272  1739A      2.864365  1740A      2.864567  
    1741A      2.866489  1742A      2.874210  1743A      2.876629  
    1744A      2.877120  1745A      2.877714  1746A      2.878539  
    1747A      2.881483  1748A      2.891756  1749A      2.892141  
    1750A      2.901705  1751A      2.903572  1752A      2.903851  
    1753A      2.904286  1754A      2.906861  1755A      2.927100  
    1756A      2.927507  1757A      2.927841  1758A      2.930907  
    1759A      2.931488  1760A      2.935615  1761A      2.960851  
    1762A      2.961688  1763A      2.973835  1764A      2.975992  
    1765A      2.976268  1766A      2.985400  1767A      2.987968  
    1768A      2.994497  1769A      2.994737  1770A      3.002755  
    1771A      3.023735  1772A      3.024480  1773A      3.025820  
    1774A      3.035736  1775A      3.050393  1776A      3.051953  
    1777A      3.059019  1778A      3.062688  1779A      3.090336  
    1780A      3.091300  1781A      3.095097  1782A      3.097558  
    1783A      3.106633  1784A      3.108541  1785A      3.109319  
    1786A      3.119088  1787A      3.119168  1788A      3.120116  
    1789A      3.133593  1790A      3.166697  1791A      3.171683  
    1792A      3.172022  1793A      3.183025  1794A      3.188529  
    1795A      3.188997  1796A      3.193855  1797A      3.195233  
    1798A      3.201252  1799A      3.201839  1800A      3.208362  
    1801A      3.208864  1802A      3.210334  1803A      3.210961  
    1804A      3.211823  1805A      3.219974  1806A      3.230979  
    1807A      3.231359  1808A      3.233719  1809A      3.233932  
    1810A      3.251563  1811A      3.252321  1812A      3.277966  
    1813A      3.304497  1814A      3.313067  1815A      3.317655  
    1816A      3.321889  1817A      3.323464  1818A      3.324053  
    1819A      3.326872  1820A      3.328842  1821A      3.331235  
    1822A      3.334946  1823A      3.335164  1824A      3.356479  
    1825A      3.357841  1826A      3.361423  1827A      3.365044  
    1828A      3.424328  1829A      3.425012  1830A      3.434316  
    1831A      3.478905  1832A      3.492485  1833A      3.497593  
    1834A      3.505984  1835A      3.515139  1836A      3.516082  
    1837A      3.526870  1838A      3.527901  1839A      3.530899  
    1840A      3.534859  1841A      3.537434  1842A      3.548614  
    1843A      3.550770  1844A      3.561560  1845A      3.571935  
    1846A      3.605166  1847A      3.636691  1848A      3.639021  
    1849A      3.646958  1850A      3.650733  1851A      3.702430  
    1852A      3.706718  1853A      3.727196  1854A      3.729202  
    1855A      3.767933  1856A      3.810390  1857A      3.811379  
    1858A      3.813471  1859A      3.827191  1860A      3.838463  
    1861A      3.846538  1862A      3.902645  1863A      3.904825  
    1864A      3.932209  1865A      3.935642  1866A      3.967906  
    1867A      3.975017  1868A      4.004078  1869A      4.007050  
    1870A      4.009576  1871A      4.010578  1872A      4.021567  
    1873A      4.031601  1874A      4.037074  1875A      4.088205  
    1876A      4.091256  1877A      4.139311  1878A      4.168398  
    1879A      4.168932  1880A      4.169602  1881A      4.197458  
    1882A      4.197712  1883A      4.198338  1884A      4.200159  
    1885A      4.200837  1886A      4.232571  1887A      4.238488  
    1888A      4.249771  1889A      4.301316  1890A      4.373297  
    1891A      4.443754  1892A      4.444500  1893A      4.445149  
    1894A      4.466468  1895A      4.646084  1896A      4.654095  
    1897A      4.654368  1898A      4.746451  1899A      4.781856  
    1900A      4.783718  

    Final Occupation by Irrep:
              A 
    DOCC [   321 ]
    NA   [   321 ]
    NB   [   321 ]

  @DF-RHF Final Energy: -4073.10824335920279

   => Energetics <=

    Nuclear Repulsion Energy =          17481.4958339757467911
    One-Electron Energy =              -40448.7887218277319334
    Two-Electron Energy =               18894.1846444927832636
    Total Energy =                      -4073.1082433592018788

Computation Completed


Properties will be evaluated at   0.000000,   0.000000,   0.000000 [a0]

Properties computed using the SCF density matrix


 Multipole Moments:

 ------------------------------------------------------------------------------------
     Multipole            Electronic (a.u.)      Nuclear  (a.u.)        Total (a.u.)
 ------------------------------------------------------------------------------------

 L = 1.  Multiply by 2.5417464519 to convert [e a0] to [Debye]
 Dipole X            :          0.0004169           -0.0001188            0.0002981
 Dipole Y            :          0.0012908           -0.0002727            0.0010181
 Dipole Z            :         22.2277856          -29.7560959           -7.5283104
 Magnitude           :                                                    7.5283104

 ------------------------------------------------------------------------------------

*** tstop() called on n2cn0502 at Sat Jan 27 14:46:42 2024
Module time:
	user time   =   24285.33 seconds =     404.76 minutes
	system time =    1273.96 seconds =      21.23 minutes
	total time  =      12015 seconds =     200.25 minutes
Total time:
	user time   =   24285.33 seconds =     404.76 minutes
	system time =    1273.96 seconds =      21.23 minutes
	total time  =      12015 seconds =     200.25 minutes

  //>>>>>>>>>>>>>>>>>>>>>>>>>>>>>>>>>>>//
  //            Monomer A HF           //
  //<<<<<<<<<<<<<<<<<<<<<<<<<<<<<<<<<<<//

   => Libint2 <=

    Primary   basis highest AM E, G, H:  5, 4, 3
    Auxiliary basis highest AM E, G, H:  6, 5, 4
    Onebody   basis highest AM E, G, H:  6, 5, 4
    Solid Harmonics ordering:            gaussian

*** tstart() called on n2cn0502
*** at Sat Jan 27 14:46:42 2024

   => Loading Basis Set <=

    Name: JUN-CC-PVDZ
    Role: ORBITAL
    Keyword: BASIS
    atoms 1                                                   entry B          line   130 file /opt/software/pc2/EB-SW/software/PSI4/1.9-foss-2022a/share/psi4/basis/jun-cc-pvdz.gbs 
    atoms 2-5                                                 entry F          line   266 file /opt/software/pc2/EB-SW/software/PSI4/1.9-foss-2022a/share/psi4/basis/jun-cc-pvdz.gbs 
    atoms 6-23, 30-42, 45-59, 62-78, 81-93, 98-108, 111-119   entry C          line   164 file /opt/software/pc2/EB-SW/software/PSI4/1.9-foss-2022a/share/psi4/basis/jun-cc-pvdz.gbs 
    atoms 24-29, 43-44, 60-61, 79-80, 94-97, 109-110, 120-125 entry H          line    36 file /opt/software/pc2/EB-SW/software/PSI4/1.9-foss-2022a/share/psi4/basis/jun-cc-pvdz.gbs 


         ---------------------------------------------------------
                                   SCF
               by Justin Turney, Rob Parrish, Andy Simmonett
                          and Daniel G. A. Smith
                              RHF Reference
                       16 Threads,  61035 MiB Core
         ---------------------------------------------------------

  ==> Geometry <==

    Molecular point group: c1
    Full point group: C1

    Geometry (in Angstrom), charge = -1, multiplicity = 1:

       Center              X                  Y                   Z               Mass       
    ------------   -----------------  -----------------  -----------------  -----------------
         B           -0.000050191042     0.000351518223     4.655613296801    11.009305360000
         F           -1.153601191042     0.000062518223     5.471260296801    18.998403162730
         F            1.153656808958    -0.000566481777     5.471260296801    18.998403162730
         F           -0.000023191042    -1.153622481777     3.839979296801    18.998403162730
         F           -0.000023191042     1.153992518223     3.839979296801    18.998403162730
      Gh(C)          -3.668445455062     7.803766688305    -0.342480661863    12.000000000000
      Gh(C)          -4.847602910388     7.131256349563    -0.344847236796    12.000000000000
      Gh(C)          -4.894963490217     5.696344921754    -0.345420147894    12.000000000000
      Gh(C)          -3.653744869815     4.980744859182    -0.337759706165    12.000000000000
      Gh(C)          -2.409429312536     7.113995554897    -0.342286319603    12.000000000000
      Gh(C)          -2.425481535146     5.681136469126    -0.349291208473    12.000000000000
      Gh(C)          -1.194748207477     7.786158712532    -0.340814139061    12.000000000000
      Gh(C)           0.037954837895     7.099436163980    -0.342984843366    12.000000000000
      Gh(C)           0.030328396378     5.669504077927    -0.348468228282    12.000000000000
      Gh(C)          -1.200988698947     4.969284866138    -0.339498494349    12.000000000000
      Gh(C)           1.277953634773     7.772873961417    -0.341608994806    12.000000000000
      Gh(C)           2.485353893683     7.087711403460    -0.343883482710    12.000000000000
      Gh(C)           2.486124493876     5.654785328463    -0.350821231698    12.000000000000
      Gh(C)           1.254078728602     4.956092631887    -0.339193290110    12.000000000000
      Gh(C)           3.751710400364     7.763926669203    -0.343756631330    12.000000000000
      Gh(C)           4.923561865144     7.078795295213    -0.345813112038    12.000000000000
      Gh(C)           4.955603080284     5.643461981592    -0.345973524845    12.000000000000
      Gh(C)           3.706797343163     4.941224726556    -0.340881964675    12.000000000000
      Gh(H)          -3.658525328800     8.890841937358    -0.340795673613     1.007825032230
      Gh(H)          -1.189217520798     8.874135605583    -0.336842262620     1.007825032230
      Gh(H)           1.284290047845     8.860847953711    -0.337450170665     1.007825032230
      Gh(H)           3.753537895758     8.851049797195    -0.342234107014     1.007825032230
      Gh(H)           5.869954512165     7.613809352878    -0.346738479080     1.007825032230
      Gh(H)          -5.788235898544     7.676316731157    -0.346407084152     1.007825032230
      Gh(C)          -6.091978149738     4.993274531866    -0.347292388385    12.000000000000
[...]
    1498A      2.112651  1499A      2.113008  1500A      2.114082  
    1501A      2.115038  1502A      2.116402  1503A      2.117436  
    1504A      2.119115  1505A      2.120126  1506A      2.127142  
    1507A      2.127413  1508A      2.127961  1509A      2.128254  
    1510A      2.128824  1511A      2.129292  1512A      2.132117  
    1513A      2.132692  1514A      2.137486  1515A      2.138372  
    1516A      2.138951  1517A      2.143049  1518A      2.143180  
    1519A      2.143663  1520A      2.144543  1521A      2.145254  
    1522A      2.147946  1523A      2.155157  1524A      2.156263  
    1525A      2.157875  1526A      2.159407  1527A      2.159673  
    1528A      2.160308  1529A      2.160656  1530A      2.161443  
    1531A      2.163147  1532A      2.163447  1533A      2.171657  
    1534A      2.172130  1535A      2.180524  1536A      2.181031  
    1537A      2.182259  1538A      2.182586  1539A      2.189533  
    1540A      2.191569  1541A      2.191822  1542A      2.192388  
    1543A      2.194785  1544A      2.195572  1545A      2.197871  
    1546A      2.199313  1547A      2.200701  1548A      2.201159  
    1549A      2.201930  1550A      2.202604  1551A      2.205540  
    1552A      2.206832  1553A      2.208210  1554A      2.211055  
    1555A      2.214319  1556A      2.215474  1557A      2.220217  
    1558A      2.222395  1559A      2.222812  1560A      2.225016  
    1561A      2.225211  1562A      2.225528  1563A      2.229003  
    1564A      2.232046  1565A      2.232491  1566A      2.233725  
    1567A      2.238906  1568A      2.239081  1569A      2.239735  
    1570A      2.241958  1571A      2.247777  1572A      2.248298  
    1573A      2.251536  1574A      2.253522  1575A      2.261994  
    1576A      2.262922  1577A      2.265549  1578A      2.266552  
    1579A      2.267378  1580A      2.269960  1581A      2.277017  
    1582A      2.283029  1583A      2.284447  1584A      2.291111  
    1585A      2.291621  1586A      2.296580  1587A      2.296897  
    1588A      2.304217  1589A      2.304376  1590A      2.309192  
    1591A      2.319910  1592A      2.324946  1593A      2.325133  
    1594A      2.325528  1595A      2.327388  1596A      2.329877  
    1597A      2.330628  1598A      2.331566  1599A      2.333225  
    1600A      2.334895  1601A      2.335271  1602A      2.340207  
    1603A      2.341743  1604A      2.342322  1605A      2.342416  
    1606A      2.345006  1607A      2.345884  1608A      2.346371  
    1609A      2.349157  1610A      2.349519  1611A      2.368812  
    1612A      2.372988  1613A      2.373702  1614A      2.384140  
    1615A      2.388040  1616A      2.391866  1617A      2.393625  
    1618A      2.394685  1619A      2.397404  1620A      2.418497  
    1621A      2.419821  1622A      2.423915  1623A      2.427806  
    1624A      2.432269  1625A      2.442272  1626A      2.443735  
    1627A      2.452590  1628A      2.453164  1629A      2.464508  
    1630A      2.464661  1631A      2.468054  1632A      2.468244  
    1633A      2.471971  1634A      2.472228  1635A      2.491192  
    1636A      2.491488  1637A      2.495323  1638A      2.502017  
    1639A      2.506713  1640A      2.507859  1641A      2.511609  
    1642A      2.516346  1643A      2.539549  1644A      2.539674  
    1645A      2.540168  1646A      2.542136  1647A      2.543074  
    1648A      2.545166  1649A      2.547693  1650A      2.548966  
    1651A      2.549396  1652A      2.551512  1653A      2.556628  
    1654A      2.556805  1655A      2.564286  1656A      2.571384  
    1657A      2.571575  1658A      2.580134  1659A      2.584011  
    1660A      2.584577  1661A      2.585182  1662A      2.586315  
    1663A      2.588708  1664A      2.588923  1665A      2.593244  
    1666A      2.593601  1667A      2.601543  1668A      2.601684  
    1669A      2.613221  1670A      2.613509  1671A      2.613914  
    1672A      2.614250  1673A      2.617319  1674A      2.618106  
    1675A      2.632682  1676A      2.640736  1677A      2.641620  
    1678A      2.643859  1679A      2.645597  1680A      2.647854  
    1681A      2.649101  1682A      2.649544  1683A      2.653458  
    1684A      2.655988  1685A      2.656198  1686A      2.666125  
    1687A      2.666239  1688A      2.667703  1689A      2.670555  
    1690A      2.670687  1691A      2.673810  1692A      2.677583  
    1693A      2.678143  1694A      2.684625  1695A      2.685872  
    1696A      2.687541  1697A      2.691287  1698A      2.691470  
    1699A      2.691860  1700A      2.693155  1701A      2.696132  
    1702A      2.697388  1703A      2.704230  1704A      2.720857  
    1705A      2.730790  1706A      2.731069  1707A      2.731263  
    1708A      2.731558  1709A      2.732060  1710A      2.753097  
    1711A      2.760646  1712A      2.760979  1713A      2.773381  
    1714A      2.776235  1715A      2.780205  1716A      2.780619  
    1717A      2.799455  1718A      2.799986  1719A      2.802170  
    1720A      2.802295  1721A      2.802477  1722A      2.809528  
    1723A      2.812684  1724A      2.815042  1725A      2.815857  
    1726A      2.816372  1727A      2.816867  1728A      2.827045  
    1729A      2.828351  1730A      2.831790  1731A      2.839595  
    1732A      2.840189  1733A      2.842200  1734A      2.842812  
    1735A      2.845030  1736A      2.847422  1737A      2.865168  
    1738A      2.865421  1739A      2.867060  1740A      2.867768  
    1741A      2.871170  1742A      2.873919  1743A      2.875280  
    1744A      2.896025  1745A      2.896917  1746A      2.917279  
    1747A      2.917802  1748A      2.917962  1749A      2.927519  
    1750A      2.929807  1751A      2.935448  1752A      2.935529  
    1753A      2.963841  1754A      2.965426  1755A      2.965740  
    1756A      2.976315  1757A      2.992046  1758A      2.992953  
    1759A      3.029802  1760A      3.030526  1761A      3.035874  
    1762A      3.038698  1763A      3.047063  1764A      3.047916  
    1765A      3.048162  1766A      3.057677  1767A      3.057689  
    1768A      3.063667  1769A      3.072994  1770A      3.108511  
    1771A      3.113184  1772A      3.113322  1773A      3.122786  
    1774A      3.127808  1775A      3.127823  1776A      3.133113  
    1777A      3.134553  1778A      3.142444  1779A      3.143154  
    1780A      3.148644  1781A      3.149231  1782A      3.149984  
    1783A      3.150319  1784A      3.153677  1785A      3.162140  
    1786A      3.167958  1787A      3.173232  1788A      3.175290  
    1789A      3.175502  1790A      3.193195  1791A      3.193925  
    1792A      3.220166  1793A      3.253222  1794A      3.259844  
    1795A      3.261796  1796A      3.261982  1797A      3.262952  
    1798A      3.264862  1799A      3.268816  1800A      3.271450  
    1801A      3.275146  1802A      3.275580  1803A      3.295411  
    1804A      3.296515  1805A      3.298951  1806A      3.304373  
    1807A      3.361739  1808A      3.362603  1809A      3.371021  
    1810A      3.416032  1811A      3.430222  1812A      3.433480  
    1813A      3.437286  1814A      3.449660  1815A      3.451163  
    1816A      3.462680  1817A      3.465149  1818A      3.466475  
    1819A      3.471852  1820A      3.474316  1821A      3.484393  
    1822A      3.486297  1823A      3.496916  1824A      3.509261  
    1825A      3.540801  1826A      3.574339  1827A      3.576369  
    1828A      3.584119  1829A      3.590229  1830A      3.639066  
    1831A      3.642441  1832A      3.665612  1833A      3.667572  
    1834A      3.705486  1835A      3.748242  1836A      3.750346  
    1837A      3.750871  1838A      3.763122  1839A      3.778634  
    1840A      3.781148  1841A      3.842393  1842A      3.843726  
    1843A      3.871550  1844A      3.874854  1845A      3.906528  
    1846A      3.913577  1847A      3.939205  1848A      3.941472  
    1849A      3.948602  1850A      3.949469  1851A      3.958978  
    1852A      3.966595  1853A      3.972370  1854A      4.024738  
    1855A      4.027538  1856A      4.073703  1857A      4.227882  
    1858A      4.230628  1859A      4.284742  1860A      4.295506  
    1861A      4.306223  1862A      4.377382  1863A      4.398101  
    1864A      5.751458  1865A      5.752233  1866A      5.757025  
    1867A      5.758046  1868A      5.760641  1869A      5.762207  
    1870A      5.764529  1871A      5.765607  1872A      5.787426  
    1873A      5.791924  1874A      5.800506  1875A      6.022782  
    1876A      6.023972  1877A      6.024710  1878A      6.199163  
    1879A      6.329717  1880A      6.329955  1881A      6.380855  
    1882A      6.382723  1883A      6.383256  1884A      7.179846  
    1885A      7.247649  1886A      7.266698  1887A      7.273747  
    1888A      7.300337  1889A      7.302152  1890A      7.311799  
    1891A      7.318511  1892A      7.484499  1893A      7.529527  
    1894A      7.576569  1895A      7.683998  1896A     12.634400  
    1897A     42.917567  1898A     42.929202  1899A     42.935115  
    1900A     42.949473  

    Final Occupation by Irrep:
              A 
    DOCC [   300 ]
    NA   [   300 ]
    NB   [   300 ]

  @DF-RHF Final Energy: -3650.33888144276534

   => Energetics <=

    Nuclear Repulsion Energy =          15611.4211649754324753
    One-Electron Energy =              -36072.1160035730499658
    Two-Electron Energy =               16810.3559571548539679
    Total Energy =                      -3650.3388814427635225

Computation Completed


Properties will be evaluated at   0.000000,   0.000000,   0.000000 [a0]

Properties computed using the SCF density matrix


 Multipole Moments:

 ------------------------------------------------------------------------------------
     Multipole            Electronic (a.u.)      Nuclear  (a.u.)        Total (a.u.)
 ------------------------------------------------------------------------------------

 L = 1.  Multiply by 2.5417464519 to convert [e a0] to [Debye]
 Dipole X            :         -0.0006801            0.0001983           -0.0004818
 Dipole Y            :          0.0011243           -0.0013163           -0.0001920
 Dipole Z            :        390.4619064         -390.4677353           -0.0058288
 Magnitude           :                                                    0.0058518

 ------------------------------------------------------------------------------------

*** tstop() called on n2cn0502 at Sat Jan 27 17:37:05 2024
Module time:
	user time   =   16739.34 seconds =     278.99 minutes
	system time =    1378.41 seconds =      22.97 minutes
	total time  =       6514 seconds =     108.57 minutes
Total time:
	user time   =   44974.06 seconds =     749.57 minutes
	system time =    2960.61 seconds =      49.34 minutes
	total time  =      22238 seconds =     370.63 minutes
  Constructing Basis Sets for SAPT...

   => Loading Basis Set <=

    Name: (JUN-CC-PVDZ AUX)
    Role: RIFIT
    Keyword: DF_BASIS_SAPT
    atoms 1                                                   entry B          line    56 file /opt/software/pc2/EB-SW/software/PSI4/1.9-foss-2022a/share/psi4/basis/jun-cc-pvdz-ri.gbs 
    atoms 2-5                                                 entry F          line   232 file /opt/software/pc2/EB-SW/software/PSI4/1.9-foss-2022a/share/psi4/basis/jun-cc-pvdz-ri.gbs 
    atoms 6-23, 30-42, 45-59, 62-78, 81-93, 98-108, 111-119   entry C          line   100 file /opt/software/pc2/EB-SW/software/PSI4/1.9-foss-2022a/share/psi4/basis/jun-cc-pvdz-ri.gbs 
    atoms 24-29, 43-44, 60-61, 79-80, 94-97, 109-110, 120-125 entry H          line    30 file /opt/software/pc2/EB-SW/software/PSI4/1.9-foss-2022a/share/psi4/basis/jun-cc-pvdz-ri.gbs 

   => Loading Basis Set <=

    Name: (JUN-CC-PVDZ AUX)
    Role: JKFIT
    Keyword: DF_BASIS_ELST
    atoms 1                                                   entry B          line    90 file /opt/software/pc2/EB-SW/software/PSI4/1.9-foss-2022a/share/psi4/basis/jun-cc-pvdz-jkfit.gbs 
    atoms 2-5                                                 entry F          line   314 file /opt/software/pc2/EB-SW/software/PSI4/1.9-foss-2022a/share/psi4/basis/jun-cc-pvdz-jkfit.gbs 
    atoms 6-23, 30-42, 45-59, 62-78, 81-93, 98-108, 111-119   entry C          line   146 file /opt/software/pc2/EB-SW/software/PSI4/1.9-foss-2022a/share/psi4/basis/jun-cc-pvdz-jkfit.gbs 
    atoms 24-29, 43-44, 60-61, 79-80, 94-97, 109-110, 120-125 entry H          line    70 file /opt/software/pc2/EB-SW/software/PSI4/1.9-foss-2022a/share/psi4/basis/jun-cc-pvdz-jkfit.gbs 


  //>>>>>>>>>>>>>>>>>>>>>>>>>>>>>>>>>>>//
  //               SSAPT0              //
  //<<<<<<<<<<<<<<<<<<<<<<<<<<<<<<<<<<<//


*** tstart() called on n2cn0502
*** at Sat Jan 27 17:37:07 2024

        SAPT0  
    Ed Hohenstein
     6 June 2009

      Orbital Information
  --------------------------
    NSO        =      1938
    NMO        =      1900
    NRI        =      6901
    NRI (Elst) =      8531
    NOCC A     =        21
    NOCC B     =       300
    FOCC A     =         5
    FOCC B     =        96
    NVIR A     =      1879
    NVIR B     =      1600

    Elst10,r            =     0.011084795496 [Eh]
    Exch10              =     0.000125115410 [Eh]
    Exch10 (S^2)        =     0.000125118034 [Eh]

    Iter     Energy [mEh]          dE [mEh]         Residual      Time [s]
       1      -0.01577097       0.015770967       0.583273585           713
       2      -0.01811744       0.002346470       0.266314278          1360
       3      -0.01856638       0.000448948       0.049247317          2070
       4      -0.01851310      -0.000053283       0.012336324          2933
       5      -0.01850469      -0.000008410       0.001897457          3532
       6      -0.01850683       0.000002144       0.000653005          4186
       7      -0.01850701       0.000000173       0.000161650          5062
       8      -0.01850682      -0.000000189       0.000028917          5848
       9      -0.01850683       0.000000009       0.000005265          6481
      10      -0.01850683       0.000000003       0.000000841          7045

    CHF Iterations converged


    Iter     Energy [mEh]          dE [mEh]         Residual      Time [s]
       1     -13.20798492      13.207984920      63.165089453           666
       2      -8.41809625      -4.789888665       7.628779107          1274
       3      -8.36854069      -0.049555562       2.519747251          1913
       4      -8.51855616       0.150015470       0.835347719          2543
       5      -8.54118738       0.022631215       0.285157617          3103
       6      -8.53842332      -0.002764055       0.191376033          3664
       7      -8.53409785      -0.004325474       0.076011335          4277
       8      -8.53435541       0.000257565       0.034737101          4907
       9      -8.53516730       0.000811883       0.018381003          5505
      10      -8.53509354      -0.000073758       0.018538010          6150
      11      -8.53488587      -0.000207675       0.008645337          6822
      12      -8.53488893       0.000003068       0.004141316          7458
      13      -8.53492717       0.000038240       0.001613607          8084
      14      -8.53493864       0.000011462       0.000710104          8880
      15      -8.53493541      -0.000003225       0.000461577          9709
      16      -8.53492862      -0.000006791       0.000252998         10381
      17      -8.53493154       0.000002920       0.000112261         11161
      18      -8.53493252       0.000000980       0.000034779         12200
      19      -8.53493230      -0.000000223       0.000017916         13144
      20      -8.53493209      -0.000000206       0.000007155         14153
      21      -8.53493212       0.000000029       0.000003382         15109
      22      -8.53493215       0.000000030       0.000001604         15914
      23      -8.53493215      -0.000000003       0.000000664         16729

    CHF Iterations converged

    Ind20,r (A<-B)      =    -0.000018506830 [Eh]
    Ind20,r (B<-A)      =    -0.008534932148 [Eh]
    Ind20,r             =    -0.008553438978 [Eh]
    Exch-Ind20,r (A<-B) =     0.000011420761 [Eh]
    Exch-Ind20,r (B<-A) =     0.000015001139 [Eh]
    Exch-Ind20,r        =     0.000026421899 [Eh]
    Disp20              =    -0.002501428882 [Eh]
    Disp20 (SS)         =    -0.001250714441 [Eh]
    Disp20 (OS)         =    -0.001250714441 [Eh]
    Exch-Disp20         =     0.000036649820 [Eh]
    Exch-Disp20 (SS)    =     0.000025335353 [Eh]
    Exch-Disp20 (OS)    =     0.000011314468 [Eh]

    SAPT Results 
  --------------------------------------------------------------------------------------------------------
    Electrostatics                 11.08479550 [mEh]       6.95581419 [kcal/mol]      29.10312657 [kJ/mol]
      Elst10,r                     11.08479550 [mEh]       6.95581419 [kcal/mol]      29.10312657 [kJ/mol]

    Exchange                        0.12511541 [mEh]       0.07851110 [kcal/mol]       0.32849046 [kJ/mol]
      Exch10                        0.12511541 [mEh]       0.07851110 [kcal/mol]       0.32849046 [kJ/mol]
      Exch10(S^2)                   0.12511803 [mEh]       0.07851275 [kcal/mol]       0.32849735 [kJ/mol]

    Induction                      -8.47663125 [mEh]      -5.31916642 [kcal/mol]     -22.25539229 [kJ/mol]
      Ind20,r                      -8.55343898 [mEh]      -5.36736399 [kcal/mol]     -22.45705094 [kJ/mol]
      Exch-Ind20,r                  0.02642190 [mEh]       0.01657999 [kcal/mol]       0.06937069 [kJ/mol]
      delta HF,r (2)                0.05038583 [mEh]       0.03161758 [kcal/mol]       0.13228797 [kJ/mol]

    Dispersion                     -2.46477906 [mEh]      -1.54667221 [kcal/mol]      -6.47127654 [kJ/mol]
      Disp20                       -2.50142888 [mEh]      -1.56967032 [kcal/mol]      -6.56750063 [kJ/mol]
      Exch-Disp20                   0.03664982 [mEh]       0.02299811 [kcal/mol]       0.09622409 [kJ/mol]
      Disp20 (SS)                  -1.25071444 [mEh]      -0.78483516 [kcal/mol]      -3.28375031 [kJ/mol]
      Disp20 (OS)                  -1.25071444 [mEh]      -0.78483516 [kcal/mol]      -3.28375031 [kJ/mol]
      Exch-Disp20 (SS)              0.02533535 [mEh]       0.01589817 [kcal/mol]       0.06651796 [kJ/mol]
      Exch-Disp20 (OS)              0.01131447 [mEh]       0.00709994 [kcal/mol]       0.02970613 [kJ/mol]

  Total HF                          2.73327965 [mEh]       1.71515888 [kcal/mol]       7.17622474 [kJ/mol]
  Total SAPT0                       0.26850059 [mEh]       0.16848666 [kcal/mol]       0.70494821 [kJ/mol]

  Special recipe for scaled SAPT0 (see Manual):
    Electrostatics sSAPT0          11.08479550 [mEh]       6.95581419 [kcal/mol]      29.10312657 [kJ/mol]
    Exchange sSAPT0                 0.12511541 [mEh]       0.07851110 [kcal/mol]       0.32849046 [kJ/mol]
    Induction sSAPT0               -8.47663291 [mEh]      -5.31916746 [kcal/mol]     -22.25539665 [kJ/mol]
    Dispersion sSAPT0              -2.46478137 [mEh]      -1.54667366 [kcal/mol]      -6.47128259 [kJ/mol]
  Total sSAPT0                      0.26849662 [mEh]       0.16848417 [kcal/mol]       0.70493779 [kJ/mol]
  --------------------------------------------------------------------------------------------------------

*** tstop() called on n2cn0502 at Mon Jan 29 05:07:32 2024
Module time:
	user time   =   66290.92 seconds =    1104.85 minutes
	system time =    3233.05 seconds =      53.88 minutes
	total time  =     127825 seconds =    2130.42 minutes
Total time:
	user time   =  111266.39 seconds =    1854.44 minutes
	system time =    6193.67 seconds =     103.23 minutes
	total time  =     150065 seconds =    2501.08 minutes

    Psi4 stopped on: Monday, 29 January 2024 05:07AM
    Psi4 wall time for execution: 1 day, 17:41:07.22

*** Psi4 exiting successfully. Buy a developer a beer!
