
    -----------------------------------------------------------------------
          Psi4: An Open-Source Ab Initio Electronic Structure Package
                               Psi4 1.9 release

                         Git: Rev {} zzzzzzz 


    D. G. A. Smith, L. A. Burns, A. C. Simmonett, R. M. Parrish,
    M. C. Schieber, R. Galvelis, P. Kraus, H. Kruse, R. Di Remigio,
    A. Alenaizan, A. M. James, S. Lehtola, J. P. Misiewicz, M. Scheurer,
    R. A. Shaw, J. B. Schriber, Y. Xie, Z. L. Glick, D. A. Sirianni,
    J. S. O'Brien, J. M. Waldrop, A. Kumar, E. G. Hohenstein,
    B. P. Pritchard, B. R. Brooks, H. F. Schaefer III, A. Yu. Sokolov,
    K. Patkowski, A. E. DePrince III, U. Bozkaya, R. A. King,
    F. A. Evangelista, J. M. Turney, T. D. Crawford, C. D. Sherrill,
    J. Chem. Phys. 152(18) 184108 (2020). https://doi.org/10.1063/5.0006002

                            Additional Code Authors
    E. T. Seidl, C. L. Janssen, E. F. Valeev, M. L. Leininger,
    J. F. Gonthier, R. M. Richard, H. R. McAlexander, M. Saitow, X. Wang,
    P. Verma, M. H. Lechner, A. Jiang, S. Behnle, A. G. Heide,
    M. F. Herbst, and D. L. Poole

             Previous Authors, Complete List of Code Contributors,
                       and Citations for Specific Modules
    https://github.com/psi4/psi4/blob/master/codemeta.json
    https://github.com/psi4/psi4/graphs/contributors
    http://psicode.org/psi4manual/master/introduction.html#citing-psifour

    -----------------------------------------------------------------------


    Psi4 started on: Saturday, 10 February 2024 12:41PM

    Process ID: 1383205
    Host:       n2cn0545
    PSIDATADIR: /opt/software/pc2/EB-SW/software/PSI4/1.9-foss-2022a/share/psi4
    Memory:     500.0 MiB
    Threads:    16
    
  ==> Input File <==

--------------------------------------------------------------------------
memory 48 GB # how much memory is available ! Depends on the nodes/cores !

molecule dimer {
# monomer A
+1 1    # Charge and multiplicity
C  0.680067 -0.008042 -4.715929
C -0.680504 -0.006014 -4.715545
N -1.085635 -0.005016 -3.397221
C  0.000108 -0.001740 -2.615820
C -2.477365  0.044390 -2.929242
N  1.085222 -0.005016 -3.397221
H  1.385146 -0.015870 -5.533368
H -1.385302 -0.006204 -5.533214
H -0.000009  0.000007 -1.534731
C  2.478117 -0.021908 -2.932123
H  2.490592  0.005437 -1.841870
H  2.967028 -0.935354 -3.279299
H  3.001428  0.853575 -3.323595
H -2.857359  1.066461 -3.009201
H -3.082679 -0.625694 -3.542306
H -2.518128 -0.282594 -1.889294
--
# monomer B
0 1     # Charge and multiplicity
C   1.22531237526482      0.70753866091955      0.00613762728373
C   1.22532433589282     -0.70753852257020     -0.00619318228664
C   -0.00000567409046      1.41496628609039     -0.00672680580738
C   2.45644923379077      1.41832825917820      0.00902448468363
C   0.00001130712078     -1.41497612663474      0.00347275151708
C   -1.22530046906674      0.70754574598412      0.00838914760619
C   2.45643823516184     -1.41832293188077     -0.00843833914343
C   -0.00000085313587      2.83680140328112     -0.00913035594137
C   3.68182717731192      0.70931832800114     -0.00808954934571
C   2.45512052870677      2.83422403348893     -0.00819210630633
C   3.68182158506039     -0.70933346742900      0.00798293467272
C   -1.22531311884624     -0.70752714354401     -0.00512042085974
C   1.22670006104402      3.54346985599427      0.00816696660346
C   0.00000526469929     -2.83678176723568      0.00832091913869
C   -2.45643555300670      1.41831729028492      0.00842454345199
C   2.45512389762097     -2.83422965658853      0.00783102630520
C   -1.22671388474763      3.54346943575023      0.00827029982280
C   4.91451777504333      1.42717324448953     -0.00160886631602
C   3.69315067131765      3.54279566454522     -0.00155906667985
C   -2.45643712022637     -1.41831290883911     -0.00846337726810
C   1.22670532178455     -3.54347386990643     -0.00780316414624
C   -2.45512491866593      2.83421703463423     -0.00818572995999
C   4.91452486062398     -1.42718653794377      0.00136387641845
C   1.22142509354026      4.97013443726031      0.00150231067809
C   4.89300870916237      2.82518837202648     -0.00039219795739
C   -1.22669652864725     -3.54347062507680     -0.00753595973677
C   -3.68181849668397      0.70932533873199     -0.00807686886569
C   3.69314758099218     -3.54280096939050      0.00148176697923
C   -1.22143177215231      4.97012866986289      0.00168580605083
C   6.13477145276790      0.68054831910577     -0.00083909176631
C   3.65678936045204      4.97295361556775     -0.00065042889723
C   -2.45512642789169     -2.83421472106065      0.00758666850712
C   -3.68181869921921     -0.70932533146830      0.00810055625144
C   4.89301309775526     -2.82519973363176      0.00021895393805
C   -0.00000059327114      5.65044773803267      0.00045449734393
C   6.13477559217374     -0.68055448207492      0.00042622874941
C   2.47813196269732      5.65357712333155      0.00063835075260
C   1.22142288457925     -4.97012668293268     -0.00129718634452
C   -3.69316190412301      3.54279732619245     -0.00139355922051
C   -1.22142804110313     -4.97011793159564     -0.00140994817719
C   -4.91452132810043      1.42717581899491     -0.00153192130862
C   3.65678749952045     -4.97295485423912      0.00080007163680
C   -2.47813805026426      5.65357479452875      0.00092287576113
C   -3.69314125872231     -3.54278984697859      0.00136564082345
C   -4.91451200321153     -1.42718062802730      0.00139857359209
C   -0.00000552908399     -5.65043791501335      0.00005899322272
C   -4.89302000425900      2.82518897091939     -0.00040227981744
C   2.47812647313991     -5.65357317188818     -0.00029052915548
C   -3.65679823041642      4.97295655404175     -0.00047374852278
C   -4.89299899901461     -2.82519139505969      0.00006491824035
C   -2.47812801824129     -5.65356579800621     -0.00056571680280
C   -6.13477002348955      0.68054913825639     -0.00086464346868
C   -3.65678835334731     -4.97294365097028      0.00058578382008
C   -6.13476456307132     -0.68055354348201      0.00040575295444
H   5.83528897565761      3.36927626695423      0.00396712770529
H   7.07385965258860      1.22821762089947     -0.00037744837300
H   4.60066374401555      5.51238117445323     -0.00014522814529
H   5.83528386714679     -3.36930568472863     -0.00423551337640
H   -0.00001167146422      6.73853104613662     -0.00389474766392
H   7.07386165167227     -1.22822657074368     -0.00008250934481
H   2.47331421164041      6.74068466339473      0.00017162982210
H   4.60066897122302     -5.51237575717576      0.00039007446835
H   -2.47331820069565      6.74068209160650      0.00047297644710
H   -0.00000978838621     -6.73852780445195      0.00458867820736
H   -5.83530143450167      3.36927132229595      0.00410314985360
H   2.47330840367253     -6.74068500242887      0.00027980126949
H   -4.60067436136587      5.51237839860371      0.00002010017831
H   -5.83527902699321     -3.36928859177951     -0.00451481925734
H   -2.47329986759855     -6.74067870613986     -0.00016951527498
H   -7.07385728692578      1.22822084484047     -0.00046143985387
H   -4.60067330624313     -5.51236229778631      0.00021776644566
H   -7.07385645456741     -1.22822025997701     -0.00017736581114

    units angstrom      # Angstroms are the default
    no_reorient         # Geometry fixed, default
    symmetry c1         # C1 symmetry, default
}

set {
    scf_type DF         # Density fitting, faster than exact integrals
    freeze_core True    # Freeze core electrons
    basis jun-cc-pVDZ   # Jun-cc-pVDZ basis set, recommended for sSAPT0 in https://doi.org/10.1063/1.4867135
}

energy('ssapt0')        # Compute sSAPT0 energy, includes also SAPT0
--------------------------------------------------------------------------

  Memory set to  44.703 GiB by Python driver.

Scratch directory: /tmp/
   => Loading Basis Set <=

    Name: JUN-CC-PVDZ
    Role: ORBITAL
    Keyword: BASIS
    atoms 1-2, 4-5, 10, 17-70 entry C          line   164 file /opt/software/pc2/EB-SW/software/PSI4/1.9-foss-2022a/share/psi4/basis/jun-cc-pvdz.gbs 
    atoms 3, 6                entry N          line   198 file /opt/software/pc2/EB-SW/software/PSI4/1.9-foss-2022a/share/psi4/basis/jun-cc-pvdz.gbs 
    atoms 7-9, 11-16, 71-88   entry H          line    36 file /opt/software/pc2/EB-SW/software/PSI4/1.9-foss-2022a/share/psi4/basis/jun-cc-pvdz.gbs 

   => Loading Basis Set <=

    Name: JUN-CC-PVDZ
    Role: ORBITAL
    Keyword: BASIS
    atoms 1-2, 4-5, 10, 17-70 entry C          line   164 file /opt/software/pc2/EB-SW/software/PSI4/1.9-foss-2022a/share/psi4/basis/jun-cc-pvdz.gbs 
    atoms 3, 6                entry N          line   198 file /opt/software/pc2/EB-SW/software/PSI4/1.9-foss-2022a/share/psi4/basis/jun-cc-pvdz.gbs 
    atoms 7-9, 11-16, 71-88   entry H          line    36 file /opt/software/pc2/EB-SW/software/PSI4/1.9-foss-2022a/share/psi4/basis/jun-cc-pvdz.gbs 


  //>>>>>>>>>>>>>>>>>>>>>>>>>>>>>>>>>>>//
  //              Dimer HF             //
  //<<<<<<<<<<<<<<<<<<<<<<<<<<<<<<<<<<<//

   => Libint2 <=

    Primary   basis highest AM E, G, H:  5, 4, 3
    Auxiliary basis highest AM E, G, H:  6, 5, 4
    Onebody   basis highest AM E, G, H:  6, 5, 4
    Solid Harmonics ordering:            gaussian

*** tstart() called on n2cn0545
*** at Sat Feb 10 12:41:50 2024

   => Loading Basis Set <=

    Name: JUN-CC-PVDZ
    Role: ORBITAL
    Keyword: BASIS
    atoms 1-2, 4-5, 10, 17-70 entry C          line   164 file /opt/software/pc2/EB-SW/software/PSI4/1.9-foss-2022a/share/psi4/basis/jun-cc-pvdz.gbs 
    atoms 3, 6                entry N          line   198 file /opt/software/pc2/EB-SW/software/PSI4/1.9-foss-2022a/share/psi4/basis/jun-cc-pvdz.gbs 
    atoms 7-9, 11-16, 71-88   entry H          line    36 file /opt/software/pc2/EB-SW/software/PSI4/1.9-foss-2022a/share/psi4/basis/jun-cc-pvdz.gbs 


         ---------------------------------------------------------
                                   SCF
               by Justin Turney, Rob Parrish, Andy Simmonett
                          and Daniel G. A. Smith
                              RHF Reference
                       16 Threads,  45776 MiB Core
         ---------------------------------------------------------

  ==> Geometry <==

    Molecular point group: c1
    Full point group: C1

    Geometry (in Angstrom), charge = 1, multiplicity = 1:

       Center              X                  Y                   Z               Mass       
    ------------   -----------------  -----------------  -----------------  -----------------
         C            0.680066520158    -0.008042372515    -4.270752744872    12.000000000000
         C           -0.680504479842    -0.006014372515    -4.270368744872    12.000000000000
         N           -1.085635479842    -0.005016372515    -2.952044744872    14.003074004430
         C            0.000107520158    -0.001740372515    -2.170643744872    12.000000000000
         C           -2.477365479842     0.044389627485    -2.484065744872    12.000000000000
         N            1.085221520158    -0.005016372515    -2.952044744872    14.003074004430
         H            1.385145520158    -0.015870372515    -5.088191744872     1.007825032230
         H           -1.385302479842    -0.006204372515    -5.088037744872     1.007825032230
         H           -0.000009479842     0.000006627485    -1.089554744872     1.007825032230
         C            2.478116520158    -0.021908372515    -2.486946744872    12.000000000000
         H            2.490591520158     0.005436627485    -1.396693744872     1.007825032230
         H            2.967027520158    -0.935354372515    -2.834122744872     1.007825032230
         H            3.001427520158     0.853574627485    -2.878418744872     1.007825032230
         H           -2.857359479842     1.066460627485    -2.564024744872     1.007825032230
         H           -3.082679479842    -0.625694372515    -3.097129744872     1.007825032230
         H           -2.518128479842    -0.282594372515    -1.444117744872     1.007825032230
         C            1.225311895423     0.707538288405     0.451313882412    12.000000000000
         C            1.225323856051    -0.707538895085     0.438983072841    12.000000000000
         C           -0.000006153932     1.414965913575     0.438449449320    12.000000000000
         C            2.456448753949     1.418327886663     0.454200739811    12.000000000000
         C            0.000010827279    -1.414976499150     0.448649006645    12.000000000000
         C           -1.225300948908     0.707545373469     0.453565402734    12.000000000000
         C            2.456437755320    -1.418323304396     0.436737915984    12.000000000000
         C           -0.000001332978     2.836801030766     0.436045899186    12.000000000000
         C            3.681826697470     0.709317955486     0.437086705782    12.000000000000
         C            2.455120048865     2.834223660974     0.436984148821    12.000000000000
         C            3.681821105219    -0.709333839944     0.453159189801    12.000000000000
         C           -1.225313598688    -0.707527516059     0.440055834268    12.000000000000
         C            1.226699581202     3.543469483479     0.453343221731    12.000000000000
         C            0.000004784858    -2.836782139751     0.453497174266    12.000000000000
         C           -2.456436032848     1.418316917770     0.453600798580    12.000000000000
         C            2.455123417779    -2.834230029103     0.453007281433    12.000000000000
         C           -1.226714364589     3.543469063235     0.453446554951    12.000000000000
         C            4.914517295202     1.427172871975     0.443567388812    12.000000000000
         C            3.693150191476     3.542795292030     0.443617188448    12.000000000000
         C           -2.456437600068    -1.418313281354     0.436712877860    12.000000000000
         C            1.226704841943    -3.543474242421     0.437373090982    12.000000000000
         C           -2.455125398508     2.834216662119     0.436990525168    12.000000000000
         C            4.914524380782    -1.427186910459     0.446540131546    12.000000000000
         C            1.221424613699     4.970134064745     0.446678565806    12.000000000000
         C            4.893008229321     2.825187999512     0.444784057170    12.000000000000
         C           -1.226697008489    -3.543470997592     0.437640295391    12.000000000000
         C           -3.681818976526     0.709324966217     0.437099386262    12.000000000000
         C            3.693147101150    -3.542801341905     0.446658022107    12.000000000000
         C           -1.221432251994     4.970128297348     0.446862061179    12.000000000000
         C            6.134770972926     0.680547946591     0.444337163361    12.000000000000
         C            3.656788880610     4.972953243053     0.444525826231    12.000000000000
         C           -2.455126907733    -2.834215093576     0.452762923635    12.000000000000
         C           -3.681819179061    -0.709325703983     0.453276811379    12.000000000000
         C            4.893012617914    -2.825200106147     0.445395209066    12.000000000000
         C           -0.000001073113     5.650447365518     0.445630752472    12.000000000000
         C            6.134775112332    -0.680554854590     0.445602483877    12.000000000000
         C            2.478131482856     5.653576750817     0.445814605880    12.000000000000
         C            1.221422404738    -4.970127055448     0.443879068783    12.000000000000
         C           -3.693162383965     3.542796953677     0.443782695907    12.000000000000
         C           -1.221428520945    -4.970118304111     0.443766306951    12.000000000000
         C           -4.914521807942     1.427175446480     0.443644333819    12.000000000000
         C            3.656787019679    -4.972955226754     0.445976326765    12.000000000000
         C           -2.478138530106     5.653574422014     0.446099130889    12.000000000000
         C           -3.693141738564    -3.542790219494     0.446541895951    12.000000000000
         C           -4.914512483053    -1.427181000542     0.446574828720    12.000000000000
         C           -0.000006008926    -5.650438287528     0.445235248351    12.000000000000
         C           -4.893020484101     2.825188598404     0.444773975310    12.000000000000
         C            2.478125993298    -5.653573544403     0.444885725972    12.000000000000
         C           -3.656798710258     4.972956181527     0.444702506605    12.000000000000
         C           -4.892999478856    -2.825191767575     0.445241173368    12.000000000000
         C           -2.478128498083    -5.653566170521     0.444610538325    12.000000000000
         C           -6.134770503331     0.680548765741     0.444311611659    12.000000000000
         C           -3.656788833189    -4.972944023485     0.445762038948    12.000000000000
         C           -6.134765042913    -0.680553915997     0.445582008082    12.000000000000
         H            5.835288495816     3.369275894439     0.449143382833     1.007825032230
         H            7.073859172747     1.228217248385     0.444798806755     1.007825032230
         H            4.600663264174     5.512380801938     0.445031026982     1.007825032230
         H            5.835283387305    -3.369306057244     0.440940741751     1.007825032230
         H           -0.000012151306     6.738530673622     0.441281507464     1.007825032230
         H            7.073861171831    -1.228226943259     0.445093745783     1.007825032230
         H            2.473313731799     6.740684290880     0.445347884950     1.007825032230
         H            4.600668491381    -5.512376129691     0.445566329596     1.007825032230
         H           -2.473318680537     6.740681719092     0.445649231575     1.007825032230
         H           -0.000010268228    -6.738528176967     0.449764933335     1.007825032230
         H           -5.835301914343     3.369270949781     0.449279404981     1.007825032230
         H            2.473307923831    -6.740685374944     0.445456056397     1.007825032230
         H           -4.600674841208     5.512378026089     0.445196355306     1.007825032230
         H           -5.835279506835    -3.369288964294     0.440661435870     1.007825032230
         H           -2.473300347440    -6.740679078655     0.445006739853     1.007825032230
         H           -7.073857766768     1.228220472326     0.444714815274     1.007825032230
         H           -4.600673786085    -5.512362670301     0.445394021573     1.007825032230
         H           -7.073856934409    -1.228220632492     0.444998889317     1.007825032230

  Running in c1 symmetry.

  Rotational constants: A =      0.00193  B =      0.00188  C =      0.00109 [cm^-1]
  Rotational constants: A =     57.99561  B =     56.44549  C =     32.71081 [MHz]
  Nuclear repulsion = 8460.413312327063977

  Charge       = 1
  Multiplicity = 1
  Electrons    = 394
  Nalpha       = 197
  Nbeta        = 197

  ==> Algorithm <==

  SCF Algorithm Type is DF.
  DIIS enabled.
  MOM disabled.
  Fractional occupation disabled.
  Guess Type is SAD.
  Energy threshold   = 1.00e-08
  Density threshold  = 1.00e-08
  Integral threshold = 1.00e-12

  ==> Primary Basis <==

  Basis Set: JUN-CC-PVDZ
    Blend: JUN-CC-PVDZ
    Number of shells: 569
    Number of basis functions: 1233
    Number of Cartesian functions: 1294
    Spherical Harmonics?: true
    Max angular momentum: 2

   => Loading Basis Set <=

    Name: (JUN-CC-PVDZ AUX)
    Role: JKFIT
    Keyword: DF_BASIS_SCF
    atoms 1-2, 4-5, 10, 17-70 entry C          line   146 file /opt/software/pc2/EB-SW/software/PSI4/1.9-foss-2022a/share/psi4/basis/jun-cc-pvdz-jkfit.gbs 
    atoms 3, 6                entry N          line   202 file /opt/software/pc2/EB-SW/software/PSI4/1.9-foss-2022a/share/psi4/basis/jun-cc-pvdz-jkfit.gbs 
    atoms 7-9, 11-16, 71-88   entry H          line    70 file /opt/software/pc2/EB-SW/software/PSI4/1.9-foss-2022a/share/psi4/basis/jun-cc-pvdz-jkfit.gbs 

  ==> Integral Setup <==

  ==> DiskDFJK: Density-Fitted J/K Matrices <==

    J tasked:                  Yes
    K tasked:                  Yes
    wK tasked:                  No
    OpenMP threads:             16
    Integrals threads:          16
    Memory [MiB]:            34332
    Algorithm:                Core
    Integral Cache:           SAVE
    Schwarz Cutoff:          1E-12
    Fitting Condition:       1E-10

   => Auxiliary Basis Set <=

  Basis Set: (JUN-CC-PVDZ AUX)
    Blend: JUN-CC-PVDZ-JKFIT
    Number of shells: 1890
    Number of basis functions: 5440
    Number of Cartesian functions: 6226
    Spherical Harmonics?: true
    Max angular momentum: 3

  Minimum eigenvalue in the overlap matrix is 2.8910587714E-10.
  Reciprocal condition number of the overlap matrix is 1.1085202782E-11.
    Using canonical orthogonalization.
  Overall, 14 of 1233 possible MOs eliminated.


  ==> Pre-Iterations <==

  SCF Guess: Superposition of Atomic Densities via on-the-fly atomic UHF (no occupation information).

   -------------------------
    Irrep   Nso     Nmo    
   -------------------------
     A       1233    1219 
   -------------------------
    Total    1233    1219
   -------------------------

  ==> Iterations <==

                           Total Energy        Delta E     RMS |[F,P]|

   @DF-RHF iter SAD: -2366.76355316017452   -2.36676e+03   0.00000e+00 
   @DF-RHF iter   1: -2358.16752957597964    8.59602e+00   9.38642e-04 ADIIS/DIIS
   @DF-RHF iter   2: -2359.05274309360721   -8.85214e-01   3.11747e-04 ADIIS/DIIS
   @DF-RHF iter   3: -2359.13815303272213   -8.54099e-02   1.19711e-04 ADIIS/DIIS
   @DF-RHF iter   4: -2359.15111472489343   -1.29617e-02   4.55740e-05 DIIS
   @DF-RHF iter   5: -2359.15304264273163   -1.92792e-03   1.05553e-05 DIIS
   @DF-RHF iter   6: -2359.15323277358675   -1.90131e-04   5.79590e-06 DIIS
   @DF-RHF iter   7: -2359.15331058283664   -7.78092e-05   2.63276e-06 DIIS
   @DF-RHF iter   8: -2359.15333473115015   -2.41483e-05   1.23136e-06 DIIS
   @DF-RHF iter   9: -2359.15334094649097   -6.21534e-06   3.02719e-07 DIIS
   @DF-RHF iter  10: -2359.15334122159675   -2.75106e-07   1.11159e-07 DIIS
   @DF-RHF iter  11: -2359.15334124456649   -2.29697e-08   4.57823e-08 DIIS
   @DF-RHF iter  12: -2359.15334124923947   -4.67298e-09   2.41882e-08 DIIS
   @DF-RHF iter  13: -2359.15334125039772   -1.15824e-09   6.39856e-09 DIIS
  Energy and wave function converged.


  ==> Post-Iterations <==

    Orbital Energies [Eh]
    ---------------------

    Doubly Occupied:                                                      

       1A    -15.775286     2A    -15.774905     3A    -11.461239  
       4A    -11.409275     5A    -11.407726     6A    -11.391082  
       7A    -11.390902     8A    -11.359810     9A    -11.359394  
      10A    -11.359235    11A    -11.358254    12A    -11.358059  
      13A    -11.357608    14A    -11.351320    15A    -11.351253  
      16A    -11.351180    17A    -11.351144    18A    -11.349528  
      19A    -11.349328    20A    -11.347886    21A    -11.347874  
      22A    -11.346911    23A    -11.346890    24A    -11.346805  
      25A    -11.346552    26A    -11.346537    27A    -11.346356  
      28A    -11.345176    29A    -11.345028    30A    -11.345019  
      31A    -11.344902    32A    -11.344209    33A    -11.344174  
      34A    -11.344135    35A    -11.344123    36A    -11.343321  
      37A    -11.343291    38A    -11.343232    39A    -11.343222  
      40A    -11.341860    41A    -11.341768    42A    -11.341702  
      43A    -11.341609    44A    -11.336866    45A    -11.336631  
      46A    -11.336517    47A    -11.336473    48A    -11.334987  
      49A    -11.334804    50A    -11.333288    51A    -11.333268  
      52A    -11.331850    53A    -11.331830    54A    -11.331477  
      55A    -11.331472    56A    -11.331462    57A    -11.331398  
      58A    -11.329990    59A    -11.329985    60A    -11.329948  
      61A    -11.329895    62A     -1.521589    63A     -1.377372  
      64A     -1.342877    65A     -1.311827    66A     -1.308698  
      67A     -1.277646    68A     -1.276638    69A     -1.275954  
      70A     -1.242561    71A     -1.235492    72A     -1.228271  
      73A     -1.225575    74A     -1.197849    75A     -1.197765  
      76A     -1.185865    77A     -1.173628    78A     -1.170862  
      79A     -1.168850    80A     -1.150033    81A     -1.149998  
      82A     -1.133218    83A     -1.125658    84A     -1.115049  
      85A     -1.114354    86A     -1.113268    87A     -1.101863  
      88A     -1.096464    89A     -1.074821    90A     -1.074714  
      91A     -1.065716    92A     -1.047117    93A     -1.046865  
      94A     -0.983581    95A     -0.982327    96A     -0.981834  
      97A     -0.974652    98A     -0.974473    99A     -0.969881  
     100A     -0.969557   101A     -0.967564   102A     -0.947035  
     103A     -0.945395   104A     -0.919380   105A     -0.905550  
     106A     -0.903434   107A     -0.901083   108A     -0.899990  
     109A     -0.879011   110A     -0.878473   111A     -0.866630  
     112A     -0.835640   113A     -0.833561   114A     -0.822327  
     115A     -0.821872   116A     -0.816434   117A     -0.816372  
     118A     -0.805537   119A     -0.796277   120A     -0.784597  
     121A     -0.783620   122A     -0.780628   123A     -0.779712  
     124A     -0.771069   125A     -0.769999   126A     -0.745041  
     127A     -0.741627   128A     -0.739600   129A     -0.738097  
     130A     -0.734314   131A     -0.734173   132A     -0.734018  
     133A     -0.733659   134A     -0.724018   135A     -0.723303  
     136A     -0.716902   137A     -0.715053   138A     -0.714906  
     139A     -0.711118   140A     -0.694544   141A     -0.688685  
     142A     -0.685383   143A     -0.684279   144A     -0.683439  
     145A     -0.681020   146A     -0.680349   147A     -0.679987  
     148A     -0.668000   149A     -0.666662   150A     -0.662875  
     151A     -0.660042   152A     -0.655000   153A     -0.654325  
     154A     -0.650148   155A     -0.649667   156A     -0.645990  
     157A     -0.644770   158A     -0.638312   159A     -0.637907  
     160A     -0.624887   161A     -0.622195   162A     -0.621999  
     163A     -0.621075   164A     -0.615058   165A     -0.607891  
     166A     -0.607117   167A     -0.602815   168A     -0.583253  
     169A     -0.579412   170A     -0.576985   171A     -0.573465  
     172A     -0.571395   173A     -0.567435   174A     -0.567123  
     175A     -0.563093   176A     -0.556604   177A     -0.543567  
     178A     -0.540145   179A     -0.539576   180A     -0.522520  
     181A     -0.522365   182A     -0.493572   183A     -0.489637  
     184A     -0.488592   185A     -0.474109   186A     -0.457825  
     187A     -0.457694   188A     -0.438334   189A     -0.432575  
     190A     -0.431209   191A     -0.429862   192A     -0.394875  
     193A     -0.378633   194A     -0.374649   195A     -0.374332  
     196A     -0.312230   197A     -0.311190  

    Virtual:                                                              

     198A     -0.073114   199A     -0.072673   200A     -0.031931  
     201A     -0.027050   202A     -0.026075   203A     -0.024555  
     204A     -0.019436   205A     -0.015907   206A     -0.010670  
     207A     -0.010603   208A     -0.009333   209A     -0.006126  
     210A     -0.005562   211A     -0.003487   212A     -0.001833  
     213A     -0.000806   214A      0.002970   215A      0.003591  
     216A      0.003756   217A      0.006899   218A      0.007326  
     219A      0.008473   220A      0.013742   221A      0.015816  
     222A      0.015829   223A      0.016915   224A      0.019181  
     225A      0.021782   226A      0.028770   227A      0.031301  
     228A      0.031366   229A      0.034022   230A      0.037869  
     231A      0.038478   232A      0.040119   233A      0.040327  
     234A      0.040453   235A      0.042509   236A      0.043629  
     237A      0.044803   238A      0.048371   239A      0.048900  
     240A      0.051273   241A      0.051771   242A      0.057363  
     243A      0.061284   244A      0.064659   245A      0.065833  
     246A      0.067380   247A      0.072202   248A      0.073124  
     249A      0.073401   250A      0.075807   251A      0.076239  
     252A      0.077623   253A      0.081508   254A      0.083817  
     255A      0.084392   256A      0.084531   257A      0.085802  
     258A      0.088746   259A      0.095839   260A      0.096613  
     261A      0.097779   262A      0.100377   263A      0.102537  
     264A      0.102592   265A      0.102722   266A      0.103262  
     267A      0.106770   268A      0.109073   269A      0.112082  
     270A      0.114344   271A      0.115932   272A      0.117741  
     273A      0.118011   274A      0.118113   275A      0.123209  
     276A      0.123409   277A      0.123665   278A      0.127885  
     279A      0.132186   280A      0.136330   281A      0.137251  
     282A      0.139436   283A      0.141446   284A      0.143683  
     285A      0.145474   286A      0.146112   287A      0.146311  
     288A      0.146853   289A      0.147258   290A      0.148557  
     291A      0.149638   292A      0.149921   293A      0.150664  
     294A      0.154784   295A      0.155276   296A      0.157273  
     297A      0.157547   298A      0.158761   299A      0.161533  
     300A      0.162329   301A      0.164216   302A      0.164901  
     303A      0.165045   304A      0.166536   305A      0.167387  
     306A      0.167742   307A      0.172215   308A      0.177089  
     309A      0.178134   310A      0.178940   311A      0.181217  
     312A      0.183410   313A      0.184455   314A      0.184898  
     315A      0.185297   316A      0.187112   317A      0.187477  
     318A      0.188863   319A      0.192197   320A      0.192426  
     321A      0.193235   322A      0.193779   323A      0.194573  
     324A      0.195701   325A      0.199333   326A      0.201234  
     327A      0.202066   328A      0.203343   329A      0.203607  
     330A      0.207469   331A      0.207975   332A      0.209206  
     333A      0.211345   334A      0.214809   335A      0.217157  
     336A      0.218547   337A      0.220555   338A      0.226218  
     339A      0.227291   340A      0.229335   341A      0.229878  
     342A      0.234345   343A      0.235935   344A      0.236250  
     345A      0.236639   346A      0.238262   347A      0.238749  
     348A      0.239562   349A      0.240419   350A      0.240956  
     351A      0.241924   352A      0.242006   353A      0.242876  
     354A      0.244295   355A      0.245209   356A      0.245559  
     357A      0.247212   358A      0.249957   359A      0.250278  
     360A      0.252174   361A      0.255084   362A      0.256824  
     363A      0.259544   364A      0.260559   365A      0.261610  
     366A      0.262298   367A      0.262992   368A      0.264261  
     369A      0.267355   370A      0.269630   371A      0.270892  
     372A      0.271869   373A      0.273853   374A      0.274734  
     375A      0.276664   376A      0.277788   377A      0.279837  
     378A      0.280117   379A      0.283841   380A      0.284152  
     381A      0.286122   382A      0.287142   383A      0.287590  
     384A      0.291134   385A      0.292138   386A      0.293031  
     387A      0.293751   388A      0.294268   389A      0.295823  
     390A      0.300890   391A      0.302095   392A      0.303161  
     393A      0.304826   394A      0.306821   395A      0.307659  
     396A      0.309469   397A      0.310376   398A      0.311782  
     399A      0.312745   400A      0.313336   401A      0.315302  
     402A      0.316156   403A      0.316562   404A      0.319727  
     405A      0.322031   406A      0.322655   407A      0.323738  
     408A      0.325748   409A      0.326896   410A      0.328336  
     411A      0.329367   412A      0.331809   413A      0.332203  
     414A      0.334476   415A      0.334799   416A      0.335331  
     417A      0.335790   418A      0.336715   419A      0.338032  
     420A      0.338998   421A      0.340629   422A      0.342019  
     423A      0.343891   424A      0.345746   425A      0.346377  
     426A      0.351936   427A      0.352422   428A      0.356324  
     429A      0.358684   430A      0.359765   431A      0.361061  
     432A      0.361947   433A      0.363316   434A      0.364532  
     435A      0.365437   436A      0.368150   437A      0.369524  
     438A      0.370585   439A      0.371702   440A      0.374214  
     441A      0.375451   442A      0.377695   443A      0.379109  
     444A      0.379649   445A      0.380811   446A      0.381492  
     447A      0.382100   448A      0.383107   449A      0.385260  
     450A      0.385662   451A      0.386442   452A      0.387471  
     453A      0.393463   454A      0.394467   455A      0.395744  
     456A      0.396354   457A      0.398637   458A      0.403104  
     459A      0.404798   460A      0.405436   461A      0.407803  
     462A      0.411747   463A      0.414501   464A      0.415112  
     465A      0.416130   466A      0.416463   467A      0.417231  
     468A      0.418661   469A      0.419182   470A      0.421912  
     471A      0.422788   472A      0.425198   473A      0.429387  
     474A      0.431848   475A      0.434574   476A      0.435693  
     477A      0.438644   478A      0.440865   479A      0.442313  
     480A      0.442859   481A      0.444594   482A      0.447970  
     483A      0.448955   484A      0.455265   485A      0.460792  
     486A      0.461196   487A      0.463353   488A      0.467295  
     489A      0.468846   490A      0.469063   491A      0.470150  
     492A      0.472157   493A      0.472962   494A      0.474840  
     495A      0.476391   496A      0.477370   497A      0.479404  
     498A      0.482211   499A      0.483511   500A      0.485984  
     501A      0.487356   502A      0.490590   503A      0.491834  
     504A      0.497452   505A      0.500617   506A      0.507149  
     507A      0.508572   508A      0.511898   509A      0.514228  
     510A      0.516054   511A      0.518061   512A      0.528963  
     513A      0.533587   514A      0.535170   515A      0.536980  
     516A      0.537729   517A      0.539601   518A      0.544690  
     519A      0.545059   520A      0.553680   521A      0.563589  
     522A      0.571778   523A      0.572376   524A      0.578086  
     525A      0.583034   526A      0.583998   527A      0.586455  
     528A      0.587524   529A      0.593384   530A      0.593857  
     531A      0.597712   532A      0.606055   533A      0.631299  
     534A      0.631830   535A      0.658982   536A      0.659563  
     537A      0.660605   538A      0.661746   539A      0.661968  
     540A      0.662466   541A      0.672962   542A      0.674523  
     543A      0.686821   544A      0.689006   545A      0.707324  
     546A      0.715591   547A      0.716163   548A      0.718468  
     549A      0.728640   550A      0.734335   551A      0.736612  
     552A      0.742188   553A      0.743434   554A      0.744181  
     555A      0.746249   556A      0.750204   557A      0.752875  
     558A      0.754964   559A      0.760283   560A      0.769314  
     561A      0.771167   562A      0.773860   563A      0.777190  
     564A      0.779247   565A      0.780921   566A      0.784215  
     567A      0.785102   568A      0.791787   569A      0.795255  
     570A      0.796145   571A      0.801279   572A      0.804191  
     573A      0.806558   574A      0.807044   575A      0.808835  
     576A      0.812659   577A      0.815958   578A      0.818919  
     579A      0.819756   580A      0.821048   581A      0.824751  
     582A      0.828809   583A      0.831362   584A      0.832287  
     585A      0.833657   586A      0.835278   587A      0.837078  
     588A      0.838193   589A      0.840416   590A      0.842452  
     591A      0.843233   592A      0.844013   593A      0.846999  
     594A      0.849273   595A      0.849820   596A      0.853548  
     597A      0.857398   598A      0.858451   599A      0.862464  
     600A      0.862991   601A      0.865806   602A      0.869358  
     603A      0.873525   604A      0.875970   605A      0.877789  
     606A      0.878919   607A      0.879424   608A      0.882343  
     609A      0.884836   610A      0.888878   611A      0.890365  
     612A      0.891649   613A      0.892918   614A      0.893832  
     615A      0.895555   616A      0.898330   617A      0.899909  
     618A      0.901927   619A      0.902785   620A      0.904928  
     621A      0.911238   622A      0.913843   623A      0.914741  
     624A      0.917354   625A      0.918502   626A      0.922095  
     627A      0.923853   628A      0.928031   629A      0.935728  
     630A      0.937020   631A      0.938180   632A      0.938659  
     633A      0.939466   634A      0.943770   635A      0.946890  
     636A      0.947962   637A      0.948815   638A      0.950570  
     639A      0.952228   640A      0.955742   641A      0.957509  
     642A      0.959133   643A      0.961643   644A      0.962498  
     645A      0.963966   646A      0.965654   647A      0.967682  
     648A      0.971545   649A      0.971950   650A      0.973722  
     651A      0.975137   652A      0.975521   653A      0.976924  
     654A      0.979757   655A      0.980207   656A      0.982116  
     657A      0.985860   658A      0.988048   659A      0.989170  
     660A      0.990360   661A      0.995488   662A      1.000270  
     663A      1.002589   664A      1.003959   665A      1.005359  
     666A      1.008423   667A      1.011356   668A      1.013809  
     669A      1.015422   670A      1.015821   671A      1.018064  
     672A      1.022226   673A      1.023149   674A      1.025206  
     675A      1.026460   676A      1.028588   677A      1.029420  
     678A      1.033308   679A      1.035693   680A      1.036207  
     681A      1.037998   682A      1.039805   683A      1.041403  
     684A      1.046002   685A      1.046779   686A      1.051278  
     687A      1.053793   688A      1.054515   689A      1.058017  
     690A      1.058612   691A      1.060664   692A      1.061770  
     693A      1.071494   694A      1.078025   695A      1.081187  
     696A      1.083147   697A      1.086598   698A      1.087072  
     699A      1.089818   700A      1.091874   701A      1.093711  
     702A      1.101764   703A      1.107721   704A      1.111449  
     705A      1.116007   706A      1.117151   707A      1.118595  
     708A      1.122351   709A      1.127536   710A      1.130776  
     711A      1.132580   712A      1.137528   713A      1.139393  
     714A      1.140775   715A      1.144805   716A      1.144945  
     717A      1.147611   718A      1.152567   719A      1.156876  
     720A      1.159134   721A      1.161401   722A      1.162624  
     723A      1.165974   724A      1.166836   725A      1.172560  
     726A      1.175579   727A      1.176413   728A      1.179825  
     729A      1.179980   730A      1.181111   731A      1.181945  
     732A      1.183876   733A      1.188073   734A      1.190235  
     735A      1.193936   736A      1.196834   737A      1.199650  
     738A      1.205444   739A      1.208114   740A      1.211845  
     741A      1.213385   742A      1.215465   743A      1.217712  
     744A      1.222406   745A      1.225044   746A      1.227078  
     747A      1.234127   748A      1.238333   749A      1.238888  
     750A      1.240914   751A      1.243166   752A      1.246837  
     753A      1.248025   754A      1.248780   755A      1.249529  
     756A      1.257685   757A      1.259842   758A      1.261888  
     759A      1.263152   760A      1.265423   761A      1.265578  
     762A      1.267335   763A      1.271816   764A      1.273712  
     765A      1.280527   766A      1.281577   767A      1.289280  
     768A      1.290864   769A      1.296548   770A      1.297894  
     771A      1.303559   772A      1.305877   773A      1.308791  
     774A      1.313585   775A      1.316128   776A      1.319130  
     777A      1.323581   778A      1.324867   779A      1.327239  
     780A      1.331058   781A      1.335619   782A      1.338881  
     783A      1.341298   784A      1.342456   785A      1.346590  
     786A      1.353096   787A      1.355022   788A      1.357745  
     789A      1.359127   790A      1.362867   791A      1.364753  
     792A      1.366495   793A      1.368325   794A      1.368687  
     795A      1.371493   796A      1.374574   797A      1.378361  
     798A      1.389029   799A      1.393474   800A      1.399730  
     801A      1.403858   802A      1.407048   803A      1.418504  
     804A      1.434441   805A      1.436061   806A      1.441481  
     807A      1.447128   808A      1.450675   809A      1.455436  
     810A      1.460322   811A      1.470187   812A      1.492207  
     813A      1.492499   814A      1.501679   815A      1.508402  
     816A      1.514655   817A      1.518253   818A      1.519853  
     819A      1.520195   820A      1.525728   821A      1.529080  
     822A      1.532202   823A      1.536492   824A      1.537324  
     825A      1.544026   826A      1.550159   827A      1.552348  
     828A      1.556820   829A      1.561073   830A      1.565735  
     831A      1.567299   832A      1.570955   833A      1.571782  
     834A      1.574547   835A      1.576188   836A      1.577882  
     837A      1.583154   838A      1.585577   839A      1.587756  
     840A      1.590970   841A      1.592369   842A      1.596058  
     843A      1.597453   844A      1.602311   845A      1.604214  
     846A      1.610215   847A      1.611939   848A      1.613604  
     849A      1.615666   850A      1.618048   851A      1.621397  
     852A      1.627668   853A      1.629043   854A      1.630545  
     855A      1.636837   856A      1.641575   857A      1.649933  
     858A      1.653632   859A      1.665583   860A      1.666183  
     861A      1.671334   862A      1.680723   863A      1.681517  
     864A      1.681936   865A      1.683194   866A      1.692186  
     867A      1.695390   868A      1.698639   869A      1.707196  
     870A      1.711103   871A      1.712533   872A      1.718379  
     873A      1.722727   874A      1.735446   875A      1.737563  
     876A      1.740724   877A      1.744557   878A      1.747115  
     879A      1.750971   880A      1.758874   881A      1.760354  
     882A      1.765587   883A      1.769239   884A      1.774255  
     885A      1.775087   886A      1.779312   887A      1.780882  
     888A      1.782074   889A      1.783508   890A      1.786074  
     891A      1.789979   892A      1.799393   893A      1.801635  
     894A      1.804661   895A      1.808337   896A      1.811891  
     897A      1.814668   898A      1.817883   899A      1.818835  
     900A      1.821821   901A      1.822794   902A      1.827019  
     903A      1.829618   904A      1.831532   905A      1.833194  
     906A      1.834712   907A      1.838018   908A      1.840556  
     909A      1.845935   910A      1.849243   911A      1.854920  
     912A      1.857394   913A      1.863531   914A      1.864219  
     915A      1.866585   916A      1.868405   917A      1.869665  
     918A      1.870881   919A      1.875309   920A      1.877419  
     921A      1.881452   922A      1.886094   923A      1.890740  
     924A      1.895703   925A      1.903059   926A      1.905827  
     927A      1.908454   928A      1.909819   929A      1.913648  
     930A      1.914122   931A      1.918442   932A      1.920618  
     933A      1.922034   934A      1.926646   935A      1.928583  
     936A      1.930314   937A      1.933926   938A      1.936939  
     939A      1.937853   940A      1.941593   941A      1.942708  
     942A      1.944623   943A      1.948426   944A      1.948803  
     945A      1.955681   946A      1.960077   947A      1.962288  
     948A      1.962808   949A      1.964404   950A      1.968350  
     951A      1.969368   952A      1.974310   953A      1.978210  
     954A      1.985735   955A      1.987232   956A      1.990653  
     957A      1.992062   958A      1.993903   959A      1.996931  
     960A      1.999669   961A      2.002887   962A      2.006821  
     963A      2.010444   964A      2.012725   965A      2.014233  
     966A      2.015203   967A      2.018118   968A      2.019738  
     969A      2.021109   970A      2.022929   971A      2.024192  
     972A      2.025594   973A      2.027796   974A      2.031427  
     975A      2.032744   976A      2.034528   977A      2.036437  
     978A      2.037303   979A      2.037429   980A      2.041491  
     981A      2.045484   982A      2.045745   983A      2.046679  
     984A      2.050702   985A      2.053660   986A      2.056015  
     987A      2.057606   988A      2.059383   989A      2.060811  
     990A      2.065464   991A      2.066829   992A      2.074728  
     993A      2.079571   994A      2.080036   995A      2.087000  
     996A      2.090027   997A      2.091062   998A      2.095701  
     999A      2.097877  1000A      2.102963  1001A      2.105502  
    1002A      2.112885  1003A      2.114730  1004A      2.115969  
    1005A      2.119941  1006A      2.125803  1007A      2.129821  
    1008A      2.132796  1009A      2.134753  1010A      2.136691  
    1011A      2.138058  1012A      2.142883  1013A      2.146688  
    1014A      2.151282  1015A      2.153012  1016A      2.164895  
    1017A      2.165399  1018A      2.167015  1019A      2.168166  
    1020A      2.169267  1021A      2.170836  1022A      2.177088  
    1023A      2.179787  1024A      2.182726  1025A      2.184492  
    1026A      2.188152  1027A      2.190346  1028A      2.190974  
    1029A      2.193501  1030A      2.201973  1031A      2.214921  
    1032A      2.219802  1033A      2.223595  1034A      2.226243  
    1035A      2.231041  1036A      2.231794  1037A      2.234319  
    1038A      2.240262  1039A      2.246509  1040A      2.249294  
    1041A      2.253768  1042A      2.260151  1043A      2.265024  
    1044A      2.270984  1045A      2.273083  1046A      2.274991  
    1047A      2.278300  1048A      2.285012  1049A      2.287001  
    1050A      2.290187  1051A      2.307031  1052A      2.313606  
    1053A      2.319686  1054A      2.329291  1055A      2.332296  
    1056A      2.335214  1057A      2.337348  1058A      2.339313  
    1059A      2.342975  1060A      2.352012  1061A      2.361751  
    1062A      2.369346  1063A      2.381275  1064A      2.386962  
    1065A      2.392927  1066A      2.400764  1067A      2.403889  
    1068A      2.408465  1069A      2.418188  1070A      2.426704  
    1071A      2.435074  1072A      2.440508  1073A      2.443556  
    1074A      2.449073  1075A      2.460611  1076A      2.462674  
    1077A      2.466031  1078A      2.469469  1079A      2.473442  
    1080A      2.474090  1081A      2.475550  1082A      2.478949  
    1083A      2.481522  1084A      2.486279  1085A      2.487306  
    1086A      2.493840  1087A      2.497052  1088A      2.499951  
    1089A      2.502241  1090A      2.507506  1091A      2.513364  
    1092A      2.514429  1093A      2.519651  1094A      2.525176  
    1095A      2.532987  1096A      2.535676  1097A      2.545825  
    1098A      2.552199  1099A      2.553700  1100A      2.562118  
    1101A      2.566815  1102A      2.572239  1103A      2.574469  
    1104A      2.575719  1105A      2.582421  1106A      2.595535  
    1107A      2.600210  1108A      2.609028  1109A      2.610782  
    1110A      2.616361  1111A      2.620881  1112A      2.624627  
    1113A      2.626303  1114A      2.626919  1115A      2.631131  
    1116A      2.633420  1117A      2.635899  1118A      2.641772  
    1119A      2.652822  1120A      2.656428  1121A      2.671729  
    1122A      2.675128  1123A      2.681985  1124A      2.699975  
    1125A      2.707727  1126A      2.715313  1127A      2.728628  
    1128A      2.730762  1129A      2.741648  1130A      2.744622  
    1131A      2.752977  1132A      2.758806  1133A      2.763550  
    1134A      2.766060  1135A      2.767332  1136A      2.776410  
    1137A      2.781417  1138A      2.783508  1139A      2.801092  
    1140A      2.808885  1141A      2.830169  1142A      2.837016  
    1143A      2.838919  1144A      2.840681  1145A      2.849478  
    1146A      2.857484  1147A      2.863341  1148A      2.867785  
    1149A      2.868944  1150A      2.882447  1151A      2.884886  
    1152A      2.887846  1153A      2.897321  1154A      2.928202  
    1155A      2.936125  1156A      2.940113  1157A      2.950900  
    1158A      2.973176  1159A      2.975502  1160A      2.975786  
    1161A      2.986979  1162A      2.996080  1163A      3.013517  
    1164A      3.021223  1165A      3.042314  1166A      3.044986  
    1167A      3.054494  1168A      3.057138  1169A      3.061015  
    1170A      3.064254  1171A      3.066877  1172A      3.068457  
    1173A      3.069667  1174A      3.074704  1175A      3.076879  
    1176A      3.082537  1177A      3.089691  1178A      3.093538  
    1179A      3.096075  1180A      3.111939  1181A      3.130103  
    1182A      3.135444  1183A      3.137917  1184A      3.162929  
    1185A      3.185636  1186A      3.194214  1187A      3.198831  
    1188A      3.201116  1189A      3.210927  1190A      3.220281  
    1191A      3.240171  1192A      3.256146  1193A      3.334876  
    1194A      3.335230  1195A      3.364591  1196A      3.406175  
    1197A      3.410183  1198A      3.478850  1199A      3.509960  
    1200A      3.510578  1201A      3.551704  1202A      3.553634  
    1203A      3.571994  1204A      3.580852  1205A      3.605198  
    1206A      3.625779  1207A      3.633802  1208A      3.710825  
    1209A      3.719137  1210A      3.748470  1211A      3.788925  
    1212A      3.790343  1213A      3.830998  1214A      3.831334  
    1215A      3.899494  1216A      3.922350  1217A      4.024452  
    1218A      4.042893  1219A      4.164841  

    Final Occupation by Irrep:
              A 
    DOCC [   197 ]
    NA   [   197 ]
    NB   [   197 ]

  @DF-RHF Final Energy: -2359.15334125039772

   => Energetics <=

    Nuclear Repulsion Energy =           8460.4133123270639771
    One-Electron Energy =              -20018.5058799421276490
    Two-Electron Energy =                9198.9392263646659558
    Total Energy =                      -2359.1533412503977161

Computation Completed


Properties will be evaluated at   0.000000,   0.000000,   0.000000 [a0]

Properties computed using the SCF density matrix


 Multipole Moments:

 ------------------------------------------------------------------------------------
     Multipole            Electronic (a.u.)      Nuclear  (a.u.)        Total (a.u.)
 ------------------------------------------------------------------------------------

 L = 1.  Multiply by 2.5417464519 to convert [e a0] to [Debye]
 Dipole X            :         -0.0036212            0.0006313           -0.0029899
 Dipole Y            :         -0.0618908            0.0560211           -0.0058697
 Dipole Z            :         13.0440734          -16.3575994           -3.3135259
 Magnitude           :                                                    3.3135325

 ------------------------------------------------------------------------------------

*** tstop() called on n2cn0545 at Sat Feb 10 12:49:53 2024
Module time:
	user time   =    5944.16 seconds =      99.07 minutes
	system time =     220.64 seconds =       3.68 minutes
	total time  =        483 seconds =       8.05 minutes
Total time:
	user time   =    5944.16 seconds =      99.07 minutes
	system time =     220.64 seconds =       3.68 minutes
	total time  =        483 seconds =       8.05 minutes

  //>>>>>>>>>>>>>>>>>>>>>>>>>>>>>>>>>>>//
  //            Monomer A HF           //
  //<<<<<<<<<<<<<<<<<<<<<<<<<<<<<<<<<<<//

   => Libint2 <=

    Primary   basis highest AM E, G, H:  5, 4, 3
    Auxiliary basis highest AM E, G, H:  6, 5, 4
    Onebody   basis highest AM E, G, H:  6, 5, 4
    Solid Harmonics ordering:            gaussian

*** tstart() called on n2cn0545
*** at Sat Feb 10 12:49:53 2024

   => Loading Basis Set <=

    Name: JUN-CC-PVDZ
    Role: ORBITAL
    Keyword: BASIS
    atoms 1-2, 4-5, 10, 17-70 entry C          line   164 file /opt/software/pc2/EB-SW/software/PSI4/1.9-foss-2022a/share/psi4/basis/jun-cc-pvdz.gbs 
    atoms 3, 6                entry N          line   198 file /opt/software/pc2/EB-SW/software/PSI4/1.9-foss-2022a/share/psi4/basis/jun-cc-pvdz.gbs 
    atoms 7-9, 11-16, 71-88   entry H          line    36 file /opt/software/pc2/EB-SW/software/PSI4/1.9-foss-2022a/share/psi4/basis/jun-cc-pvdz.gbs 


         ---------------------------------------------------------
                                   SCF
               by Justin Turney, Rob Parrish, Andy Simmonett
                          and Daniel G. A. Smith
                              RHF Reference
                       16 Threads,  45776 MiB Core
         ---------------------------------------------------------

  ==> Geometry <==

    Molecular point group: c1
    Full point group: C1

    Geometry (in Angstrom), charge = 1, multiplicity = 1:

       Center              X                  Y                   Z               Mass       
    ------------   -----------------  -----------------  -----------------  -----------------
         C            0.680066520158    -0.008042372515    -4.270752744872    12.000000000000
         C           -0.680504479842    -0.006014372515    -4.270368744872    12.000000000000
         N           -1.085635479842    -0.005016372515    -2.952044744872    14.003074004430
         C            0.000107520158    -0.001740372515    -2.170643744872    12.000000000000
         C           -2.477365479842     0.044389627485    -2.484065744872    12.000000000000
         N            1.085221520158    -0.005016372515    -2.952044744872    14.003074004430
         H            1.385145520158    -0.015870372515    -5.088191744872     1.007825032230
         H           -1.385302479842    -0.006204372515    -5.088037744872     1.007825032230
         H           -0.000009479842     0.000006627485    -1.089554744872     1.007825032230
         C            2.478116520158    -0.021908372515    -2.486946744872    12.000000000000
         H            2.490591520158     0.005436627485    -1.396693744872     1.007825032230
         H            2.967027520158    -0.935354372515    -2.834122744872     1.007825032230
         H            3.001427520158     0.853574627485    -2.878418744872     1.007825032230
         H           -2.857359479842     1.066460627485    -2.564024744872     1.007825032230
         H           -3.082679479842    -0.625694372515    -3.097129744872     1.007825032230
         H           -2.518128479842    -0.282594372515    -1.444117744872     1.007825032230
      Gh(C)           1.225311895423     0.707538288405     0.451313882412    12.000000000000
      Gh(C)           1.225323856051    -0.707538895085     0.438983072841    12.000000000000
      Gh(C)          -0.000006153932     1.414965913575     0.438449449320    12.000000000000
      Gh(C)           2.456448753949     1.418327886663     0.454200739811    12.000000000000
      Gh(C)           0.000010827279    -1.414976499150     0.448649006645    12.000000000000
      Gh(C)          -1.225300948908     0.707545373469     0.453565402734    12.000000000000
      Gh(C)           2.456437755320    -1.418323304396     0.436737915984    12.000000000000
      Gh(C)          -0.000001332978     2.836801030766     0.436045899186    12.000000000000
      Gh(C)           3.681826697470     0.709317955486     0.437086705782    12.000000000000
      Gh(C)           2.455120048865     2.834223660974     0.436984148821    12.000000000000
      Gh(C)           3.681821105219    -0.709333839944     0.453159189801    12.000000000000
      Gh(C)          -1.225313598688    -0.707527516059     0.440055834268    12.000000000000
      Gh(C)           1.226699581202     3.543469483479     0.453343221731    12.000000000000
      Gh(C)           0.000004784858    -2.836782139751     0.453497174266    12.000000000000
      Gh(C)          -2.456436032848     1.418316917770     0.453600798580    12.000000000000
      Gh(C)           2.455123417779    -2.834230029103     0.453007281433    12.000000000000
      Gh(C)          -1.226714364589     3.543469063235     0.453446554951    12.000000000000
      Gh(C)           4.914517295202     1.427172871975     0.443567388812    12.000000000000
      Gh(C)           3.693150191476     3.542795292030     0.443617188448    12.000000000000
      Gh(C)          -2.456437600068    -1.418313281354     0.436712877860    12.000000000000
      Gh(C)           1.226704841943    -3.543474242421     0.437373090982    12.000000000000
      Gh(C)          -2.455125398508     2.834216662119     0.436990525168    12.000000000000
      Gh(C)           4.914524380782    -1.427186910459     0.446540131546    12.000000000000
      Gh(C)           1.221424613699     4.970134064745     0.446678565806    12.000000000000
      Gh(C)           4.893008229321     2.825187999512     0.444784057170    12.000000000000
      Gh(C)          -1.226697008489    -3.543470997592     0.437640295391    12.000000000000
      Gh(C)          -3.681818976526     0.709324966217     0.437099386262    12.000000000000
      Gh(C)           3.693147101150    -3.542801341905     0.446658022107    12.000000000000
      Gh(C)          -1.221432251994     4.970128297348     0.446862061179    12.000000000000
      Gh(C)           6.134770972926     0.680547946591     0.444337163361    12.000000000000
      Gh(C)           3.656788880610     4.972953243053     0.444525826231    12.000000000000
      Gh(C)          -2.455126907733    -2.834215093576     0.452762923635    12.000000000000
      Gh(C)          -3.681819179061    -0.709325703983     0.453276811379    12.000000000000
      Gh(C)           4.893012617914    -2.825200106147     0.445395209066    12.000000000000
      Gh(C)          -0.000001073113     5.650447365518     0.445630752472    12.000000000000
      Gh(C)           6.134775112332    -0.680554854590     0.445602483877    12.000000000000
      Gh(C)           2.478131482856     5.653576750817     0.445814605880    12.000000000000
      Gh(C)           1.221422404738    -4.970127055448     0.443879068783    12.000000000000
      Gh(C)          -3.693162383965     3.542796953677     0.443782695907    12.000000000000
      Gh(C)          -1.221428520945    -4.970118304111     0.443766306951    12.000000000000
      Gh(C)          -4.914521807942     1.427175446480     0.443644333819    12.000000000000
      Gh(C)           3.656787019679    -4.972955226754     0.445976326765    12.000000000000
      Gh(C)          -2.478138530106     5.653574422014     0.446099130889    12.000000000000
      Gh(C)          -3.693141738564    -3.542790219494     0.446541895951    12.000000000000
      Gh(C)          -4.914512483053    -1.427181000542     0.446574828720    12.000000000000
      Gh(C)          -0.000006008926    -5.650438287528     0.445235248351    12.000000000000
      Gh(C)          -4.893020484101     2.825188598404     0.444773975310    12.000000000000
      Gh(C)           2.478125993298    -5.653573544403     0.444885725972    12.000000000000
      Gh(C)          -3.656798710258     4.972956181527     0.444702506605    12.000000000000
      Gh(C)          -4.892999478856    -2.825191767575     0.445241173368    12.000000000000
      Gh(C)          -2.478128498083    -5.653566170521     0.444610538325    12.000000000000
      Gh(C)          -6.134770503331     0.680548765741     0.444311611659    12.000000000000
      Gh(C)          -3.656788833189    -4.972944023485     0.445762038948    12.000000000000
      Gh(C)          -6.134765042913    -0.680553915997     0.445582008082    12.000000000000
      Gh(H)           5.835288495816     3.369275894439     0.449143382833     1.007825032230
      Gh(H)           7.073859172747     1.228217248385     0.444798806755     1.007825032230
      Gh(H)           4.600663264174     5.512380801938     0.445031026982     1.007825032230
      Gh(H)           5.835283387305    -3.369306057244     0.440940741751     1.007825032230
      Gh(H)          -0.000012151306     6.738530673622     0.441281507464     1.007825032230
      Gh(H)           7.073861171831    -1.228226943259     0.445093745783     1.007825032230
      Gh(H)           2.473313731799     6.740684290880     0.445347884950     1.007825032230
      Gh(H)           4.600668491381    -5.512376129691     0.445566329596     1.007825032230
      Gh(H)          -2.473318680537     6.740681719092     0.445649231575     1.007825032230
      Gh(H)          -0.000010268228    -6.738528176967     0.449764933335     1.007825032230
      Gh(H)          -5.835301914343     3.369270949781     0.449279404981     1.007825032230
      Gh(H)           2.473307923831    -6.740685374944     0.445456056397     1.007825032230
      Gh(H)          -4.600674841208     5.512378026089     0.445196355306     1.007825032230
      Gh(H)          -5.835279506835    -3.369288964294     0.440661435870     1.007825032230
      Gh(H)          -2.473300347440    -6.740679078655     0.445006739853     1.007825032230
      Gh(H)          -7.073857766768     1.228220472326     0.444714815274     1.007825032230
      Gh(H)          -4.600673786085    -5.512362670301     0.445394021573     1.007825032230
      Gh(H)          -7.073856934409    -1.228220632492     0.444998889317     1.007825032230

  Running in c1 symmetry.

  Rotational constants: A =      0.00193  B =      0.00188  C =      0.00109 [cm^-1]
  Rotational constants: A =     57.99561  B =     56.44549  C =     32.71081 [MHz]
  Nuclear repulsion =  306.774908447733026

  Charge       = 1
  Multiplicity = 1
  Electrons    = 52
  Nalpha       = 26
  Nbeta        = 26

  ==> Algorithm <==

  SCF Algorithm Type is DF.
  DIIS enabled.
  MOM disabled.
  Fractional occupation disabled.
  Guess Type is SAD.
  Energy threshold   = 1.00e-08
  Density threshold  = 1.00e-08
  Integral threshold = 1.00e-12

  ==> Primary Basis <==

  Basis Set: JUN-CC-PVDZ
    Blend: JUN-CC-PVDZ
    Number of shells: 569
    Number of basis functions: 1233
    Number of Cartesian functions: 1294
    Spherical Harmonics?: true
    Max angular momentum: 2

   => Loading Basis Set <=

    Name: (JUN-CC-PVDZ AUX)
    Role: JKFIT
    Keyword: DF_BASIS_SCF
    atoms 1-2, 4-5, 10, 17-70 entry C          line   146 file /opt/software/pc2/EB-SW/software/PSI4/1.9-foss-2022a/share/psi4/basis/jun-cc-pvdz-jkfit.gbs 
    atoms 3, 6                entry N          line   202 file /opt/software/pc2/EB-SW/software/PSI4/1.9-foss-2022a/share/psi4/basis/jun-cc-pvdz-jkfit.gbs 
    atoms 7-9, 11-16, 71-88   entry H          line    70 file /opt/software/pc2/EB-SW/software/PSI4/1.9-foss-2022a/share/psi4/basis/jun-cc-pvdz-jkfit.gbs 

  ==> Integral Setup <==

  ==> DiskDFJK: Density-Fitted J/K Matrices <==

    J tasked:                  Yes
    K tasked:                  Yes
    wK tasked:                  No
    OpenMP threads:             16
    Integrals threads:          16
    Memory [MiB]:            34332
    Algorithm:                Core
    Integral Cache:           LOAD
    Schwarz Cutoff:          1E-12
    Fitting Condition:       1E-10

   => Auxiliary Basis Set <=

  Basis Set: (JUN-CC-PVDZ AUX)
    Blend: JUN-CC-PVDZ-JKFIT
    Number of shells: 1890
    Number of basis functions: 5440
    Number of Cartesian functions: 6226
    Spherical Harmonics?: true
    Max angular momentum: 3

  Minimum eigenvalue in the overlap matrix is 2.8910587714E-10.
  Reciprocal condition number of the overlap matrix is 1.1085202782E-11.
    Using canonical orthogonalization.
  Overall, 14 of 1233 possible MOs eliminated.


  ==> Pre-Iterations <==

  SCF Guess: Superposition of Atomic Densities via on-the-fly atomic UHF (no occupation information).

   -------------------------
    Irrep   Nso     Nmo    
   -------------------------
     A       1233    1219 
   -------------------------
    Total    1233    1219
   -------------------------

  ==> Iterations <==

                           Total Energy        Delta E     RMS |[F,P]|

   @DF-RHF iter SAD:  -303.36537997247245   -3.03365e+02   0.00000e+00 
   @DF-RHF iter   1:  -303.17086458454935    1.94515e-01   3.45190e-04 ADIIS/DIIS
   @DF-RHF iter   2:  -303.28536962755936   -1.14505e-01   1.16189e-04 ADIIS/DIIS
   @DF-RHF iter   3:  -303.29690992458745   -1.15403e-02   4.55752e-05 DIIS
   @DF-RHF iter   4:  -303.29884239907415   -1.93247e-03   1.00278e-05 DIIS
   @DF-RHF iter   5:  -303.29895179858977   -1.09400e-04   2.45245e-06 DIIS
   @DF-RHF iter   6:  -303.29896145811165   -9.65952e-06   6.61881e-07 DIIS
   @DF-RHF iter   7:  -303.29896256857330   -1.11046e-06   3.38653e-07 DIIS
   @DF-RHF iter   8:  -303.29896283438433   -2.65811e-07   1.36586e-07 DIIS
   @DF-RHF iter   9:  -303.29896288569216   -5.13078e-08   3.39326e-08 DIIS
   @DF-RHF iter  10:  -303.29896288854775   -2.85559e-09   1.25903e-08 DIIS
   @DF-RHF iter  11:  -303.29896288878751   -2.39766e-10   2.97527e-09 DIIS
  Energy and wave function converged.


  ==> Post-Iterations <==

    Orbital Energies [Eh]
    ---------------------

    Doubly Occupied:                                                      

       1A    -15.834515     2A    -15.833962     3A    -11.529009  
       4A    -11.459615     5A    -11.458060     6A    -11.449495  
       7A    -11.449359     8A     -1.577592     9A     -1.433243  
      10A     -1.238117    11A     -1.188901    12A     -1.118533  
      13A     -1.021989    14A     -0.996468    15A     -0.916605  
      16A     -0.850111    17A     -0.815807    18A     -0.812683  
      19A     -0.789668    20A     -0.785941    21A     -0.781332  
      22A     -0.729424    23A     -0.725502    24A     -0.716955  
      25A     -0.595836    26A     -0.523466  

    Virtual:                                                              

      27A     -0.080778    28A     -0.073941    29A     -0.063206  
      30A     -0.056386    31A     -0.044519    32A     -0.041322  
      33A     -0.040835    34A     -0.039070    35A     -0.038868  
      36A     -0.026863    37A     -0.026639    38A     -0.023290  
      39A     -0.022412    40A     -0.016851    41A     -0.015533  
      42A     -0.013950    43A     -0.008580    44A     -0.006968  
      45A      0.001011    46A      0.003025    47A      0.004468  
      48A      0.005317    49A      0.005708    50A      0.005828  
      51A      0.011407    52A      0.011840    53A      0.012845  
      54A      0.018835    55A      0.021731    56A      0.023904  
      57A      0.025533    58A      0.026694    59A      0.028203  
      60A      0.029376    61A      0.036065    62A      0.037966  
      63A      0.040820    64A      0.041205    65A      0.041503  
      66A      0.047408    67A      0.048679    68A      0.051849  
      69A      0.052616    70A      0.053242    71A      0.054536  
      72A      0.055811    73A      0.059118    74A      0.061003  
      75A      0.061556    76A      0.062082    77A      0.063218  
      78A      0.065897    79A      0.066243    80A      0.070605  
      81A      0.071039    82A      0.072309    83A      0.073612  
      84A      0.074956    85A      0.079081    86A      0.079872  
      87A      0.081589    88A      0.084440    89A      0.085649  
      90A      0.086578    91A      0.087161    92A      0.087669  
      93A      0.089951    94A      0.091614    95A      0.099102  
      96A      0.099908    97A      0.100625    98A      0.103011  
      99A      0.104080   100A      0.105368   101A      0.106073  
     102A      0.107484   103A      0.110245   104A      0.110452  
     105A      0.110606   106A      0.111317   107A      0.112549  
     108A      0.113689   109A      0.116461   110A      0.116789  
     111A      0.120104   112A      0.120754   113A      0.121324  
     114A      0.121842   115A      0.124357   116A      0.126105  
     117A      0.126895   118A      0.130173   119A      0.131712  
     120A      0.133146   121A      0.136073   122A      0.139490  
     123A      0.139830   124A      0.140355   125A      0.142783  
     126A      0.143631   127A      0.144877   128A      0.148446  
     129A      0.149586   130A      0.150257   131A      0.150768  
     132A      0.152436   133A      0.153370   134A      0.156307  
     135A      0.157236   136A      0.158161   137A      0.160197  
     138A      0.161625   139A      0.164712   140A      0.167195  
     141A      0.167474   142A      0.168882   143A      0.169965  
     144A      0.170465   145A      0.172754   146A      0.173935  
     147A      0.175223   148A      0.175782   149A      0.176021  
     150A      0.177733   151A      0.177928   152A      0.182520  
     153A      0.184063   154A      0.185386   155A      0.190655  
     156A      0.192785   157A      0.195406   158A      0.197835  
     159A      0.200826   160A      0.201311   161A      0.201566  
     162A      0.202294   163A      0.204316   164A      0.204746  
     165A      0.207857   166A      0.208127   167A      0.209005  
     168A      0.210385   169A      0.211718   170A      0.212094  
     171A      0.212799   172A      0.218281   173A      0.219903  
     174A      0.220769   175A      0.221225   176A      0.221456  
     177A      0.224262   178A      0.225644   179A      0.226824  
     180A      0.227615   181A      0.228851   182A      0.229492  
     183A      0.234027   184A      0.234480   185A      0.238923  
     186A      0.240323   187A      0.243301   188A      0.243878  
     189A      0.247790   190A      0.252569   191A      0.256117  
     192A      0.257616   193A      0.259033   194A      0.259300  
     195A      0.261164   196A      0.262262   197A      0.265225  
     198A      0.266123   199A      0.267311   200A      0.270802  
     201A      0.272282   202A      0.272398   203A      0.274211  
     204A      0.275040   205A      0.275369   206A      0.279906  
     207A      0.281074   208A      0.281592   209A      0.282974  
     210A      0.284539   211A      0.286386   212A      0.286447  
     213A      0.289139   214A      0.290488   215A      0.292263  
     216A      0.293999   217A      0.297527   218A      0.299037  
     219A      0.302467   220A      0.303998   221A      0.305926  
     222A      0.308905   223A      0.310615   224A      0.310890  
     225A      0.311523   226A      0.318695   227A      0.319396  
     228A      0.321902   229A      0.323774   230A      0.328480  
     231A      0.329000   232A      0.331351   233A      0.335490  
     234A      0.337347   235A      0.339913   236A      0.341885  
     237A      0.343422   238A      0.344551   239A      0.345309  
     240A      0.346801   241A      0.349335   242A      0.351519  
     243A      0.353952   244A      0.357126   245A      0.358049  
     246A      0.359625   247A      0.361352   248A      0.362952  
     249A      0.363459   250A      0.365669   251A      0.367911  
     252A      0.371351   253A      0.373359   254A      0.374047  
     255A      0.376711   256A      0.377728   257A      0.378704  
     258A      0.379206   259A      0.379867   260A      0.383043  
     261A      0.383775   262A      0.385350   263A      0.387549  
     264A      0.388764   265A      0.390303   266A      0.390811  
     267A      0.394034   268A      0.394628   269A      0.397568  
     270A      0.399369   271A      0.401521   272A      0.402416  
     273A      0.403298   274A      0.410503   275A      0.413117  
     276A      0.415462   277A      0.417455   278A      0.419115  
     279A      0.419673   280A      0.420591   281A      0.424616  
     282A      0.428704   283A      0.431558   284A      0.432726  
     285A      0.436403   286A      0.437901   287A      0.440638  
     288A      0.441925   289A      0.442998   290A      0.444902  
     291A      0.446877   292A      0.447345   293A      0.449983  
     294A      0.452453   295A      0.453446   296A      0.454555  
     297A      0.458018   298A      0.459442   299A      0.460024  
     300A      0.464389   301A      0.466247   302A      0.466618  
     303A      0.467524   304A      0.472204   305A      0.475475  
     306A      0.479034   307A      0.483501   308A      0.485368  
     309A      0.486170   310A      0.488459   311A      0.489086  
     312A      0.495051   313A      0.496223   314A      0.496296  
     315A      0.496853   316A      0.499105   317A      0.500331  
     318A      0.501303   319A      0.503610   320A      0.505011  
     321A      0.506330   322A      0.514969   323A      0.518315  
     324A      0.519936   325A      0.520289   326A      0.523052  
     327A      0.525680   328A      0.528064   329A      0.531716  
     330A      0.531897   331A      0.534100   332A      0.536025  
     333A      0.539848   334A      0.541952   335A      0.545898  
     336A      0.548792   337A      0.550860   338A      0.551725  
     339A      0.553523   340A      0.554226   341A      0.556226  
     342A      0.558516   343A      0.559925   344A      0.562251  
     345A      0.563480   346A      0.568494   347A      0.571121  
     348A      0.572390   349A      0.573638   350A      0.576814  
     351A      0.583606   352A      0.585020   353A      0.588994  
     354A      0.592028   355A      0.592872   356A      0.593828  
     357A      0.597462   358A      0.598933   359A      0.599654  
     360A      0.601517   361A      0.602249   362A      0.603835  
     363A      0.607232   364A      0.608784   365A      0.610142  
     366A      0.611421   367A      0.614254   368A      0.615740  
     369A      0.617154   370A      0.619988   371A      0.622577  
     372A      0.626853   373A      0.639970   374A      0.641098  
     375A      0.644901   376A      0.647466   377A      0.650537  
     378A      0.655273   379A      0.655500   380A      0.664152  
     381A      0.665435   382A      0.669349   383A      0.671343  
     384A      0.673697   385A      0.674648   386A      0.676424  
     387A      0.676534   388A      0.678056   389A      0.679384  
     390A      0.680662   391A      0.681475   392A      0.682679  
     393A      0.683493   394A      0.684724   395A      0.689339  
     396A      0.695818   397A      0.701133   398A      0.702571  
     399A      0.704942   400A      0.707651   401A      0.708883  
     402A      0.710919   403A      0.714996   404A      0.721875  
     405A      0.722250   406A      0.722548   407A      0.725515  
     408A      0.742340   409A      0.747812   410A      0.749050  
     411A      0.752545   412A      0.764194   413A      0.764530  
     414A      0.767934   415A      0.769536   416A      0.773519  
     417A      0.783241   418A      0.784992   419A      0.789412  
     420A      0.792290   421A      0.793828   422A      0.796201  
     423A      0.799955   424A      0.800729   425A      0.804510  
     426A      0.808479   427A      0.812530   428A      0.814079  
     429A      0.816224   430A      0.817759   431A      0.827641  
     432A      0.828525   433A      0.834728   434A      0.840513  
     435A      0.841670   436A      0.855548   437A      0.859031  
     438A      0.861977   439A      0.871567   440A      0.872269  
     441A      0.876401   442A      0.879759   443A      0.880464  
     444A      0.890395   445A      0.896104   446A      0.898539  
     447A      0.910730   448A      0.912639   449A      0.917999  
     450A      0.919101   451A      0.920285   452A      0.920960  
     453A      0.925181   454A      0.929685   455A      0.932279  
     456A      0.941284   457A      0.946268   458A      0.951981  
     459A      0.969593   460A      0.972126   461A      0.974348  
     462A      0.978625   463A      0.980186   464A      0.991644  
     465A      0.995990   466A      1.009602   467A      1.012988  
     468A      1.014305   469A      1.019008   470A      1.022061  
     471A      1.032434   472A      1.044327   473A      1.053536  
     474A      1.054670   475A      1.058116   476A      1.069985  
     477A      1.071286   478A      1.077953   479A      1.085422  
     480A      1.086986   481A      1.094360   482A      1.096497  
     483A      1.097359   484A      1.098953   485A      1.099500  
     486A      1.106704   487A      1.108109   488A      1.117408  
     489A      1.121707   490A      1.129163   491A      1.130739  
     492A      1.144879   493A      1.152035   494A      1.165122  
     495A      1.168145   496A      1.170430   497A      1.184354  
     498A      1.192091   499A      1.205198   500A      1.212094  
     501A      1.212435   502A      1.213737   503A      1.214395  
     504A      1.216171   505A      1.223143   506A      1.228278  
     507A      1.236309   508A      1.237478   509A      1.237914  
     510A      1.246036   511A      1.274447   512A      1.277936  
     513A      1.294707   514A      1.351335   515A      1.352351  
     516A      1.353875   517A      1.360561   518A      1.365311  
     519A      1.366468   520A      1.369816   521A      1.385243  
     522A      1.399116   523A      1.405545   524A      1.409008  
     525A      1.413853   526A      1.430668   527A      1.443313  
     528A      1.455342   529A      1.462450   530A      1.467975  
     531A      1.472233   532A      1.480797   533A      1.482454  
     534A      1.488244   535A      1.494863   536A      1.508822  
     537A      1.510291   538A      1.518987   539A      1.526163  
     540A      1.540200   541A      1.550041   542A      1.562655  
     543A      1.565247   544A      1.573930   545A      1.583115  
     546A      1.585866   547A      1.589847   548A      1.597686  
     549A      1.603035   550A      1.606502   551A      1.612215  
     552A      1.621940   553A      1.628502   554A      1.635509  
     555A      1.645701   556A      1.652276   557A      1.656973  
     558A      1.663039   559A      1.667463   560A      1.668755  
     561A      1.670456   562A      1.678740   563A      1.679245  
     564A      1.684192   565A      1.687369   566A      1.690783  
     567A      1.694401   568A      1.697294   569A      1.698757  
     570A      1.706772   571A      1.711888   572A      1.716244  
     573A      1.722191   574A      1.722677   575A      1.729558  
     576A      1.733539   577A      1.737287   578A      1.739106  
     579A      1.739683   580A      1.740345   581A      1.744178  
     582A      1.744680   583A      1.746109   584A      1.755918  
     585A      1.759185   586A      1.762160   587A      1.766221  
     588A      1.769198   589A      1.779353   590A      1.781857  
     591A      1.783904   592A      1.784331   593A      1.787408  
     594A      1.788352   595A      1.792734   596A      1.794519  
     597A      1.798288   598A      1.798825   599A      1.800997  
     600A      1.803862   601A      1.806431   602A      1.809023  
     603A      1.811474   604A      1.812885   605A      1.815012  
     606A      1.815290   607A      1.820144   608A      1.823256  
     609A      1.831312   610A      1.832048   611A      1.834627  
[...]
     817A      1.763413   818A      1.772602   819A      1.777626  
     820A      1.779705   821A      1.791290   822A      1.793660  
     823A      1.803036   824A      1.810102   825A      1.811257  
     826A      1.816950   827A      1.819029   828A      1.820054  
     829A      1.822924   830A      1.828878   831A      1.831101  
     832A      1.834557   833A      1.837028   834A      1.838534  
     835A      1.842705   836A      1.846974   837A      1.852379  
     838A      1.856507   839A      1.859432   840A      1.865018  
     841A      1.866332   842A      1.868083   843A      1.872730  
     844A      1.875553   845A      1.877797   846A      1.878482  
     847A      1.880275   848A      1.892314   849A      1.892783  
     850A      1.899510   851A      1.903852   852A      1.904278  
     853A      1.906091   854A      1.908024   855A      1.908726  
     856A      1.915375   857A      1.916610   858A      1.919831  
     859A      1.920444   860A      1.922217   861A      1.934155  
     862A      1.935671   863A      1.938806   864A      1.943595  
     865A      1.943874   866A      1.947030   867A      1.947986  
     868A      1.948474   869A      1.949280   870A      1.955021  
     871A      1.956786   872A      1.959163   873A      1.963855  
     874A      1.967783   875A      1.975902   876A      1.980750  
     877A      1.987930   878A      1.989760   879A      1.995627  
     880A      1.999539   881A      2.000678   882A      2.001420  
     883A      2.005062   884A      2.008987   885A      2.012541  
     886A      2.014581   887A      2.016377   888A      2.019684  
     889A      2.023341   890A      2.029031   891A      2.030049  
     892A      2.031130   893A      2.034496   894A      2.035991  
     895A      2.038883   896A      2.039786   897A      2.047710  
     898A      2.051872   899A      2.053019   900A      2.055533  
     901A      2.059545   902A      2.062248   903A      2.065136  
     904A      2.066714   905A      2.070147   906A      2.071250  
     907A      2.073908   908A      2.076843   909A      2.077697  
     910A      2.080494   911A      2.086275   912A      2.091119  
     913A      2.091763   914A      2.094414   915A      2.096842  
     916A      2.098627   917A      2.099894   918A      2.100906  
     919A      2.102394   920A      2.107320   921A      2.108750  
     922A      2.109941   923A      2.112024   924A      2.113126  
     925A      2.115965   926A      2.117622   927A      2.120302  
     928A      2.120644   929A      2.122380   930A      2.124701  
     931A      2.129626   932A      2.130379   933A      2.131818  
     934A      2.132929   935A      2.134896   936A      2.136079  
     937A      2.139672   938A      2.140602   939A      2.143368  
     940A      2.148749   941A      2.150067   942A      2.151605  
     943A      2.153040   944A      2.156948   945A      2.166264  
     946A      2.168123   947A      2.171748   948A      2.173788  
     949A      2.179286   950A      2.182846   951A      2.184522  
     952A      2.186402   953A      2.189625   954A      2.191995  
     955A      2.196814   956A      2.200059   957A      2.200980  
     958A      2.204345   959A      2.211607   960A      2.217897  
     961A      2.222204   962A      2.225712   963A      2.229380  
     964A      2.230913   965A      2.234962   966A      2.238026  
     967A      2.240838   968A      2.242391   969A      2.244929  
     970A      2.245679   971A      2.246679   972A      2.247552  
     973A      2.249389   974A      2.255004   975A      2.263362  
     976A      2.266025   977A      2.269706   978A      2.271230  
     979A      2.272449   980A      2.273086   981A      2.281423  
     982A      2.282164   983A      2.283868   984A      2.289055  
     985A      2.295991   986A      2.297402   987A      2.305609  
     988A      2.311598   989A      2.313238   990A      2.320831  
     991A      2.328945   992A      2.332546   993A      2.335409  
     994A      2.337763   995A      2.345079   996A      2.345973  
     997A      2.352145   998A      2.354707   999A      2.360969  
    1000A      2.361717  1001A      2.363197  1002A      2.368814  
    1003A      2.374014  1004A      2.381449  1005A      2.391181  
    1006A      2.394352  1007A      2.410517  1008A      2.416148  
    1009A      2.420491  1010A      2.423958  1011A      2.425287  
    1012A      2.426276  1013A      2.429835  1014A      2.435126  
    1015A      2.438170  1016A      2.454111  1017A      2.467187  
    1018A      2.467826  1019A      2.479199  1020A      2.486776  
    1021A      2.487737  1022A      2.490254  1023A      2.493332  
    1024A      2.501349  1025A      2.509393  1026A      2.514866  
    1027A      2.516213  1028A      2.522394  1029A      2.529764  
    1030A      2.532160  1031A      2.542269  1032A      2.544663  
    1033A      2.546514  1034A      2.553401  1035A      2.556377  
    1036A      2.557972  1037A      2.559684  1038A      2.560161  
    1039A      2.563332  1040A      2.565892  1041A      2.572304  
    1042A      2.573706  1043A      2.576148  1044A      2.577507  
    1045A      2.581166  1046A      2.584737  1047A      2.587789  
    1048A      2.591356  1049A      2.595955  1050A      2.604022  
    1051A      2.605404  1052A      2.614334  1053A      2.619698  
    1054A      2.622375  1055A      2.626873  1056A      2.636501  
    1057A      2.639701  1058A      2.642583  1059A      2.646516  
    1060A      2.654540  1061A      2.660394  1062A      2.667317  
    1063A      2.671937  1064A      2.677531  1065A      2.685575  
    1066A      2.689759  1067A      2.692383  1068A      2.700173  
    1069A      2.704624  1070A      2.708114  1071A      2.712411  
    1072A      2.713641  1073A      2.714124  1074A      2.719538  
    1075A      2.720666  1076A      2.724279  1077A      2.727254  
    1078A      2.730900  1079A      2.735997  1080A      2.747950  
    1081A      2.755596  1082A      2.766576  1083A      2.770165  
    1084A      2.772616  1085A      2.786792  1086A      2.791069  
    1087A      2.798329  1088A      2.810657  1089A      2.816389  
    1090A      2.828766  1091A      2.831828  1092A      2.841364  
    1093A      2.845498  1094A      2.851882  1095A      2.855034  
    1096A      2.858519  1097A      2.858964  1098A      2.864100  
    1099A      2.870583  1100A      2.875865  1101A      2.893495  
    1102A      2.897034  1103A      2.913227  1104A      2.919597  
    1105A      2.924459  1106A      2.938151  1107A      2.945320  
    1108A      2.950962  1109A      2.953995  1110A      2.964326  
    1111A      2.965749  1112A      2.990952  1113A      3.001811  
    1114A      3.022203  1115A      3.026513  1116A      3.036225  
    1117A      3.047192  1118A      3.051915  1119A      3.056781  
    1120A      3.059711  1121A      3.064994  1122A      3.066703  
    1123A      3.076275  1124A      3.083982  1125A      3.094870  
    1126A      3.098489  1127A      3.119563  1128A      3.126998  
    1129A      3.136657  1130A      3.141035  1131A      3.141923  
    1132A      3.144945  1133A      3.148740  1134A      3.149583  
    1135A      3.150286  1136A      3.153551  1137A      3.154958  
    1138A      3.156896  1139A      3.166323  1140A      3.176991  
    1141A      3.177612  1142A      3.191805  1143A      3.195394  
    1144A      3.211174  1145A      3.213582  1146A      3.230687  
    1147A      3.235881  1148A      3.246907  1149A      3.260497  
    1150A      3.282575  1151A      3.285180  1152A      3.293108  
    1153A      3.305487  1154A      3.308332  1155A      3.313296  
    1156A      3.335634  1157A      3.365993  1158A      3.402996  
    1159A      3.425266  1160A      3.427214  1161A      3.451836  
    1162A      3.493758  1163A      3.498857  1164A      3.509539  
    1165A      3.550469  1166A      3.577705  1167A      3.594154  
    1168A      3.603786  1169A      3.632744  1170A      3.641371  
    1171A      3.650607  1172A      3.665545  1173A      3.687017  
    1174A      3.694792  1175A      3.709217  1176A      3.715476  
    1177A      3.771758  1178A      3.804074  1179A      3.817585  
    1180A      3.843491  1181A      3.862440  1182A      3.873088  
    1183A      3.879749  1184A      3.903259  1185A      3.917073  
    1186A      3.917854  1187A      3.991243  1188A      4.012550  
    1189A      4.049443  1190A      4.120451  1191A      4.149498  
    1192A      4.258071  1193A      4.258827  1194A      4.295158  
    1195A      4.476083  1196A      4.480774  1197A      4.551570  
    1198A      4.859131  1199A      4.876883  1200A      4.927737  
    1201A      4.966605  1202A      4.998511  1203A      5.100258  
    1204A      5.110627  1205A      5.136063  1206A      5.162125  
    1207A      5.279082  1208A      5.430918  1209A      5.455014  
    1210A      5.805244  1211A      5.821176  1212A      6.097051  
    1213A     18.211609  1214A     18.506333  1215A     18.529371  
    1216A     18.653814  1217A     18.869262  1218A     25.363441  
    1219A     25.402302  

    Final Occupation by Irrep:
              A 
    DOCC [   171 ]
    NA   [   171 ]
    NB   [   171 ]

  @DF-RHF Final Energy: -2055.89615014668334

   => Energetics <=

    Nuclear Repulsion Energy =           6452.5568002797781446
    One-Electron Energy =              -15636.5430615024542931
    Two-Electron Energy =                7128.0901110759914445
    Total Energy =                      -2055.8961501466837944

Computation Completed


Properties will be evaluated at   0.000000,   0.000000,   0.000000 [a0]

Properties computed using the SCF density matrix


 Multipole Moments:

 ------------------------------------------------------------------------------------
     Multipole            Electronic (a.u.)      Nuclear  (a.u.)        Total (a.u.)
 ------------------------------------------------------------------------------------

 L = 1.  Multiply by 2.5417464519 to convert [e a0] to [Debye]
 Dipole X            :         -0.0000435           -0.0000085           -0.0000520
 Dipole Y            :          0.0008120            0.0000167            0.0008286
 Dipole Z            :       -287.7112116          287.7098873           -0.0013242
 Magnitude           :                                                    0.0015630

 ------------------------------------------------------------------------------------

*** tstop() called on n2cn0545 at Sat Feb 10 12:56:55 2024
Module time:
	user time   =    3659.86 seconds =      61.00 minutes
	system time =     142.11 seconds =       2.37 minutes
	total time  =        268 seconds =       4.47 minutes
Total time:
	user time   =   11536.02 seconds =     192.27 minutes
	system time =     396.41 seconds =       6.61 minutes
	total time  =        905 seconds =      15.08 minutes
  Constructing Basis Sets for SAPT...

   => Loading Basis Set <=

    Name: (JUN-CC-PVDZ AUX)
    Role: RIFIT
    Keyword: DF_BASIS_SAPT
    atoms 1-2, 4-5, 10, 17-70 entry C          line   100 file /opt/software/pc2/EB-SW/software/PSI4/1.9-foss-2022a/share/psi4/basis/jun-cc-pvdz-ri.gbs 
    atoms 3, 6                entry N          line   144 file /opt/software/pc2/EB-SW/software/PSI4/1.9-foss-2022a/share/psi4/basis/jun-cc-pvdz-ri.gbs 
    atoms 7-9, 11-16, 71-88   entry H          line    30 file /opt/software/pc2/EB-SW/software/PSI4/1.9-foss-2022a/share/psi4/basis/jun-cc-pvdz-ri.gbs 

   => Loading Basis Set <=

    Name: (JUN-CC-PVDZ AUX)
    Role: JKFIT
    Keyword: DF_BASIS_ELST
    atoms 1-2, 4-5, 10, 17-70 entry C          line   146 file /opt/software/pc2/EB-SW/software/PSI4/1.9-foss-2022a/share/psi4/basis/jun-cc-pvdz-jkfit.gbs 
    atoms 3, 6                entry N          line   202 file /opt/software/pc2/EB-SW/software/PSI4/1.9-foss-2022a/share/psi4/basis/jun-cc-pvdz-jkfit.gbs 
    atoms 7-9, 11-16, 71-88   entry H          line    70 file /opt/software/pc2/EB-SW/software/PSI4/1.9-foss-2022a/share/psi4/basis/jun-cc-pvdz-jkfit.gbs 


  //>>>>>>>>>>>>>>>>>>>>>>>>>>>>>>>>>>>//
  //               SSAPT0              //
  //<<<<<<<<<<<<<<<<<<<<<<<<<<<<<<<<<<<//


*** tstart() called on n2cn0545
*** at Sat Feb 10 12:56:56 2024

        SAPT0  
    Ed Hohenstein
     6 June 2009

      Orbital Information
  --------------------------
    NSO        =      1233
    NMO        =      1219
    NRI        =      4343
    NRI (Elst) =      5440
    NOCC A     =        26
    NOCC B     =       171
    FOCC A     =         7
    FOCC B     =        54
    NVIR A     =      1193
    NVIR B     =      1048

    Elst10,r            =    -0.047677721073 [Eh]
    Exch10              =     0.129340312449 [Eh]
    Exch10 (S^2)        =     0.125396761654 [Eh]

    Iter     Energy [mEh]          dE [mEh]         Residual      Time [s]
       1     -17.31065680      17.310656803      22.187053834            21
       2     -21.52142238       4.210765582       7.050979470            39
       3     -21.97216492       0.450742537       1.420205603            62
       4     -21.94474952      -0.027415399       0.501690022            81
       5     -21.92335722      -0.021392305       0.122709939            98
       6     -21.92842358       0.005066362       0.058549285           119
       7     -21.92830161      -0.000121966       0.026369822           135
       8     -21.92773815      -0.000563459       0.006008564           155
       9     -21.92771207      -0.000026084       0.001796893           171
      10     -21.92773327       0.000021198       0.000498918           191
      11     -21.92773634       0.000003068       0.000124611           213
      12     -21.92773538      -0.000000960       0.000041653           231
      13     -21.92773493      -0.000000448       0.000011155           251
      14     -21.92773509       0.000000160       0.000003224           269
      15     -21.92773508      -0.000000008       0.000001008           287
      16     -21.92773507      -0.000000011       0.000000296           304

    CHF Iterations converged


    Iter     Energy [mEh]          dE [mEh]         Residual      Time [s]
       1     -49.69367080      49.693670795      99.408033210            22
       2     -40.03388377      -9.659787025      17.419585737            41
       3     -41.94330337       1.909419601       7.867658741            61
       4     -43.22050913       1.277205758       1.517069917            80
       5     -43.23850131       0.017992183       0.604879804            99
       6     -43.18910620      -0.049395107       0.267262622           118
       7     -43.18481951      -0.004286693       0.126558520           136
       8     -43.19255787       0.007738363       0.052373291           155
       9     -43.19362718       0.001069308       0.021193328           174
      10     -43.19280644      -0.000820746       0.009361529           194
      11     -43.19263645      -0.000169990       0.004289698           213
      12     -43.19274438       0.000107936       0.002180497           232
      13     -43.19280376       0.000059372       0.000930347           251
      14     -43.19277759      -0.000026161       0.000573869           270
      15     -43.19276666      -0.000010936       0.000310694           289
      16     -43.19277246       0.000005805       0.000193018           309
      17     -43.19277678       0.000004318       0.000094684           328
      18     -43.19277534      -0.000001442       0.000053111           347
      19     -43.19277437      -0.000000973       0.000029430           367
      20     -43.19277450       0.000000129       0.000015775           386
      21     -43.19277486       0.000000364       0.000006957           406
      22     -43.19277484      -0.000000020       0.000003551           425
      23     -43.19277478      -0.000000060       0.000001939           445
      24     -43.19277476      -0.000000014       0.000000973           464

    CHF Iterations converged

    Ind20,r (A<-B)      =    -0.021927735069 [Eh]
    Ind20,r (B<-A)      =    -0.043192774765 [Eh]
    Ind20,r             =    -0.065120509833 [Eh]
    Exch-Ind20,r (A<-B) =     0.019952805480 [Eh]
    Exch-Ind20,r (B<-A) =     0.018195135520 [Eh]
    Exch-Ind20,r        =     0.038147941000 [Eh]
    Disp20              =    -0.069433233638 [Eh]
    Disp20 (SS)         =    -0.034716616819 [Eh]
    Disp20 (OS)         =    -0.034716616819 [Eh]
    Exch-Disp20         =     0.009050558600 [Eh]
    Exch-Disp20 (SS)    =     0.005322046508 [Eh]
    Exch-Disp20 (OS)    =     0.003728512092 [Eh]

    SAPT Results 
  --------------------------------------------------------------------------------------------------------
    Electrostatics                -47.67772107 [mEh]     -29.91822166 [kcal/mol]    -125.17783943 [kJ/mol]
      Elst10,r                    -47.67772107 [mEh]     -29.91822166 [kcal/mol]    -125.17783943 [kJ/mol]

    Exchange                      129.34031245 [mEh]      81.16227140 [kcal/mol]     339.58294355 [kJ/mol]
      Exch10                      129.34031245 [mEh]      81.16227140 [kcal/mol]     339.58294355 [kJ/mol]
      Exch10(S^2)                 125.39676165 [mEh]      78.68765592 [kcal/mol]     329.22915236 [kJ/mol]

    Induction                     -39.89080630 [mEh]     -25.03185887 [kcal/mol]    -104.73329752 [kJ/mol]
      Ind20,r                     -65.12050983 [mEh]     -40.86373686 [kcal/mol]    -170.97387501 [kJ/mol]
      Exch-Ind20,r                 38.14794100 [mEh]      23.93819438 [kcal/mol]     100.15740530 [kJ/mol]
      delta HF,r (2)              -12.91823747 [mEh]      -8.10631640 [kcal/mol]     -33.91682780 [kJ/mol]

    Dispersion                    -60.38267504 [mEh]     -37.89070064 [kcal/mol]    -158.53469147 [kJ/mol]
      Disp20                      -69.43323364 [mEh]     -43.57001190 [kcal/mol]    -182.29692980 [kJ/mol]
      Exch-Disp20                   9.05055860 [mEh]       5.67931126 [kcal/mol]      23.76223833 [kJ/mol]
      Disp20 (SS)                 -34.71661682 [mEh]     -21.78500595 [kcal/mol]     -91.14846490 [kJ/mol]
      Disp20 (OS)                 -34.71661682 [mEh]     -21.78500595 [kcal/mol]     -91.14846490 [kJ/mol]
      Exch-Disp20 (SS)              5.32204651 [mEh]       3.33963460 [kcal/mol]      13.97303118 [kJ/mol]
      Exch-Disp20 (OS)              3.72851209 [mEh]       2.33967666 [kcal/mol]       9.78920715 [kJ/mol]

  Total HF                         41.77178507 [mEh]      26.21219087 [kcal/mol]     109.67180660 [kJ/mol]
  Total SAPT0                     -18.61088997 [mEh]     -11.67850977 [kcal/mol]     -48.86288487 [kJ/mol]

  Special recipe for scaled SAPT0 (see Manual):
    Electrostatics sSAPT0         -47.67772107 [mEh]     -29.91822166 [kcal/mol]    -125.17783943 [kJ/mol]
    Exchange sSAPT0               129.34031245 [mEh]      81.16227140 [kcal/mol]     339.58294355 [kJ/mol]
    Induction sSAPT0              -36.17733693 [mEh]     -22.70162166 [kcal/mol]     -94.98358502 [kJ/mol]
    Dispersion sSAPT0             -59.50165836 [mEh]     -37.33785433 [kcal/mol]    -156.22158251 [kJ/mol]
  Total sSAPT0                    -14.01640391 [mEh]      -8.79542624 [kcal/mol]     -36.80006341 [kJ/mol]
  --------------------------------------------------------------------------------------------------------

*** tstop() called on n2cn0545 at Sat Feb 10 13:27:54 2024
Module time:
	user time   =   13058.28 seconds =     217.64 minutes
	system time =     843.77 seconds =      14.06 minutes
	total time  =       1858 seconds =      30.97 minutes
Total time:
	user time   =   24595.17 seconds =     409.92 minutes
	system time =    1240.19 seconds =      20.67 minutes
	total time  =       2764 seconds =      46.07 minutes

    Psi4 stopped on: Saturday, 10 February 2024 01:27PM
    Psi4 wall time for execution: 0:46:04.64

*** Psi4 exiting successfully. Buy a developer a beer!
