
    -----------------------------------------------------------------------
          Psi4: An Open-Source Ab Initio Electronic Structure Package
                               Psi4 1.9 release

                         Git: Rev {} zzzzzzz 


    D. G. A. Smith, L. A. Burns, A. C. Simmonett, R. M. Parrish,
    M. C. Schieber, R. Galvelis, P. Kraus, H. Kruse, R. Di Remigio,
    A. Alenaizan, A. M. James, S. Lehtola, J. P. Misiewicz, M. Scheurer,
    R. A. Shaw, J. B. Schriber, Y. Xie, Z. L. Glick, D. A. Sirianni,
    J. S. O'Brien, J. M. Waldrop, A. Kumar, E. G. Hohenstein,
    B. P. Pritchard, B. R. Brooks, H. F. Schaefer III, A. Yu. Sokolov,
    K. Patkowski, A. E. DePrince III, U. Bozkaya, R. A. King,
    F. A. Evangelista, J. M. Turney, T. D. Crawford, C. D. Sherrill,
    J. Chem. Phys. 152(18) 184108 (2020). https://doi.org/10.1063/5.0006002

                            Additional Code Authors
    E. T. Seidl, C. L. Janssen, E. F. Valeev, M. L. Leininger,
    J. F. Gonthier, R. M. Richard, H. R. McAlexander, M. Saitow, X. Wang,
    P. Verma, M. H. Lechner, A. Jiang, S. Behnle, A. G. Heide,
    M. F. Herbst, and D. L. Poole

             Previous Authors, Complete List of Code Contributors,
                       and Citations for Specific Modules
    https://github.com/psi4/psi4/blob/master/codemeta.json
    https://github.com/psi4/psi4/graphs/contributors
    http://psicode.org/psi4manual/master/introduction.html#citing-psifour

    -----------------------------------------------------------------------


    Psi4 started on: Monday, 22 January 2024 10:37AM

    Process ID: 876020
    Host:       d-16-13-4
    PSIDATADIR: /home/gridsan/tfroembgen/.conda/envs/psi4test/share/psi4
    Memory:     500.0 MiB
    Threads:    12
    
  ==> Input File <==

--------------------------------------------------------------------------
memory 32 GB # how much memory is available ! Depends on the nodes/cores !

molecule dimer {
# monomer A
-1 1    # Charge and multiplicity
B -1.977592e-04  2.742729e-04 5.200034
F  1.123153e-16  1.430594e-17 6.612819
F  1.147860e+00  6.757812e-01 4.728893
F  1.191806e-02 -1.332011e+00 4.729095
F -1.159666e+00  6.560735e-01 4.729174
--
# monomer B
0 1     # Charge and multiplicity
C   1.22531237526482      0.70753866091955      0.00613762728373
C   1.22532433589282     -0.70753852257020     -0.00619318228664
C   -0.00000567409046      1.41496628609039     -0.00672680580738
C   2.45644923379077      1.41832825917820      0.00902448468363
C   0.00001130712078     -1.41497612663474      0.00347275151708
C   -1.22530046906674      0.70754574598412      0.00838914760619
C   2.45643823516184     -1.41832293188077     -0.00843833914343
C   -0.00000085313587      2.83680140328112     -0.00913035594137
C   3.68182717731192      0.70931832800114     -0.00808954934571
C   2.45512052870677      2.83422403348893     -0.00819210630633
C   3.68182158506039     -0.70933346742900      0.00798293467272
C   -1.22531311884624     -0.70752714354401     -0.00512042085974
C   1.22670006104402      3.54346985599427      0.00816696660346
C   0.00000526469929     -2.83678176723568      0.00832091913869
C   -2.45643555300670      1.41831729028492      0.00842454345199
C   2.45512389762097     -2.83422965658853      0.00783102630520
C   -1.22671388474763      3.54346943575023      0.00827029982280
C   4.91451777504333      1.42717324448953     -0.00160886631602
C   3.69315067131765      3.54279566454522     -0.00155906667985
C   -2.45643712022637     -1.41831290883911     -0.00846337726810
C   1.22670532178455     -3.54347386990643     -0.00780316414624
C   -2.45512491866593      2.83421703463423     -0.00818572995999
C   4.91452486062398     -1.42718653794377      0.00136387641845
C   1.22142509354026      4.97013443726031      0.00150231067809
C   4.89300870916237      2.82518837202648     -0.00039219795739
C   -1.22669652864725     -3.54347062507680     -0.00753595973677
C   -3.68181849668397      0.70932533873199     -0.00807686886569
C   3.69314758099218     -3.54280096939050      0.00148176697923
C   -1.22143177215231      4.97012866986289      0.00168580605083
C   6.13477145276790      0.68054831910577     -0.00083909176631
C   3.65678936045204      4.97295361556775     -0.00065042889723
C   -2.45512642789169     -2.83421472106065      0.00758666850712
C   -3.68181869921921     -0.70932533146830      0.00810055625144
C   4.89301309775526     -2.82519973363176      0.00021895393805
C   -0.00000059327114      5.65044773803267      0.00045449734393
C   6.13477559217374     -0.68055448207492      0.00042622874941
C   2.47813196269732      5.65357712333155      0.00063835075260
C   1.22142288457925     -4.97012668293268     -0.00129718634452
C   -3.69316190412301      3.54279732619245     -0.00139355922051
C   -1.22142804110313     -4.97011793159564     -0.00140994817719
C   -4.91452132810043      1.42717581899491     -0.00153192130862
C   3.65678749952045     -4.97295485423912      0.00080007163680
C   -2.47813805026426      5.65357479452875      0.00092287576113
C   -3.69314125872231     -3.54278984697859      0.00136564082345
C   -4.91451200321153     -1.42718062802730      0.00139857359209
C   -0.00000552908399     -5.65043791501335      0.00005899322272
C   -4.89302000425900      2.82518897091939     -0.00040227981744
C   2.47812647313991     -5.65357317188818     -0.00029052915548
C   -3.65679823041642      4.97295655404175     -0.00047374852278
C   -4.89299899901461     -2.82519139505969      0.00006491824035
C   -2.47812801824129     -5.65356579800621     -0.00056571680280
C   -6.13477002348955      0.68054913825639     -0.00086464346868
C   -3.65678835334731     -4.97294365097028      0.00058578382008
C   -6.13476456307132     -0.68055354348201      0.00040575295444
H   5.83528897565761      3.36927626695423      0.00396712770529
H   7.07385965258860      1.22821762089947     -0.00037744837300
H   4.60066374401555      5.51238117445323     -0.00014522814529
H   5.83528386714679     -3.36930568472863     -0.00423551337640
H   -0.00001167146422      6.73853104613662     -0.00389474766392
H   7.07386165167227     -1.22822657074368     -0.00008250934481
H   2.47331421164041      6.74068466339473      0.00017162982210
H   4.60066897122302     -5.51237575717576      0.00039007446835
H   -2.47331820069565      6.74068209160650      0.00047297644710
H   -0.00000978838621     -6.73852780445195      0.00458867820736
H   -5.83530143450167      3.36927132229595      0.00410314985360
H   2.47330840367253     -6.74068500242887      0.00027980126949
H   -4.60067436136587      5.51237839860371      0.00002010017831
H   -5.83527902699321     -3.36928859177951     -0.00451481925734
H   -2.47329986759855     -6.74067870613986     -0.00016951527498
H   -7.07385728692578      1.22822084484047     -0.00046143985387
H   -4.60067330624313     -5.51236229778631      0.00021776644566
H   -7.07385645456741     -1.22822025997701     -0.00017736581114

    units angstrom      # Angstroms are the default
    no_reorient         # Geometry fixed, default
    symmetry c1         # C1 symmetry, default
}

set {
    scf_type DF         # Density fitting, faster than exact integrals
    freeze_core True    # Freeze core electrons
    basis jun-cc-pVDZ   # Jun-cc-pVDZ basis set, recommended for sSAPT0 in https://doi.org/10.1063/1.4867135
}

energy('ssapt0')        # Compute sSAPT0 energy, includes also SAPT0
--------------------------------------------------------------------------

  Memory set to  29.802 GiB by Python driver.

Scratch directory: /state/partition1/slurm_tmp/24790959.4294967291.0/
   => Loading Basis Set <=

    Name: JUN-CC-PVDZ
    Role: ORBITAL
    Keyword: BASIS
    atoms 1     entry B          line   130 file /home/gridsan/tfroembgen/.conda/envs/psi4test/share/psi4/basis/jun-cc-pvdz.gbs 
    atoms 2-5   entry F          line   266 file /home/gridsan/tfroembgen/.conda/envs/psi4test/share/psi4/basis/jun-cc-pvdz.gbs 
    atoms 6-59  entry C          line   164 file /home/gridsan/tfroembgen/.conda/envs/psi4test/share/psi4/basis/jun-cc-pvdz.gbs 
    atoms 60-77 entry H          line    36 file /home/gridsan/tfroembgen/.conda/envs/psi4test/share/psi4/basis/jun-cc-pvdz.gbs 

   => Loading Basis Set <=

    Name: JUN-CC-PVDZ
    Role: ORBITAL
    Keyword: BASIS
    atoms 1     entry B          line   130 file /home/gridsan/tfroembgen/.conda/envs/psi4test/share/psi4/basis/jun-cc-pvdz.gbs 
    atoms 2-5   entry F          line   266 file /home/gridsan/tfroembgen/.conda/envs/psi4test/share/psi4/basis/jun-cc-pvdz.gbs 
    atoms 6-59  entry C          line   164 file /home/gridsan/tfroembgen/.conda/envs/psi4test/share/psi4/basis/jun-cc-pvdz.gbs 
    atoms 60-77 entry H          line    36 file /home/gridsan/tfroembgen/.conda/envs/psi4test/share/psi4/basis/jun-cc-pvdz.gbs 


  //>>>>>>>>>>>>>>>>>>>>>>>>>>>>>>>>>>>//
  //              Dimer HF             //
  //<<<<<<<<<<<<<<<<<<<<<<<<<<<<<<<<<<<//

   => Libint2 <=

    Primary   basis highest AM E, G, H:  7, 7, 4
    Auxiliary basis highest AM E, G, H:  7, 7, 5
    Onebody   basis highest AM E, G, H:  7, 7, 5
    Solid Harmonics ordering:            gaussian

*** tstart() called on d-16-13-4
*** at Mon Jan 22 10:37:39 2024

   => Loading Basis Set <=

    Name: JUN-CC-PVDZ
    Role: ORBITAL
    Keyword: BASIS
    atoms 1     entry B          line   130 file /home/gridsan/tfroembgen/.conda/envs/psi4test/share/psi4/basis/jun-cc-pvdz.gbs 
    atoms 2-5   entry F          line   266 file /home/gridsan/tfroembgen/.conda/envs/psi4test/share/psi4/basis/jun-cc-pvdz.gbs 
    atoms 6-59  entry C          line   164 file /home/gridsan/tfroembgen/.conda/envs/psi4test/share/psi4/basis/jun-cc-pvdz.gbs 
    atoms 60-77 entry H          line    36 file /home/gridsan/tfroembgen/.conda/envs/psi4test/share/psi4/basis/jun-cc-pvdz.gbs 


         ---------------------------------------------------------
                                   SCF
               by Justin Turney, Rob Parrish, Andy Simmonett
                          and Daniel G. A. Smith
                              RHF Reference
                       12 Threads,  30517 MiB Core
         ---------------------------------------------------------

  ==> Geometry <==

    Molecular point group: c1
    Full point group: C1

    Geometry (in Angstrom), charge = -1, multiplicity = 1:

       Center              X                  Y                   Z               Mass       
    ------------   -----------------  -----------------  -----------------  -----------------
         B           -0.000198161052     0.000273808717     4.599333938238    11.009305360000
         F           -0.000000401852    -0.000000464183     6.012118938238    18.998403162730
         F            1.147859598148     0.675780735817     4.128192938238    18.998403162730
         F            0.011917658148    -1.332011464183     4.128394938238    18.998403162730
         F           -1.159666401852     0.656073035817     4.128473938238    18.998403162730
         C            1.225311973413     0.707538196736    -0.594562434478    12.000000000000
         C            1.225323934041    -0.707538986754    -0.606893244049    12.000000000000
         C           -0.000006075942     1.414965821907    -0.607426867569    12.000000000000
         C            2.456448831939     1.418327794995    -0.591675577078    12.000000000000
         C            0.000010905269    -1.414976590818    -0.597227310245    12.000000000000
         C           -1.225300870919     0.707545281801    -0.592310914156    12.000000000000
         C            2.456437833310    -1.418323396064    -0.609138400905    12.000000000000
         C           -0.000001254988     2.836800939098    -0.609830417703    12.000000000000
         C            3.681826775460     0.709317863818    -0.608789611108    12.000000000000
         C            2.455120126855     2.834223569306    -0.608892168068    12.000000000000
         C            3.681821183209    -0.709333931612    -0.592717127089    12.000000000000
         C           -1.225313520698    -0.707527607727    -0.605820482622    12.000000000000
         C            1.226699659192     3.543469391811    -0.592533095158    12.000000000000
         C            0.000004862847    -2.836782231419    -0.592379142623    12.000000000000
         C           -2.456435954859     1.418316826102    -0.592275518310    12.000000000000
         C            2.455123495769    -2.834230120772    -0.592869035457    12.000000000000
         C           -1.226714286599     3.543468971567    -0.592429761939    12.000000000000
         C            4.914517373191     1.427172780306    -0.602308928078    12.000000000000
         C            3.693150269466     3.542795200362    -0.602259128442    12.000000000000
         C           -2.456437522078    -1.418313373022    -0.609163439030    12.000000000000
         C            1.226704919933    -3.543474334090    -0.608503225908    12.000000000000
         C           -2.455125320518     2.834216570451    -0.608885791722    12.000000000000
         C            4.914524458772    -1.427187002127    -0.599336185343    12.000000000000
         C            1.221424691688     4.970133973077    -0.599197751084    12.000000000000
         C            4.893008307311     2.825187907843    -0.601092259719    12.000000000000
         C           -1.226696930499    -3.543471089260    -0.608236021499    12.000000000000
         C           -3.681818898536     0.709324874549    -0.608776930628    12.000000000000
         C            3.693147179140    -3.542801433574    -0.599218294783    12.000000000000
         C           -1.221432174004     4.970128205680    -0.599014255711    12.000000000000
         C            6.134771050916     0.680547854922    -0.601539153528    12.000000000000
         C            3.656788958600     4.972953151384    -0.601350490659    12.000000000000
         C           -2.455126829744    -2.834215185244    -0.593113393255    12.000000000000
         C           -3.681819101071    -0.709325795652    -0.592599505510    12.000000000000
         C            4.893012695903    -2.825200197815    -0.600481107824    12.000000000000
         C           -0.000000995123     5.650447273849    -0.600245564418    12.000000000000
         C            6.134775190322    -0.680554946258    -0.600273833013    12.000000000000
         C            2.478131560845     5.653576659148    -0.600061711009    12.000000000000
         C            1.221422482727    -4.970127147116    -0.601997248106    12.000000000000
         C           -3.693162305975     3.542796862009    -0.602093620982    12.000000000000
         C           -1.221428442955    -4.970118395779    -0.602110009939    12.000000000000
         C           -4.914521729952     1.427175354812    -0.602231983071    12.000000000000
         C            3.656787097669    -4.972955318422    -0.599899990125    12.000000000000
         C           -2.478138452116     5.653574330345    -0.599777186001    12.000000000000
         C           -3.693141660574    -3.542790311162    -0.599334420938    12.000000000000
         C           -4.914512405063    -1.427181092211    -0.599301488170    12.000000000000
         C           -0.000005930936    -5.650438379197    -0.600641068539    12.000000000000
         C           -4.893020406111     2.825188506736    -0.601102341579    12.000000000000
         C            2.478126071288    -5.653573636072    -0.600990590917    12.000000000000
         C           -3.656798632268     4.972956089858    -0.601173810285    12.000000000000
         C           -4.892999400866    -2.825191859243    -0.600635143522    12.000000000000
         C           -2.478128420093    -5.653566262190    -0.601265778565    12.000000000000
         C           -6.134770425341     0.680548674073    -0.601564705231    12.000000000000
         C           -3.656788755199    -4.972944115154    -0.600114277942    12.000000000000
         C           -6.134764964923    -0.680554007665    -0.600294308807    12.000000000000
         H            5.835288573806     3.369275802771    -0.596732934057     1.007825032230
         H            7.073859250737     1.228217156716    -0.601077510135     1.007825032230
         H            4.600663342164     5.512380710270    -0.600845289907     1.007825032230
         H            5.835283465295    -3.369306148912    -0.604935575138     1.007825032230
         H           -0.000012073316     6.738530581953    -0.604594809426     1.007825032230
         H            7.073861249820    -1.228227034927    -0.600782571107     1.007825032230
         H            2.473313809789     6.740684199211    -0.600528431940     1.007825032230
         H            4.600668569371    -5.512376221359    -0.600309987294     1.007825032230
         H           -2.473318602548     6.740681627423    -0.600227085315     1.007825032230
         H           -0.000010190238    -6.738528268635    -0.596111383555     1.007825032230
         H           -5.835301836354     3.369270858113    -0.596596911908     1.007825032230
         H            2.473308001821    -6.740685466612    -0.600420260492     1.007825032230
         H           -4.600674763218     5.512377934420    -0.600679961584     1.007825032230
         H           -5.835279428845    -3.369289055963    -0.605214881019     1.007825032230
         H           -2.473300269450    -6.740679170323    -0.600869577037     1.007825032230
         H           -7.073857688778     1.228220380657    -0.601161501616     1.007825032230
         H           -4.600673708095    -5.512362761970    -0.600482295316     1.007825032230
         H           -7.073856856419    -1.228220724160    -0.600877427573     1.007825032230

  Running in c1 symmetry.

  Rotational constants: A =      0.00172  B =      0.00172  C =      0.00110 [cm^-1]
  Rotational constants: A =     51.65981  B =     51.65364  C =     33.02251 [MHz]
  Nuclear repulsion = 7704.849691235286627

  Charge       = -1
  Multiplicity = 1
  Electrons    = 384
  Nalpha       = 192
  Nbeta        = 192

  ==> Algorithm <==

  SCF Algorithm Type is DF.
  DIIS enabled.
  MOM disabled.
  Fractional occupation disabled.
  Guess Type is SAD.
  Energy threshold   = 1.00e-08
  Density threshold  = 1.00e-08
  Integral threshold = 1.00e-12

  ==> Primary Basis <==

  Basis Set: JUN-CC-PVDZ
    Blend: JUN-CC-PVDZ
    Number of shells: 526
    Number of basis functions: 1152
    Number of Cartesian functions: 1211
    Spherical Harmonics?: true
    Max angular momentum: 2

   => Loading Basis Set <=

    Name: (JUN-CC-PVDZ AUX)
    Role: JKFIT
    Keyword: DF_BASIS_SCF
    atoms 1     entry B          line    90 file /home/gridsan/tfroembgen/.conda/envs/psi4test/share/psi4/basis/jun-cc-pvdz-jkfit.gbs 
    atoms 2-5   entry F          line   314 file /home/gridsan/tfroembgen/.conda/envs/psi4test/share/psi4/basis/jun-cc-pvdz-jkfit.gbs 
    atoms 6-59  entry C          line   146 file /home/gridsan/tfroembgen/.conda/envs/psi4test/share/psi4/basis/jun-cc-pvdz-jkfit.gbs 
    atoms 60-77 entry H          line    70 file /home/gridsan/tfroembgen/.conda/envs/psi4test/share/psi4/basis/jun-cc-pvdz-jkfit.gbs 

  ==> Integral Setup <==

  ==> DiskDFJK: Density-Fitted J/K Matrices <==

    J tasked:                  Yes
    K tasked:                  Yes
    wK tasked:                  No
    OpenMP threads:             12
    Integrals threads:          12
    Memory [MiB]:            22888
    Algorithm:                Core
    Integral Cache:           SAVE
    Schwarz Cutoff:          1E-12
    Fitting Condition:       1E-10

   => Auxiliary Basis Set <=

  Basis Set: (JUN-CC-PVDZ AUX)
    Blend: JUN-CC-PVDZ-JKFIT
    Number of shells: 1755
    Number of basis functions: 5075
    Number of Cartesian functions: 5819
    Spherical Harmonics?: true
    Max angular momentum: 3

  Minimum eigenvalue in the overlap matrix is 8.3128351601E-10.
  Reciprocal condition number of the overlap matrix is 3.6766978460E-11.
    Using canonical orthogonalization.
  Overall, 14 of 1152 possible MOs eliminated.


  ==> Pre-Iterations <==

  SCF Guess: Superposition of Atomic Densities via on-the-fly atomic UHF (no occupation information).

   -------------------------
    Irrep   Nso     Nmo    
   -------------------------
     A       1152    1138 
   -------------------------
    Total    1152    1138
   -------------------------

  ==> Iterations <==

                           Total Energy        Delta E     RMS |[F,P]|

   @DF-RHF iter SAD: -2483.27016981899033   -2.48327e+03   0.00000e+00 
   @DF-RHF iter   1: -2477.61290177090632    5.65727e+00   1.10325e-03 ADIIS/DIIS
   @DF-RHF iter   2: -2478.50613319485001   -8.93231e-01   4.81776e-04 ADIIS/DIIS
   @DF-RHF iter   3: -2478.64244073271766   -1.36308e-01   1.34628e-04 ADIIS/DIIS
   @DF-RHF iter   4: -2478.65595387491067   -1.35131e-02   5.73770e-05 DIIS
   @DF-RHF iter   5: -2478.65868822186030   -2.73435e-03   1.66667e-05 DIIS
   @DF-RHF iter   6: -2478.65898804518520   -2.99823e-04   5.40631e-06 DIIS
   @DF-RHF iter   7: -2478.65906982061006   -8.17754e-05   2.66326e-06 DIIS
   @DF-RHF iter   8: -2478.65909249278957   -2.26722e-05   1.21419e-06 DIIS
   @DF-RHF iter   9: -2478.65909919741125   -6.70462e-06   2.54502e-07 DIIS
   @DF-RHF iter  10: -2478.65909942378312   -2.26372e-07   8.97853e-08 DIIS
   @DF-RHF iter  11: -2478.65909944068062   -1.68975e-08   3.46786e-08 DIIS
   @DF-RHF iter  12: -2478.65909944426267   -3.58204e-09   1.18186e-08 DIIS
   @DF-RHF iter  13: -2478.65909944458554   -3.22871e-10   4.20137e-09 DIIS
  Energy and wave function converged.


  ==> Post-Iterations <==

    Orbital Energies [Eh]
    ---------------------

    Doubly Occupied:                                                      

       1A    -26.067651     2A    -26.067556     3A    -26.067470  
       4A    -26.067020     5A    -11.189853     6A    -11.189842  
       7A    -11.189840     8A    -11.189815     9A    -11.189812  
      10A    -11.189808    11A    -11.189763    12A    -11.189751  
      13A    -11.189748    14A    -11.189724    15A    -11.189722  
      16A    -11.189720    17A    -11.187542    18A    -11.187477  
      19A    -11.187475    20A    -11.187320    21A    -11.187318  
      22A    -11.187194    23A    -11.186783    24A    -11.186618  
      25A    -11.186616    26A    -11.186461    27A    -11.186459  
      28A    -11.186453    29A    -11.186409    30A    -11.186401  
      31A    -11.186399    32A    -11.186295    33A    -11.186293  
      34A    -11.186290    35A    -11.185741    36A    -11.185669  
      37A    -11.185668    38A    -11.185575    39A    -11.185438  
      40A    -11.185438    41A    -11.185364    42A    -11.185204  
      43A    -11.185202    44A    -11.185015    45A    -11.185012  
      46A    -11.185011    47A    -11.185010    48A    -11.185008  
      49A    -11.185007    50A    -11.184257    51A    -11.184253  
      52A    -11.183744    53A    -11.183275    54A    -11.183272  
      55A    -11.183270    56A    -11.183165    57A    -11.183165  
      58A    -11.183164    59A     -7.539514    60A     -1.411336  
      61A     -1.351762    62A     -1.351601    63A     -1.351315  
      64A     -1.171609    65A     -1.149121    66A     -1.149121  
      67A     -1.119896    68A     -1.119889    69A     -1.109657  
      70A     -1.089003    71A     -1.079579    72A     -1.064837  
      73A     -1.064830    74A     -1.044769    75A     -1.044764  
      76A     -1.012353    77A     -1.012345    78A     -1.008400  
      79A     -0.997839    80A     -0.997834    81A     -0.970466  
      82A     -0.953386    83A     -0.950791    84A     -0.950749  
      85A     -0.949450    86A     -0.944918    87A     -0.917268  
      88A     -0.917224    89A     -0.893311    90A     -0.893262  
      91A     -0.825939    92A     -0.825910    93A     -0.817195  
      94A     -0.815240    95A     -0.815183    96A     -0.811611  
      97A     -0.811563    98A     -0.793496    99A     -0.770445  
     100A     -0.749548   101A     -0.746454   102A     -0.742572  
     103A     -0.742563   104A     -0.726853   105A     -0.726842  
     106A     -0.676549   107A     -0.675207   108A     -0.664233  
     109A     -0.664209   110A     -0.663697   111A     -0.663689  
     112A     -0.647395   113A     -0.630601   114A     -0.630590  
     115A     -0.624710   116A     -0.624694   117A     -0.602567  
     118A     -0.593485   119A     -0.583968   120A     -0.582747  
     121A     -0.582741   122A     -0.581280   123A     -0.571225  
     124A     -0.571222   125A     -0.560503   126A     -0.558425  
     127A     -0.558411   128A     -0.540228   129A     -0.532735  
     130A     -0.532071   131A     -0.531666   132A     -0.531634  
     133A     -0.528818   134A     -0.528741   135A     -0.528708  
     136A     -0.524379   137A     -0.520964   138A     -0.520953  
     139A     -0.518682   140A     -0.505041   141A     -0.505034  
     142A     -0.499898   143A     -0.499882   144A     -0.496679  
     145A     -0.496665   146A     -0.489300   147A     -0.487223  
     148A     -0.487214   149A     -0.470927   150A     -0.470924  
     151A     -0.468308   152A     -0.468303   153A     -0.461169  
     154A     -0.455942   155A     -0.454332   156A     -0.454325  
     157A     -0.447678   158A     -0.447636   159A     -0.433036  
     160A     -0.427179   161A     -0.425325   162A     -0.418438  
     163A     -0.415710   164A     -0.413001   165A     -0.412993  
     166A     -0.408846   167A     -0.408810   168A     -0.408727  
     169A     -0.398966   170A     -0.398943   171A     -0.385404  
     172A     -0.385300   173A     -0.385235   174A     -0.380671  
     175A     -0.380592   176A     -0.370922   177A     -0.370913  
     178A     -0.334117   179A     -0.334093   180A     -0.332418  
     181A     -0.307723   182A     -0.307721   183A     -0.279844  
     184A     -0.264942   185A     -0.263797   186A     -0.263730  
     187A     -0.242598   188A     -0.231100   189A     -0.213358  
     190A     -0.213308   191A     -0.155700   192A     -0.155632  

    Virtual:                                                              

     193A      0.082861   194A      0.082921   195A      0.103435  
     196A      0.103441   197A      0.105316   198A      0.105868  
     199A      0.105870   200A      0.112561   201A      0.116816  
     202A      0.127790   203A      0.127792   204A      0.134730  
     205A      0.134782   206A      0.142096   207A      0.142557  
     208A      0.142564   209A      0.148824   210A      0.148834  
     211A      0.149855   212A      0.149891   213A      0.149933  
     214A      0.154320   215A      0.156615   216A      0.156640  
     217A      0.156645   218A      0.162302   219A      0.164556  
     220A      0.170792   221A      0.170800   222A      0.173134  
     223A      0.175731   224A      0.181417   225A      0.181420  
     226A      0.184389   227A      0.185101   228A      0.186329  
     229A      0.186342   230A      0.187955   231A      0.187965  
     232A      0.189431   233A      0.189903   234A      0.193896  
     235A      0.194363   236A      0.194372   237A      0.201563  
     238A      0.209389   239A      0.209405   240A      0.210276  
     241A      0.210306   242A      0.213877   243A      0.214204  
     244A      0.214211   245A      0.218595   246A      0.218603  
     247A      0.230413   248A      0.232635   249A      0.232677  
     250A      0.239393   251A      0.243615   252A      0.244632  
     253A      0.244643   254A      0.245674   255A      0.245734  
     256A      0.247932   257A      0.247982   258A      0.249826  
     259A      0.255288   260A      0.255294   261A      0.257202  
     262A      0.261213   263A      0.261225   264A      0.263046  
     265A      0.263047   266A      0.264682   267A      0.269359  
     268A      0.269367   269A      0.271764   270A      0.271915  
     271A      0.271939   272A      0.273613   273A      0.273824  
     274A      0.275262   275A      0.278645   276A      0.285287  
     277A      0.286157   278A      0.286169   279A      0.286514  
     280A      0.288730   281A      0.288765   282A      0.291375  
     283A      0.291399   284A      0.292741   285A      0.294584  
     286A      0.296604   287A      0.297528   288A      0.297551  
     289A      0.304105   290A      0.304109   291A      0.304640  
     292A      0.307137   293A      0.316941   294A      0.316957  
     295A      0.317430   296A      0.317454   297A      0.319689  
     298A      0.319700   299A      0.321175   300A      0.321203  
     301A      0.326191   302A      0.326198   303A      0.334242  
     304A      0.334250   305A      0.336250   306A      0.336255  
     307A      0.341032   308A      0.345550   309A      0.345610  
     310A      0.347732   311A      0.347811   312A      0.351786  
     313A      0.356070   314A      0.356077   315A      0.356712  
     316A      0.356715   317A      0.361216   318A      0.361701  
     319A      0.365116   320A      0.365139   321A      0.366683  
     322A      0.371362   323A      0.371414   324A      0.371930  
     325A      0.373162   326A      0.373914   327A      0.373919  
     328A      0.378718   329A      0.380040   330A      0.380075  
     331A      0.380084   332A      0.383704   333A      0.383898  
     334A      0.383918   335A      0.384430   336A      0.389994  
     337A      0.390807   338A      0.395955   339A      0.396086  
     340A      0.397723   341A      0.399004   342A      0.402081  
     343A      0.404220   344A      0.404235   345A      0.407284  
     346A      0.407303   347A      0.408269   348A      0.413146  
     349A      0.415842   350A      0.415849   351A      0.416286  
     352A      0.421260   353A      0.421299   354A      0.427395  
     355A      0.430902   356A      0.430960   357A      0.432179  
     358A      0.436396   359A      0.436461   360A      0.440848  
     361A      0.442127   362A      0.442134   363A      0.445600  
     364A      0.445641   365A      0.447219   366A      0.451069  
     367A      0.451180   368A      0.454737   369A      0.454746  
     370A      0.456042   371A      0.457168   372A      0.457916  
     373A      0.457969   374A      0.459217   375A      0.463757  
     376A      0.463769   377A      0.464322   378A      0.464361  
     379A      0.469975   380A      0.470003   381A      0.471555  
     382A      0.471608   383A      0.477710   384A      0.477931  
     385A      0.479127   386A      0.481733   387A      0.482443  
     388A      0.482505   389A      0.482679   390A      0.483165  
     391A      0.483256   392A      0.484944   393A      0.484973  
     394A      0.491310   395A      0.491461   396A      0.492355  
     397A      0.492373   398A      0.492863   399A      0.494271  
     400A      0.494383   401A      0.503206   402A      0.505109  
     403A      0.505166   404A      0.505288   405A      0.505965  
     406A      0.507956   407A      0.513512   408A      0.513548  
     409A      0.515671   410A      0.518169   411A      0.518201  
     412A      0.518790   413A      0.518821   414A      0.526228  
     415A      0.526318   416A      0.528667   417A      0.530801  
     418A      0.533082   419A      0.533171   420A      0.537544  
     421A      0.537602   422A      0.538383   423A      0.540594  
     424A      0.543667   425A      0.543721   426A      0.548195  
     427A      0.549453   428A      0.549504   429A      0.555963  
     430A      0.556000   431A      0.557197   432A      0.557282  
     433A      0.557941   434A      0.562921   435A      0.562935  
     436A      0.563705   437A      0.566133   438A      0.566273  
     439A      0.566319   440A      0.568637   441A      0.572841  
     442A      0.573587   443A      0.573637   444A      0.582589  
     445A      0.582704   446A      0.588787   447A      0.589072  
     448A      0.589795   449A      0.590216   450A      0.597811  
     451A      0.597870   452A      0.602998   453A      0.603163  
     454A      0.605207   455A      0.607818   456A      0.608410  
     457A      0.613164   458A      0.613211   459A      0.614008  
     460A      0.618157   461A      0.618196   462A      0.620057  
     463A      0.620733   464A      0.623697   465A      0.624016  
     466A      0.628026   467A      0.631060   468A      0.632775  
     469A      0.632944   470A      0.634550   471A      0.634672  
     472A      0.634982   473A      0.644156   474A      0.645532  
     475A      0.645882   476A      0.657290   477A      0.664278  
     478A      0.668469   479A      0.668545   480A      0.669729  
     481A      0.669869   482A      0.686609   483A      0.688278  
     484A      0.688367   485A      0.695537   486A      0.695597  
     487A      0.696841   488A      0.696997   489A      0.710464  
     490A      0.710503   491A      0.717184   492A      0.723426  
     493A      0.723455   494A      0.726218   495A      0.732523  
     496A      0.737960   497A      0.740171   498A      0.740236  
     499A      0.746125   500A      0.746140   501A      0.752191  
     502A      0.772978   503A      0.784850   504A      0.784858  
     505A      0.791741   506A      0.792006   507A      0.804831  
     508A      0.808337   509A      0.813514   510A      0.813533  
     511A      0.813851   512A      0.813980   513A      0.825077  
     514A      0.825080   515A      0.826974   516A      0.841796  
     517A      0.843731   518A      0.859289   519A      0.866893  
     520A      0.866958   521A      0.873815   522A      0.877585  
     523A      0.881948   524A      0.883860   525A      0.883977  
     526A      0.892959   527A      0.893141   528A      0.894005  
     529A      0.895575   530A      0.895599   531A      0.896722  
     532A      0.905845   533A      0.923668   534A      0.923679  
     535A      0.927068   536A      0.928609   537A      0.928638  
     538A      0.929506   539A      0.937560   540A      0.937624  
     541A      0.938627   542A      0.942923   543A      0.943015  
     544A      0.945814   545A      0.945989   546A      0.955963  
     547A      0.955976   548A      0.964445   549A      0.964582  
     550A      0.966390   551A      0.966591   552A      0.967105  
     553A      0.974236   554A      0.976293   555A      0.976662  
     556A      0.977506   557A      0.979790   558A      0.986891  
     559A      0.987011   560A      0.992142   561A      0.993188  
     562A      0.996128   563A      0.996149   564A      0.996627  
     565A      0.998309   566A      1.002758   567A      1.002941  
     568A      1.004475   569A      1.004793   570A      1.005230  
     571A      1.009845   572A      1.009892   573A      1.017056  
     574A      1.017180   575A      1.031716   576A      1.031817  
     577A      1.035357   578A      1.036045   579A      1.040302  
     580A      1.040848   581A      1.041768   582A      1.041858  
     583A      1.043169   584A      1.046973   585A      1.048452  
     586A      1.053969   587A      1.054110   588A      1.059305  
     589A      1.063763   590A      1.063865   591A      1.071017  
     592A      1.075136   593A      1.078259   594A      1.081338  
     595A      1.081375   596A      1.082523   597A      1.082611  
     598A      1.085372   599A      1.085435   600A      1.098377  
     601A      1.102004   602A      1.102041   603A      1.105445  
     604A      1.108765   605A      1.108804   606A      1.112570  
     607A      1.112636   608A      1.113530   609A      1.113638  
     610A      1.114278   611A      1.117606   612A      1.117941  
     613A      1.118367   614A      1.118979   615A      1.123456  
     616A      1.123556   617A      1.127699   618A      1.133355  
     619A      1.137456   620A      1.137690   621A      1.140094  
     622A      1.140893   623A      1.140909   624A      1.153240  
     625A      1.154743   626A      1.154871   627A      1.156226  
     628A      1.159243   629A      1.159406   630A      1.163927  
     631A      1.163978   632A      1.171055   633A      1.171077  
     634A      1.171478   635A      1.177095   636A      1.177113  
     637A      1.179550   638A      1.179685   639A      1.180913  
     640A      1.184351   641A      1.184388   642A      1.195414  
     643A      1.196871   644A      1.197298   645A      1.197440  
     646A      1.207980   647A      1.208094   648A      1.209820  
     649A      1.211912   650A      1.213373   651A      1.213404  
     652A      1.216594   653A      1.216655   654A      1.219666  
     655A      1.223472   656A      1.223670   657A      1.232163  
     658A      1.245248   659A      1.250260   660A      1.252874  
     661A      1.253149   662A      1.257186   663A      1.259875  
     664A      1.259925   665A      1.267252   666A      1.267314  
     667A      1.270549   668A      1.270670   669A      1.281827  
     670A      1.287121   671A      1.287178   672A      1.290071  
     673A      1.291905   674A      1.291942   675A      1.304789  
     676A      1.304841   677A      1.306375   678A      1.325821  
     679A      1.325926   680A      1.330422   681A      1.330542  
     682A      1.331911   683A      1.332059   684A      1.334581  
     685A      1.334662   686A      1.343006   687A      1.344339  
     688A      1.351662   689A      1.351750   690A      1.360334  
     691A      1.362019   692A      1.365417   693A      1.365667  
     694A      1.366543   695A      1.375820   696A      1.375850  
     697A      1.376829   698A      1.379846   699A      1.379949  
     700A      1.381573   701A      1.387475   702A      1.387507  
     703A      1.395026   704A      1.395076   705A      1.399162  
     706A      1.399624   707A      1.399716   708A      1.409365  
     709A      1.411372   710A      1.417566   711A      1.417643  
     712A      1.424083   713A      1.425493   714A      1.425516  
     715A      1.428940   716A      1.428984   717A      1.433188  
     718A      1.433298   719A      1.445219   720A      1.445326  
     721A      1.446392   722A      1.457294   723A      1.460847  
     724A      1.473057   725A      1.473086   726A      1.479541  
     727A      1.479593   728A      1.480628   729A      1.480691  
     730A      1.489123   731A      1.490706   732A      1.494932  
     733A      1.497884   734A      1.497918   735A      1.500622  
     736A      1.504287   737A      1.504321   738A      1.508625  
     739A      1.508696   740A      1.509020   741A      1.509140  
     742A      1.517862   743A      1.517911   744A      1.519392  
     745A      1.524829   746A      1.537224   747A      1.537263  
     748A      1.547372   749A      1.547485   750A      1.585799  
     751A      1.585824   752A      1.591721   753A      1.591748  
     754A      1.600553   755A      1.622601   756A      1.652163  
     757A      1.655209   758A      1.655248   759A      1.660887  
     760A      1.670653   761A      1.671181   762A      1.676402  
     763A      1.681704   764A      1.681950   765A      1.681979  
     766A      1.687170   767A      1.687430   768A      1.695187  
     769A      1.695272   770A      1.695813   771A      1.706224  
     772A      1.706479   773A      1.712549   774A      1.712599  
     775A      1.714281   776A      1.716133   777A      1.716163  
     778A      1.716240   779A      1.724823   780A      1.730509  
     781A      1.730535   782A      1.736798   783A      1.745097  
     784A      1.745167   785A      1.747576   786A      1.748529  
     787A      1.748668   788A      1.752255   789A      1.757083  
     790A      1.757126   791A      1.764900   792A      1.767058  
     793A      1.767441   794A      1.767483   795A      1.772758  
     796A      1.776683   797A      1.776759   798A      1.784346  
     799A      1.784370   800A      1.811218   801A      1.822044  
     802A      1.827089   803A      1.827599   804A      1.827618  
     805A      1.830891   806A      1.845847   807A      1.845863  
     808A      1.860676   809A      1.860690   810A      1.884714  
     811A      1.884814   812A      1.884864   813A      1.895496  
     814A      1.895591   815A      1.897152   816A      1.900130  
     817A      1.900170   818A      1.907773   819A      1.912793  
     820A      1.915757   821A      1.928052   822A      1.928119  
     823A      1.929627   824A      1.929672   825A      1.932671  
     826A      1.937895   827A      1.942240   828A      1.950424  
     829A      1.950458   830A      1.965778   831A      1.965892  
     832A      1.966606   833A      1.969730   834A      1.969861  
     835A      1.978384   836A      1.978487   837A      1.980469  
     838A      1.980597   839A      1.985534   840A      1.985848  
     841A      1.987424   842A      1.987554   843A      1.988877  
     844A      1.992492   845A      1.992572   846A      2.005810  
     847A      2.010312   848A      2.010432   849A      2.011325  
     850A      2.011637   851A      2.011682   852A      2.019586  
     853A      2.019684   854A      2.025436   855A      2.025451  
     856A      2.027284   857A      2.028856   858A      2.028932  
     859A      2.039816   860A      2.054679   861A      2.054708  
     862A      2.055317   863A      2.060829   864A      2.064525  
     865A      2.064727   866A      2.066271   867A      2.069161  
     868A      2.069169   869A      2.072657   870A      2.076257  
     871A      2.081468   872A      2.081645   873A      2.093953  
     874A      2.098409   875A      2.099278   876A      2.099916  
     877A      2.100278   878A      2.101474   879A      2.101774  
     880A      2.119361   881A      2.121716   882A      2.121927  
     883A      2.128521   884A      2.128874   885A      2.129799  
     886A      2.132415   887A      2.132727   888A      2.133816  
     889A      2.140870   890A      2.144430   891A      2.144732  
     892A      2.147542   893A      2.152063   894A      2.152086  
     895A      2.160384   896A      2.160499   897A      2.161117  
     898A      2.162263   899A      2.163589   900A      2.164833  
     901A      2.167665   902A      2.169903   903A      2.169977  
     904A      2.177684   905A      2.177714   906A      2.179118  
     907A      2.181912   908A      2.182178   909A      2.183484  
     910A      2.187224   911A      2.187303   912A      2.190990  
     913A      2.191247   914A      2.191337   915A      2.196272  
     916A      2.196389   917A      2.203201   918A      2.203447  
     919A      2.204392   920A      2.204440   921A      2.210421  
     922A      2.210456   923A      2.214930   924A      2.215006  
     925A      2.223302   926A      2.228256   927A      2.232827  
     928A      2.232885   929A      2.234268   930A      2.234561  
     931A      2.244479   932A      2.249285   933A      2.249368  
     934A      2.257893   935A      2.258206   936A      2.260777  
     937A      2.262718   938A      2.268182   939A      2.268268  
     940A      2.276499   941A      2.288770   942A      2.291637  
     943A      2.291686   944A      2.295692   945A      2.301938  
     946A      2.302586   947A      2.303046   948A      2.309253  
     949A      2.309549   950A      2.311797   951A      2.312147  
     952A      2.314285   953A      2.327127   954A      2.327237  
     955A      2.338848   956A      2.338863   957A      2.339920  
     958A      2.339966   959A      2.347035   960A      2.368112  
     961A      2.374765   962A      2.381749   963A      2.383428  
     964A      2.393064   965A      2.395794   966A      2.402416  
     967A      2.403147   968A      2.403246   969A      2.406100  
     970A      2.421285   971A      2.421743   972A      2.422326  
     973A      2.422675   974A      2.436946   975A      2.437046  
     976A      2.447275   977A      2.450262   978A      2.483696  
     979A      2.493315   980A      2.493567   981A      2.493599  
     982A      2.504342   983A      2.511563   984A      2.511610  
     985A      2.539797   986A      2.541890   987A      2.542021  
     988A      2.554484   989A      2.554491   990A      2.571491  
     991A      2.587980   992A      2.598947   993A      2.600377  
     994A      2.613059   995A      2.614247   996A      2.614284  
     997A      2.621179   998A      2.621244   999A      2.626149  
    1000A      2.628851  1001A      2.628856  1002A      2.641322  
    1003A      2.641868  1004A      2.642373  1005A      2.642405  
    1006A      2.653981  1007A      2.654137  1008A      2.657342  
    1009A      2.657679  1010A      2.659150  1011A      2.675379  
    1012A      2.691769  1013A      2.691822  1014A      2.697645  
    1015A      2.701594  1016A      2.702103  1017A      2.708816  
    1018A      2.708879  1019A      2.718277  1020A      2.718612  
    1021A      2.724779  1022A      2.752302  1023A      2.752846  
    1024A      2.753988  1025A      2.754085  1026A      2.773944  
    1027A      2.774280  1028A      2.783319  1029A      2.783329  
    1030A      2.788624  1031A      2.788643  1032A      2.792685  
    1033A      2.792910  1034A      2.809957  1035A      2.820745  
    1036A      2.821139  1037A      2.848575  1038A      2.865443  
    1039A      2.865597  1040A      2.886829  1041A      2.897920  
    1042A      2.898663  1043A      2.923063  1044A      2.923216  
    1045A      2.928096  1046A      2.929951  1047A      2.929967  
    1048A      2.930402  1049A      2.938872  1050A      2.985420  
    1051A      2.985446  1052A      2.992633  1053A      2.999754  
    1054A      2.999814  1055A      3.012565  1056A      3.016338  
    1057A      3.016482  1058A      3.027291  1059A      3.027574  
    1060A      3.031389  1061A      3.078266  1062A      3.080806  
    1063A      3.080974  1064A      3.097298  1065A      3.135387  
    1066A      3.135444  1067A      3.140730  1068A      3.140838  
    1069A      3.179566  1070A      3.180331  1071A      3.195974  
    1072A      3.198353  1073A      3.198597  1074A      3.205580  
    1075A      3.215234  1076A      3.215276  1077A      3.215705  
    1078A      3.217458  1079A      3.217481  1080A      3.226803  
    1081A      3.227144  1082A      3.234545  1083A      3.234926  
    1084A      3.258928  1085A      3.278067  1086A      3.289284  
    1087A      3.295511  1088A      3.307034  1089A      3.346241  
    1090A      3.346356  1091A      3.346516  1092A      3.352494  
    1093A      3.352715  1094A      3.487374  1095A      3.487825  
    1096A      3.520393  1097A      3.553405  1098A      3.555965  
    1099A      3.622212  1100A      3.650341  1101A      3.652333  
    1102A      3.665815  1103A      3.696676  1104A      3.698596  
    1105A      3.732568  1106A      3.740043  1107A      3.839403  
    1108A      3.854484  1109A      3.855495  1110A      3.939267  
    1111A      3.939271  1112A      3.982416  1113A      3.982530  
    1114A      4.047834  1115A      4.081942  1116A      4.111746  
    1117A      4.123344  1118A      4.159395  1119A      4.172529  
    1120A      4.174154  1121A      4.174213  1122A      4.201847  
    1123A      4.201917  1124A      4.201958  1125A      4.203682  
    1126A      4.203701  1127A      4.238296  1128A      4.241815  
    1129A      4.241850  1130A      4.448324  1131A      4.448701  
    1132A      4.450516  1133A      4.653215  1134A      4.653289  
    1135A      4.659503  1136A      4.750983  1137A      4.786490  
    1138A      4.786799  

    Final Occupation by Irrep:
              A 
    DOCC [   192 ]
    NA   [   192 ]
    NB   [   192 ]

  @DF-RHF Final Energy: -2478.65909944458554

   => Energetics <=

    Nuclear Repulsion Energy =           7704.8496912352866275
    One-Electron Energy =              -18764.8361143596230249
    Two-Electron Energy =                8581.3273236797522259
    Total Energy =                      -2478.6590994445850811

Computation Completed


Properties will be evaluated at   0.000000,   0.000000,   0.000000 [a0]

Properties computed using the SCF density matrix


 Multipole Moments:

 ------------------------------------------------------------------------------------
     Multipole            Electronic (a.u.)      Nuclear  (a.u.)        Total (a.u.)
 ------------------------------------------------------------------------------------

 L = 1.  Multiply by 2.5417464519 to convert [e a0] to [Debye]
 Dipole X            :         -0.0005390            0.0000481           -0.0004909
 Dipole Y            :          0.0010178           -0.0001453            0.0008726
 Dipole Z            :         24.2246296          -31.8775788           -7.6529492
 Magnitude           :                                                    7.6529493

 ------------------------------------------------------------------------------------

*** tstop() called on d-16-13-4 at Mon Jan 22 10:43:30 2024
Module time:
	user time   =    3432.39 seconds =      57.21 minutes
	system time =      57.53 seconds =       0.96 minutes
	total time  =        351 seconds =       5.85 minutes
Total time:
	user time   =    3432.39 seconds =      57.21 minutes
	system time =      57.53 seconds =       0.96 minutes
	total time  =        351 seconds =       5.85 minutes

  //>>>>>>>>>>>>>>>>>>>>>>>>>>>>>>>>>>>//
  //            Monomer A HF           //
  //<<<<<<<<<<<<<<<<<<<<<<<<<<<<<<<<<<<//

   => Libint2 <=

    Primary   basis highest AM E, G, H:  7, 7, 4
    Auxiliary basis highest AM E, G, H:  7, 7, 5
    Onebody   basis highest AM E, G, H:  7, 7, 5
    Solid Harmonics ordering:            gaussian

*** tstart() called on d-16-13-4
*** at Mon Jan 22 10:43:30 2024

   => Loading Basis Set <=

    Name: JUN-CC-PVDZ
    Role: ORBITAL
    Keyword: BASIS
    atoms 1     entry B          line   130 file /home/gridsan/tfroembgen/.conda/envs/psi4test/share/psi4/basis/jun-cc-pvdz.gbs 
    atoms 2-5   entry F          line   266 file /home/gridsan/tfroembgen/.conda/envs/psi4test/share/psi4/basis/jun-cc-pvdz.gbs 
    atoms 6-59  entry C          line   164 file /home/gridsan/tfroembgen/.conda/envs/psi4test/share/psi4/basis/jun-cc-pvdz.gbs 
    atoms 60-77 entry H          line    36 file /home/gridsan/tfroembgen/.conda/envs/psi4test/share/psi4/basis/jun-cc-pvdz.gbs 


         ---------------------------------------------------------
                                   SCF
               by Justin Turney, Rob Parrish, Andy Simmonett
                          and Daniel G. A. Smith
                              RHF Reference
                       12 Threads,  30517 MiB Core
         ---------------------------------------------------------

  ==> Geometry <==

    Molecular point group: c1
    Full point group: C1

    Geometry (in Angstrom), charge = -1, multiplicity = 1:

       Center              X                  Y                   Z               Mass       
    ------------   -----------------  -----------------  -----------------  -----------------
         B           -0.000198161052     0.000273808717     4.599333938238    11.009305360000
         F           -0.000000401852    -0.000000464183     6.012118938238    18.998403162730
         F            1.147859598148     0.675780735817     4.128192938238    18.998403162730
         F            0.011917658148    -1.332011464183     4.128394938238    18.998403162730
         F           -1.159666401852     0.656073035817     4.128473938238    18.998403162730
      Gh(C)           1.225311973413     0.707538196736    -0.594562434478    12.000000000000
      Gh(C)           1.225323934041    -0.707538986754    -0.606893244049    12.000000000000
      Gh(C)          -0.000006075942     1.414965821907    -0.607426867569    12.000000000000
      Gh(C)           2.456448831939     1.418327794995    -0.591675577078    12.000000000000
      Gh(C)           0.000010905269    -1.414976590818    -0.597227310245    12.000000000000
      Gh(C)          -1.225300870919     0.707545281801    -0.592310914156    12.000000000000
      Gh(C)           2.456437833310    -1.418323396064    -0.609138400905    12.000000000000
      Gh(C)          -0.000001254988     2.836800939098    -0.609830417703    12.000000000000
      Gh(C)           3.681826775460     0.709317863818    -0.608789611108    12.000000000000
      Gh(C)           2.455120126855     2.834223569306    -0.608892168068    12.000000000000
      Gh(C)           3.681821183209    -0.709333931612    -0.592717127089    12.000000000000
      Gh(C)          -1.225313520698    -0.707527607727    -0.605820482622    12.000000000000
      Gh(C)           1.226699659192     3.543469391811    -0.592533095158    12.000000000000
      Gh(C)           0.000004862847    -2.836782231419    -0.592379142623    12.000000000000
      Gh(C)          -2.456435954859     1.418316826102    -0.592275518310    12.000000000000
      Gh(C)           2.455123495769    -2.834230120772    -0.592869035457    12.000000000000
      Gh(C)          -1.226714286599     3.543468971567    -0.592429761939    12.000000000000
      Gh(C)           4.914517373191     1.427172780306    -0.602308928078    12.000000000000
      Gh(C)           3.693150269466     3.542795200362    -0.602259128442    12.000000000000
      Gh(C)          -2.456437522078    -1.418313373022    -0.609163439030    12.000000000000
      Gh(C)           1.226704919933    -3.543474334090    -0.608503225908    12.000000000000
      Gh(C)          -2.455125320518     2.834216570451    -0.608885791722    12.000000000000
      Gh(C)           4.914524458772    -1.427187002127    -0.599336185343    12.000000000000
      Gh(C)           1.221424691688     4.970133973077    -0.599197751084    12.000000000000
      Gh(C)           4.893008307311     2.825187907843    -0.601092259719    12.000000000000
      Gh(C)          -1.226696930499    -3.543471089260    -0.608236021499    12.000000000000
      Gh(C)          -3.681818898536     0.709324874549    -0.608776930628    12.000000000000
      Gh(C)           3.693147179140    -3.542801433574    -0.599218294783    12.000000000000
      Gh(C)          -1.221432174004     4.970128205680    -0.599014255711    12.000000000000
      Gh(C)           6.134771050916     0.680547854922    -0.601539153528    12.000000000000
      Gh(C)           3.656788958600     4.972953151384    -0.601350490659    12.000000000000
      Gh(C)          -2.455126829744    -2.834215185244    -0.593113393255    12.000000000000
      Gh(C)          -3.681819101071    -0.709325795652    -0.592599505510    12.000000000000
      Gh(C)           4.893012695903    -2.825200197815    -0.600481107824    12.000000000000
      Gh(C)          -0.000000995123     5.650447273849    -0.600245564418    12.000000000000
      Gh(C)           6.134775190322    -0.680554946258    -0.600273833013    12.000000000000
      Gh(C)           2.478131560845     5.653576659148    -0.600061711009    12.000000000000
      Gh(C)           1.221422482727    -4.970127147116    -0.601997248106    12.000000000000
      Gh(C)          -3.693162305975     3.542796862009    -0.602093620982    12.000000000000
      Gh(C)          -1.221428442955    -4.970118395779    -0.602110009939    12.000000000000
      Gh(C)          -4.914521729952     1.427175354812    -0.602231983071    12.000000000000
      Gh(C)           3.656787097669    -4.972955318422    -0.599899990125    12.000000000000
      Gh(C)          -2.478138452116     5.653574330345    -0.599777186001    12.000000000000
      Gh(C)          -3.693141660574    -3.542790311162    -0.599334420938    12.000000000000
      Gh(C)          -4.914512405063    -1.427181092211    -0.599301488170    12.000000000000
      Gh(C)          -0.000005930936    -5.650438379197    -0.600641068539    12.000000000000
      Gh(C)          -4.893020406111     2.825188506736    -0.601102341579    12.000000000000
      Gh(C)           2.478126071288    -5.653573636072    -0.600990590917    12.000000000000
      Gh(C)          -3.656798632268     4.972956089858    -0.601173810285    12.000000000000
      Gh(C)          -4.892999400866    -2.825191859243    -0.600635143522    12.000000000000
      Gh(C)          -2.478128420093    -5.653566262190    -0.601265778565    12.000000000000
      Gh(C)          -6.134770425341     0.680548674073    -0.601564705231    12.000000000000
      Gh(C)          -3.656788755199    -4.972944115154    -0.600114277942    12.000000000000
      Gh(C)          -6.134764964923    -0.680554007665    -0.600294308807    12.000000000000
      Gh(H)           5.835288573806     3.369275802771    -0.596732934057     1.007825032230
      Gh(H)           7.073859250737     1.228217156716    -0.601077510135     1.007825032230
      Gh(H)           4.600663342164     5.512380710270    -0.600845289907     1.007825032230
      Gh(H)           5.835283465295    -3.369306148912    -0.604935575138     1.007825032230
      Gh(H)          -0.000012073316     6.738530581953    -0.604594809426     1.007825032230
      Gh(H)           7.073861249820    -1.228227034927    -0.600782571107     1.007825032230
      Gh(H)           2.473313809789     6.740684199211    -0.600528431940     1.007825032230
      Gh(H)           4.600668569371    -5.512376221359    -0.600309987294     1.007825032230
      Gh(H)          -2.473318602548     6.740681627423    -0.600227085315     1.007825032230
      Gh(H)          -0.000010190238    -6.738528268635    -0.596111383555     1.007825032230
      Gh(H)          -5.835301836354     3.369270858113    -0.596596911908     1.007825032230
      Gh(H)           2.473308001821    -6.740685466612    -0.600420260492     1.007825032230
      Gh(H)          -4.600674763218     5.512377934420    -0.600679961584     1.007825032230
      Gh(H)          -5.835279428845    -3.369289055963    -0.605214881019     1.007825032230
      Gh(H)          -2.473300269450    -6.740679170323    -0.600869577037     1.007825032230
      Gh(H)          -7.073857688778     1.228220380657    -0.601161501616     1.007825032230
      Gh(H)          -4.600673708095    -5.512362761970    -0.600482295316     1.007825032230
      Gh(H)          -7.073856856419    -1.228220724160    -0.600877427573     1.007825032230

  Running in c1 symmetry.

  Rotational constants: A =      0.00172  B =      0.00172  C =      0.00110 [cm^-1]
  Rotational constants: A =     51.65981  B =     51.65364  C =     33.02251 [MHz]
  Nuclear repulsion =  178.879455044809106

  Charge       = -1
  Multiplicity = 1
  Electrons    = 42
  Nalpha       = 21
  Nbeta        = 21

  ==> Algorithm <==

  SCF Algorithm Type is DF.
  DIIS enabled.
  MOM disabled.
  Fractional occupation disabled.
  Guess Type is SAD.
  Energy threshold   = 1.00e-08
  Density threshold  = 1.00e-08
  Integral threshold = 1.00e-12

  ==> Primary Basis <==

  Basis Set: JUN-CC-PVDZ
    Blend: JUN-CC-PVDZ
    Number of shells: 526
    Number of basis functions: 1152
    Number of Cartesian functions: 1211
    Spherical Harmonics?: true
    Max angular momentum: 2

   => Loading Basis Set <=

    Name: (JUN-CC-PVDZ AUX)
    Role: JKFIT
    Keyword: DF_BASIS_SCF
    atoms 1     entry B          line    90 file /home/gridsan/tfroembgen/.conda/envs/psi4test/share/psi4/basis/jun-cc-pvdz-jkfit.gbs 
    atoms 2-5   entry F          line   314 file /home/gridsan/tfroembgen/.conda/envs/psi4test/share/psi4/basis/jun-cc-pvdz-jkfit.gbs 
    atoms 6-59  entry C          line   146 file /home/gridsan/tfroembgen/.conda/envs/psi4test/share/psi4/basis/jun-cc-pvdz-jkfit.gbs 
    atoms 60-77 entry H          line    70 file /home/gridsan/tfroembgen/.conda/envs/psi4test/share/psi4/basis/jun-cc-pvdz-jkfit.gbs 

  ==> Integral Setup <==

  ==> DiskDFJK: Density-Fitted J/K Matrices <==

    J tasked:                  Yes
    K tasked:                  Yes
    wK tasked:                  No
    OpenMP threads:             12
    Integrals threads:          12
    Memory [MiB]:            22888
    Algorithm:                Core
    Integral Cache:           LOAD
    Schwarz Cutoff:          1E-12
    Fitting Condition:       1E-10

   => Auxiliary Basis Set <=

  Basis Set: (JUN-CC-PVDZ AUX)
    Blend: JUN-CC-PVDZ-JKFIT
    Number of shells: 1755
    Number of basis functions: 5075
    Number of Cartesian functions: 5819
    Spherical Harmonics?: true
    Max angular momentum: 3

  Minimum eigenvalue in the overlap matrix is 8.3128351601E-10.
  Reciprocal condition number of the overlap matrix is 3.6766978460E-11.
    Using canonical orthogonalization.
  Overall, 14 of 1152 possible MOs eliminated.


  ==> Pre-Iterations <==

  SCF Guess: Superposition of Atomic Densities via on-the-fly atomic UHF (no occupation information).

   -------------------------
    Irrep   Nso     Nmo    
   -------------------------
     A       1152    1138 
   -------------------------
    Total    1152    1138
   -------------------------

  ==> Iterations <==

                           Total Energy        Delta E     RMS |[F,P]|

   @DF-RHF iter SAD:  -421.23044451301814   -4.21230e+02   0.00000e+00 
   @DF-RHF iter   1:  -422.65007664984819   -1.41963e+00   5.30039e-04 ADIIS/DIIS
   @DF-RHF iter   2:  -422.73291447779400   -8.28378e-02   3.23228e-04 ADIIS/DIIS
   @DF-RHF iter   3:  -422.77148420363261   -3.85697e-02   1.74184e-05 DIIS
   @DF-RHF iter   4:  -422.77184523187327   -3.61028e-04   2.75840e-06 DIIS
   @DF-RHF iter   5:  -422.77185389597338   -8.66410e-06   7.06941e-07 DIIS
   @DF-RHF iter   6:  -422.77185446208648   -5.66113e-07   1.45789e-07 DIIS
   @DF-RHF iter   7:  -422.77185448339895   -2.13125e-08   1.66346e-08 DIIS
   @DF-RHF iter   8:  -422.77185448363025   -2.31296e-10   7.17124e-09 DIIS
  Energy and wave function converged.


  ==> Post-Iterations <==

    Orbital Energies [Eh]
    ---------------------

    Doubly Occupied:                                                      

       1A    -26.067072     2A    -26.067044     3A    -26.066976  
       4A    -26.066891     5A     -7.539117     6A     -1.410898  
       7A     -1.351213     8A     -1.351167     9A     -1.351011  
      10A     -0.602167    11A     -0.528371    12A     -0.528361  
      13A     -0.528284    14A     -0.447239    15A     -0.447197  
      16A     -0.408422    17A     -0.408391    18A     -0.408327  
      19A     -0.384950    20A     -0.384893    21A     -0.384830  

    Virtual:                                                              

      22A      0.085724    23A      0.086655    24A      0.086658  
      25A      0.093968    26A      0.093972    27A      0.105569  
      28A      0.106299    29A      0.111098    30A      0.122096  
      31A      0.122097    32A      0.126228    33A      0.126233  
      34A      0.138387    35A      0.140149    36A      0.140159  
      37A      0.142477    38A      0.142485    39A      0.142864  
      40A      0.142883    41A      0.151899    42A      0.154692  
      43A      0.154697    44A      0.161482    45A      0.161684  
      46A      0.163684    47A      0.169760    48A      0.173863  
      49A      0.175053    50A      0.176109    51A      0.176116  
      52A      0.180595    53A      0.182890    54A      0.182904  
      55A      0.183976    56A      0.184277    57A      0.184282  
      58A      0.190550    59A      0.190577    60A      0.195005  
      61A      0.195007    62A      0.196453    63A      0.196456  
      64A      0.199577    65A      0.199595    66A      0.202266  
      67A      0.206560    68A      0.206572    69A      0.209719  
      70A      0.209721    71A      0.215123    72A      0.216020  
      73A      0.219288    74A      0.219297    75A      0.219530  
      76A      0.219533    77A      0.220280    78A      0.225321  
      79A      0.225338    80A      0.229327    81A      0.229328  
      82A      0.229589    83A      0.230663    84A      0.237632  
      85A      0.241037    86A      0.241039    87A      0.242197  
      88A      0.242767    89A      0.248520    90A      0.248569  
      91A      0.253672    92A      0.256528    93A      0.256870  
      94A      0.258968    95A      0.259317    96A      0.260292  
      97A      0.260304    98A      0.262777    99A      0.265519  
     100A      0.265521   101A      0.271145   102A      0.271154  
     103A      0.274890   104A      0.274903   105A      0.279476  
     106A      0.279480   107A      0.284483   108A      0.284491  
     109A      0.285089   110A      0.285097   111A      0.287140  
     112A      0.287786   113A      0.290632   114A      0.294725  
     115A      0.294730   116A      0.297996   117A      0.298041  
     118A      0.300829   119A      0.300874   120A      0.301057  
     121A      0.305940   122A      0.311047   123A      0.313180  
     124A      0.319493   125A      0.319506   126A      0.320617  
     127A      0.320627   128A      0.322933   129A      0.323966  
     130A      0.323973   131A      0.325528   132A      0.325531  
     133A      0.334388   134A      0.334419   135A      0.340641  
     136A      0.340661   137A      0.341116   138A      0.344150  
     139A      0.346729   140A      0.347507   141A      0.347535  
     142A      0.348541   143A      0.350573   144A      0.350576  
     145A      0.351968   146A      0.351969   147A      0.359327  
     148A      0.361898   149A      0.366929   150A      0.372080  
     151A      0.372097   152A      0.372926   153A      0.377936  
     154A      0.378037   155A      0.381871   156A      0.387511  
     157A      0.387524   158A      0.389724   159A      0.392658  
     160A      0.392672   161A      0.395233   162A      0.398004  
     163A      0.398015   164A      0.400575   165A      0.400586  
     166A      0.405643   167A      0.408535   168A      0.410752  
     169A      0.410948   170A      0.412111   171A      0.415789  
     172A      0.416008   173A      0.421177   174A      0.423100  
     175A      0.423181   176A      0.428874   177A      0.429046  
     178A      0.429315   179A      0.431019   180A      0.434720  
     181A      0.434735   182A      0.435097   183A      0.435985  
     184A      0.439365   185A      0.439662   186A      0.441190  
     187A      0.443044   188A      0.443092   189A      0.448909  
     190A      0.449649   191A      0.449670   192A      0.454758  
     193A      0.454895   194A      0.456020   195A      0.456072  
     196A      0.457926   197A      0.461470   198A      0.461498  
     199A      0.470990   200A      0.471907   201A      0.471961  
     202A      0.476840   203A      0.477005   204A      0.482086  
     205A      0.483995   206A      0.484013   207A      0.484227  
     208A      0.492976   209A      0.494342   210A      0.498142  
     211A      0.498171   212A      0.498689   213A      0.501932  
     214A      0.501953   215A      0.507689   216A      0.508961  
     217A      0.509087   218A      0.509134   219A      0.511443  
     220A      0.511472   221A      0.514154   222A      0.514200  
     223A      0.517005   224A      0.517102   225A      0.520044  
     226A      0.521106   227A      0.521361   228A      0.523878  
     229A      0.523916   230A      0.524116   231A      0.527805  
     232A      0.529257   233A      0.529604   234A      0.537717  
     235A      0.540113   236A      0.543438   237A      0.543476  
     238A      0.549676   239A      0.549718   240A      0.552252  
     241A      0.554821   242A      0.554909   243A      0.556291  
     244A      0.557528   245A      0.557530   246A      0.564743  
     247A      0.565556   248A      0.565602   249A      0.569911  
     250A      0.570030   251A      0.571000   252A      0.571679  
     253A      0.576222   254A      0.576459   255A      0.578114  
     256A      0.584633   257A      0.584813   258A      0.585663  
     259A      0.587778   260A      0.587820   261A      0.595754  
     262A      0.597078   263A      0.597972   264A      0.598007  
     265A      0.599682   266A      0.600475   267A      0.600553  
     268A      0.604522   269A      0.605371   270A      0.616544  
     271A      0.616592   272A      0.616644   273A      0.622342  
     274A      0.628157   275A      0.628217   276A      0.634052  
     277A      0.634115   278A      0.639705   279A      0.639748  
     280A      0.641887   281A      0.644332   282A      0.645970  
     283A      0.646019   284A      0.648617   285A      0.650513  
     286A      0.650762   287A      0.650846   288A      0.657308  
     289A      0.657346   290A      0.667225   291A      0.667244  
     292A      0.669155   293A      0.674083   294A      0.677021  
     295A      0.678792   296A      0.678810   297A      0.682314  
     298A      0.682345   299A      0.684827   300A      0.685102  
     301A      0.685118   302A      0.686259   303A      0.686289  
     304A      0.693625   305A      0.693711   306A      0.693984  
     307A      0.709820   308A      0.709979   309A      0.710168  
     310A      0.712359   311A      0.714357   312A      0.714361  
     313A      0.714687   314A      0.719053   315A      0.720953  
     316A      0.720983   317A      0.729546   318A      0.729611  
     319A      0.733777   320A      0.739915   321A      0.739957  
     322A      0.740638   323A      0.744358   324A      0.746039  
     325A      0.750133   326A      0.750150   327A      0.752983  
     328A      0.756442   329A      0.756470   330A      0.760117  
     331A      0.766463   332A      0.767615   333A      0.767629  
     334A      0.773623   335A      0.780844   336A      0.780898  
     337A      0.784202   338A      0.784213   339A      0.791040  
     340A      0.791133   341A      0.791200   342A      0.798834  
     343A      0.798879   344A      0.802526   345A      0.802552  
     346A      0.806773   347A      0.813814   348A      0.814819  
     349A      0.814923   350A      0.816345   351A      0.816464  
     352A      0.819526   353A      0.829463   354A      0.829948  
     355A      0.829955   356A      0.843224   357A      0.843421  
     358A      0.843526   359A      0.849470   360A      0.849499  
     361A      0.852232   362A      0.854880   363A      0.855498  
     364A      0.855677   365A      0.859226   366A      0.859836  
     367A      0.859860   368A      0.862762   369A      0.867464  
     370A      0.867526   371A      0.869028   372A      0.874383  
     373A      0.874516   374A      0.875860   375A      0.875910  
     376A      0.876533   377A      0.878727   378A      0.881436  
     379A      0.881513   380A      0.886467   381A      0.891021  
     382A      0.905445   383A      0.905448   384A      0.919572  
     385A      0.919592   386A      0.949878   387A      0.951475  
     388A      0.952656   389A      0.952683   390A      0.953574  
     391A      0.953629   392A      0.964527   393A      0.964589  
     394A      0.969147   395A      0.969176   396A      0.972211  
     397A      0.972262   398A      0.974746   399A      0.975336  
     400A      1.009122   401A      1.009139   402A      1.011105  
     403A      1.019696   404A      1.025110   405A      1.029900  
     406A      1.029923   407A      1.041031   408A      1.041075  
     409A      1.048765   410A      1.053713   411A      1.062126  
     412A      1.062140   413A      1.084664   414A      1.085154  
     415A      1.110011   416A      1.110073   417A      1.130863  
     418A      1.130924   419A      1.133498   420A      1.133785  
     421A      1.133799   422A      1.146045   423A      1.146085  
     424A      1.169262   425A      1.170988   426A      1.171008  
     427A      1.179953   428A      1.234273   429A      1.234345  
     430A      1.237361   431A      1.237500   432A      1.238724  
     433A      1.252037   434A      1.252085   435A      1.252098  
     436A      1.272530   437A      1.272578   438A      1.294119  
     439A      1.294749   440A      1.294758   441A      1.300275  
     442A      1.309681   443A      1.350740   444A      1.350860  
     445A      1.367016   446A      1.373911   447A      1.373971  
     448A      1.381880   449A      1.381931   450A      1.383459  
     451A      1.395106   452A      1.395198   453A      1.405466  
     454A      1.408695   455A      1.434861   456A      1.448164  
     457A      1.448186   458A      1.448595   459A      1.493971  
     460A      1.524574   461A      1.525085   462A      1.541609  
     463A      1.541634   464A      1.548198   465A      1.549066  
     466A      1.549123   467A      1.551800   468A      1.561976  
     469A      1.562832   470A      1.627524   471A      1.634145  
     472A      1.634273   473A      1.638444   474A      1.639674  
     475A      1.651348   476A      1.652882   477A      1.652973  
     478A      1.655490   479A      1.707566   480A      1.716374  
     481A      1.718326   482A      1.730426   483A      1.732978  
     484A      1.739340   485A      1.748598   486A      1.748645  
     487A      1.764956   488A      1.765495   489A      1.766072  
     490A      1.766795   491A      1.783711   492A      1.817965  
     493A      1.819259   494A      1.819754   495A      1.820485  
     496A      1.823326   497A      1.826110   498A      1.830709  
     499A      1.830967   500A      1.840814   501A      1.849178  
     502A      1.849263   503A      1.852435   504A      1.865776  
     505A      1.867153   506A      1.873242   507A      1.873644  
     508A      1.886460   509A      1.891637   510A      1.902207  
     511A      1.902639   512A      1.903557   513A      1.904434  
     514A      1.905397   515A      1.905768   516A      1.906062  
     517A      1.909484   518A      1.910930   519A      1.916908  
     520A      1.916951   521A      1.923002   522A      1.923212  
     523A      1.925618   524A      1.934070   525A      1.934857  
     526A      1.951860   527A      1.955368   528A      1.957733  
     529A      1.957797   530A      1.958422   531A      1.964045  
     532A      1.964555   533A      1.966199   534A      1.966302  
     535A      1.974977   536A      1.975156   537A      1.983731  
     538A      1.983903   539A      1.986926   540A      1.989237  
     541A      1.989460   542A      1.995764   543A      1.995973  
     544A      1.996271   545A      2.003649   546A      2.004197  
     547A      2.010857   548A      2.011057   549A      2.013635  
     550A      2.016943   551A      2.018841   552A      2.018898  
     553A      2.020890   554A      2.031724   555A      2.031741  
     556A      2.046006   557A      2.047870   558A      2.048275  
     559A      2.050894   560A      2.051080   561A      2.054854  
     562A      2.063540   563A      2.063647   564A      2.064802  
     565A      2.064850   566A      2.069730   567A      2.071219  
     568A      2.074828   569A      2.074847   570A      2.077297  
     571A      2.077421   572A      2.078644   573A      2.081233  
     574A      2.099795   575A      2.099869   576A      2.104795  
     577A      2.105078   578A      2.117361   579A      2.133234  
     580A      2.146806   581A      2.146876   582A      2.149479  
     583A      2.153975   584A      2.157483   585A      2.159767  
     586A      2.159869   587A      2.169484   588A      2.169743  
     589A      2.171808   590A      2.175806   591A      2.183759  
     592A      2.183772   593A      2.187055   594A      2.193697  
     595A      2.194127   596A      2.194284   597A      2.197705  
     598A      2.205648   599A      2.205902   600A      2.205948  
     601A      2.214658   602A      2.214718   603A      2.215080  
     604A      2.215645   605A      2.215684   606A      2.224578  
     607A      2.224719   608A      2.224746   609A      2.224990  
     610A      2.226683   611A      2.226751   612A      2.231543  
     613A      2.231578   614A      2.235509   615A      2.235939  
     616A      2.235969   617A      2.238566   618A      2.239326  
     619A      2.239388   620A      2.241416   621A      2.245027  
     622A      2.245049   623A      2.247921   624A      2.253322  
     625A      2.253347   626A      2.253846   627A      2.253965  
     628A      2.254486   629A      2.258824   630A      2.260092  
     631A      2.260192   632A      2.260244   633A      2.263620  
     634A      2.263675   635A      2.267328   636A      2.267658  
     637A      2.272182   638A      2.276844   639A      2.282288  
     640A      2.287189   641A      2.287329   642A      2.297104  
     643A      2.297125   644A      2.312325   645A      2.314601  
     646A      2.320035   647A      2.320054   648A      2.325430  
     649A      2.325538   650A      2.327157   651A      2.327175  
     652A      2.335010   653A      2.345543   654A      2.346625  
     655A      2.346758   656A      2.349870   657A      2.349928  
     658A      2.351008   659A      2.361555   660A      2.361572  
     661A      2.367164   662A      2.367191   663A      2.373570  
     664A      2.384888   665A      2.384925   666A      2.392403  
     667A      2.404769   668A      2.404849   669A      2.408581  
     670A      2.409411   671A      2.409521   672A      2.414658  
     673A      2.422423   674A      2.422433   675A      2.433056  
     676A      2.436413   677A      2.439911   678A      2.444414  
     679A      2.444489   680A      2.448047   681A      2.448079  
     682A      2.448631   683A      2.454471   684A      2.454615  
     685A      2.455898   686A      2.455909   687A      2.456028  
     688A      2.467386   689A      2.468165   690A      2.469703  
     691A      2.470280   692A      2.470350   693A      2.476187  
     694A      2.485360   695A      2.485445   696A      2.492587  
     697A      2.497601   698A      2.497624   699A      2.505689  
     700A      2.511427   701A      2.511571   702A      2.523005  
     703A      2.523007   704A      2.527825   705A      2.527933  
     706A      2.535417   707A      2.535483   708A      2.542554  
     709A      2.546357   710A      2.548177   711A      2.552981  
     712A      2.553041   713A      2.556129   714A      2.560235  
     715A      2.560540   716A      2.562780   717A      2.573999  
     718A      2.577776   719A      2.577830   720A      2.580528  
     721A      2.580556   722A      2.587053   723A      2.587198  
     724A      2.590184   725A      2.599575   726A      2.602778  
     727A      2.611824   728A      2.611886   729A      2.618231  
     730A      2.621113   731A      2.625963   732A      2.626087  
     733A      2.627050   734A      2.627101   735A      2.635331  
     736A      2.636132   737A      2.636155   738A      2.641159  
     739A      2.648492   740A      2.656846   741A      2.656993  
     742A      2.676572   743A      2.681117   744A      2.681188  
     745A      2.700206   746A      2.701198   747A      2.701279  
     748A      2.707649   749A      2.707694   750A      2.708529  
     751A      2.711049   752A      2.711125   753A      2.723320  
     754A      2.727773   755A      2.728014   756A      2.729306  
     757A      2.733570   758A      2.733966   759A      2.736799  
     760A      2.736847   761A      2.752034   762A      2.752294  
     763A      2.767257   764A      2.767324   765A      2.776971  
     766A      2.777196   767A      2.782730   768A      2.786219  
     769A      2.788681   770A      2.791940   771A      2.792218  
     772A      2.794849   773A      2.794913   774A      2.800283  
     775A      2.800341   776A      2.819922   777A      2.821163  
     778A      2.821372   779A      2.825410   780A      2.825641  
     781A      2.825676   782A      2.834750   783A      2.835153  
     784A      2.835227   785A      2.844694   786A      2.859082  
[...]
     709A      1.376879   710A      1.380133   711A      1.392572  
     712A      1.404940   713A      1.405120   714A      1.405159  
     715A      1.409192   716A      1.409227   717A      1.413455  
     718A      1.413505   719A      1.420133   720A      1.423829  
     721A      1.429616   722A      1.431402   723A      1.431440  
     724A      1.436449   725A      1.436498   726A      1.439595  
     727A      1.440176   728A      1.441146   729A      1.441269  
     730A      1.449797   731A      1.449866   732A      1.450092  
     733A      1.450631   734A      1.465861   735A      1.465895  
     736A      1.477886   737A      1.478016   738A      1.517227  
     739A      1.517242   740A      1.521881   741A      1.521900  
     742A      1.534674   743A      1.552396   744A      1.582094  
     745A      1.600003   746A      1.600546   747A      1.603418  
     748A      1.609849   749A      1.610817   750A      1.610827  
     751A      1.613462   752A      1.613698   753A      1.618309  
     754A      1.623487   755A      1.623564   756A      1.633936  
     757A      1.634184   758A      1.641832   759A      1.641860  
     760A      1.642173   761A      1.643606   762A      1.645163  
     763A      1.645289   764A      1.648665   765A      1.661190  
     766A      1.661225   767A      1.667889   768A      1.670461  
     769A      1.675120   770A      1.675233   771A      1.676632  
     772A      1.676762   773A      1.677138   774A      1.680029  
     775A      1.680107   776A      1.684124   777A      1.688026  
     778A      1.688092   779A      1.696149   780A      1.698566  
     781A      1.699074   782A      1.699122   783A      1.700296  
     784A      1.704906   785A      1.704977   786A      1.714643  
     787A      1.716548   788A      1.716576   789A      1.741764  
     790A      1.751635   791A      1.754399   792A      1.754562  
     793A      1.761013   794A      1.761036   795A      1.761120  
     796A      1.762060   797A      1.777398   798A      1.777425  
     799A      1.792123   800A      1.792146   801A      1.817183  
     802A      1.817228   803A      1.817689   804A      1.824809  
     805A      1.824906   806A      1.831932   807A      1.831995  
     808A      1.835006   809A      1.841237   810A      1.842458  
     811A      1.845282   812A      1.857310   813A      1.861606  
     814A      1.861656   815A      1.864462   816A      1.866574  
     817A      1.866657   818A      1.870685   819A      1.873565  
     820A      1.880268   821A      1.880320   822A      1.896420  
     823A      1.896506   824A      1.900021   825A      1.903208  
     826A      1.903326   827A      1.908700   828A      1.908843  
     829A      1.917055   830A      1.917281   831A      1.917967  
     832A      1.918072   833A      1.919317   834A      1.922163  
     835A      1.922249   836A      1.940540   837A      1.942671  
     838A      1.943388   839A      1.943581   840A      1.947398  
     841A      1.947424   842A      1.955160   843A      1.955257  
     844A      1.956886   845A      1.956941   846A      1.958102  
     847A      1.975181   848A      1.984347   849A      1.984404  
     850A      1.992498   851A      1.997204   852A      1.999454  
     853A      1.999466   854A      2.006422   855A      2.008686  
     856A      2.013141   857A      2.013315   858A      2.028012  
     859A      2.030012   860A      2.030449   861A      2.030959  
     862A      2.031711   863A      2.031980   864A      2.032885  
     865A      2.048560   866A      2.052914   867A      2.053226  
     868A      2.059344   869A      2.059661   870A      2.062683  
     871A      2.063214   872A      2.069588   873A      2.073165  
     874A      2.073415   875A      2.073756   876A      2.080304  
     877A      2.080342   878A      2.083266   879A      2.088469  
     880A      2.088555   881A      2.093607   882A      2.095258  
     883A      2.096928   884A      2.097186   885A      2.100889  
     886A      2.100956   887A      2.108713   888A      2.108762  
     889A      2.111222   890A      2.112092   891A      2.112309  
     892A      2.116394   893A      2.117548   894A      2.120101  
     895A      2.120178   896A      2.121311   897A      2.121368  
     898A      2.128280   899A      2.128465   900A      2.134639  
     901A      2.134648   902A      2.136444   903A      2.136507  
     904A      2.143385   905A      2.143411   906A      2.156889  
     907A      2.160481   908A      2.160522   909A      2.163273  
     910A      2.163337   911A      2.171796   912A      2.179661  
     913A      2.179727   914A      2.191068   915A      2.191423  
     916A      2.192578   917A      2.194177   918A      2.195880  
     919A      2.195963   920A      2.203199   921A      2.219760  
     922A      2.220471   923A      2.220503   924A      2.228251  
     925A      2.229451   926A      2.231958   927A      2.232068  
     928A      2.243478   929A      2.243830   930A      2.244560  
     931A      2.244970   932A      2.247731   933A      2.260343  
     934A      2.260450   935A      2.270478   936A      2.270489  
     937A      2.272412   938A      2.272454   939A      2.281102  
     940A      2.300304   941A      2.306732   942A      2.311651  
     943A      2.313474   944A      2.322585   945A      2.323899  
     946A      2.331204   947A      2.331320   948A      2.331814  
     949A      2.334953   950A      2.351160   951A      2.351816  
     952A      2.353090   953A      2.353219   954A      2.366651  
     955A      2.366798   956A      2.374925   957A      2.381276  
     958A      2.416142   959A      2.424086   960A      2.424525  
     961A      2.424548   962A      2.436515   963A      2.441510  
     964A      2.441557   965A      2.470205   966A      2.473625  
     967A      2.473764   968A      2.485962   969A      2.485979  
     970A      2.502386   971A      2.520324   972A      2.530004  
     973A      2.531181   974A      2.545588   975A      2.546328  
     976A      2.546355   977A      2.554708   978A      2.554766  
     979A      2.554932   980A      2.560133   981A      2.560136  
     982A      2.573120   983A      2.573152   984A      2.574858  
     985A      2.575401   986A      2.585934   987A      2.586054  
     988A      2.587493   989A      2.590053   990A      2.591453  
     991A      2.607607   992A      2.624074   993A      2.624124  
     994A      2.628684   995A      2.631676   996A      2.632208  
     997A      2.641511   998A      2.641571   999A      2.651105  
    1000A      2.651455  1001A      2.656906  1002A      2.682798  
    1003A      2.683921  1004A      2.684147  1005A      2.687960  
    1006A      2.702396  1007A      2.702718  1008A      2.713152  
    1009A      2.713160  1010A      2.718924  1011A      2.718947  
    1012A      2.723497  1013A      2.723726  1014A      2.739671  
    1015A      2.752784  1016A      2.753162  1017A      2.777940  
    1018A      2.795110  1019A      2.795271  1020A      2.816890  
    1021A      2.827194  1022A      2.829071  1023A      2.829455  
    1024A      2.838119  1025A      2.838691  1026A      2.854604  
    1027A      2.854782  1028A      2.856181  1029A      2.858448  
    1030A      2.859753  1031A      2.859844  1032A      2.870788  
    1033A      2.918223  1034A      2.918252  1035A      2.925175  
    1036A      2.933735  1037A      2.933793  1038A      2.950528  
    1039A      2.950548  1040A      2.963626  1041A      3.009988  
    1042A      3.010118  1043A      3.011977  1044A      3.029946  
    1045A      3.064526  1046A      3.064580  1047A      3.070896  
    1048A      3.071018  1049A      3.110637  1050A      3.111427  
    1051A      3.129159  1052A      3.130072  1053A      3.130310  
    1054A      3.137535  1055A      3.147134  1056A      3.147173  
    1057A      3.147487  1058A      3.149541  1059A      3.149554  
    1060A      3.158675  1061A      3.159011  1062A      3.166368  
    1063A      3.166769  1064A      3.191937  1065A      3.211189  
    1066A      3.219786  1067A      3.238454  1068A      3.275497  
    1069A      3.277041  1070A      3.277204  1071A      3.282924  
    1072A      3.283120  1073A      3.416582  1074A      3.417051  
    1075A      3.443608  1076A      3.481931  1077A      3.484528  
    1078A      3.550039  1079A      3.577746  1080A      3.579760  
    1081A      3.594145  1082A      3.627174  1083A      3.629086  
    1084A      3.663267  1085A      3.670547  1086A      3.769334  
    1087A      3.783063  1088A      3.784028  1089A      3.871107  
    1090A      3.871111  1091A      3.913526  1092A      3.913643  
    1093A      3.977030  1094A      4.011043  1095A      4.037632  
    1096A      4.049230  1097A      4.083830  1098A      4.237121  
    1099A      4.256688  1100A      4.256961  1101A      4.356374  
    1102A      5.751228  1103A      5.751231  1104A      5.752496  
    1105A      5.757765  1106A      5.757781  1107A      5.763033  
    1108A      5.763037  1109A      5.763461  1110A      5.787057  
    1111A      5.787472  1112A      5.787545  1113A      6.022540  
    1114A      6.022872  1115A      6.024235  1116A      6.196976  
    1117A      6.328951  1118A      6.329275  1119A      6.380370  
    1120A      6.380723  1121A      6.383305  1122A      7.197073  
    1123A      7.197201  1124A      7.236013  1125A      7.236159  
    1126A      7.271551  1127A      7.288662  1128A      7.288744  
    1129A      7.354543  1130A      7.476802  1131A      7.506291  
    1132A      7.506573  1133A      7.643626  1134A     12.617090  
    1135A     42.916901  1136A     42.926590  1137A     42.926630  
    1138A     42.945507  

    Final Occupation by Irrep:
              A 
    DOCC [   171 ]
    NA   [   171 ]
    NB   [   171 ]

  @DF-RHF Final Energy: -2055.89248366367792

   => Energetics <=

    Nuclear Repulsion Energy =           6452.5568002797772351
    One-Electron Energy =              -15636.4541851615849737
    Two-Electron Energy =                7128.0049012181298167
    Total Energy =                      -2055.8924836636779219

Computation Completed


Properties will be evaluated at   0.000000,   0.000000,   0.000000 [a0]

Properties computed using the SCF density matrix


 Multipole Moments:

 ------------------------------------------------------------------------------------
     Multipole            Electronic (a.u.)      Nuclear  (a.u.)        Total (a.u.)
 ------------------------------------------------------------------------------------

 L = 1.  Multiply by 2.5417464519 to convert [e a0] to [Debye]
 Dipole X            :          0.0000446            0.0000419            0.0000865
 Dipole Y            :          0.0000245           -0.0000426           -0.0000181
 Dipole Z            :        388.2188661         -388.2256843           -0.0068182
 Magnitude           :                                                    0.0068188

 ------------------------------------------------------------------------------------

*** tstop() called on d-16-13-4 at Mon Jan 22 10:51:51 2024
Module time:
	user time   =    2254.60 seconds =      37.58 minutes
	system time =      49.87 seconds =       0.83 minutes
	total time  =        353 seconds =       5.88 minutes
Total time:
	user time   =    6863.32 seconds =     114.39 minutes
	system time =     128.06 seconds =       2.13 minutes
	total time  =        852 seconds =      14.20 minutes
  Constructing Basis Sets for SAPT...

   => Loading Basis Set <=

    Name: (JUN-CC-PVDZ AUX)
    Role: RIFIT
    Keyword: DF_BASIS_SAPT
    atoms 1     entry B          line    56 file /home/gridsan/tfroembgen/.conda/envs/psi4test/share/psi4/basis/jun-cc-pvdz-ri.gbs 
    atoms 2-5   entry F          line   232 file /home/gridsan/tfroembgen/.conda/envs/psi4test/share/psi4/basis/jun-cc-pvdz-ri.gbs 
    atoms 6-59  entry C          line   100 file /home/gridsan/tfroembgen/.conda/envs/psi4test/share/psi4/basis/jun-cc-pvdz-ri.gbs 
    atoms 60-77 entry H          line    30 file /home/gridsan/tfroembgen/.conda/envs/psi4test/share/psi4/basis/jun-cc-pvdz-ri.gbs 

   => Loading Basis Set <=

    Name: (JUN-CC-PVDZ AUX)
    Role: JKFIT
    Keyword: DF_BASIS_ELST
    atoms 1     entry B          line    90 file /home/gridsan/tfroembgen/.conda/envs/psi4test/share/psi4/basis/jun-cc-pvdz-jkfit.gbs 
    atoms 2-5   entry F          line   314 file /home/gridsan/tfroembgen/.conda/envs/psi4test/share/psi4/basis/jun-cc-pvdz-jkfit.gbs 
    atoms 6-59  entry C          line   146 file /home/gridsan/tfroembgen/.conda/envs/psi4test/share/psi4/basis/jun-cc-pvdz-jkfit.gbs 
    atoms 60-77 entry H          line    70 file /home/gridsan/tfroembgen/.conda/envs/psi4test/share/psi4/basis/jun-cc-pvdz-jkfit.gbs 


  //>>>>>>>>>>>>>>>>>>>>>>>>>>>>>>>>>>>//
  //               SSAPT0              //
  //<<<<<<<<<<<<<<<<<<<<<<<<<<<<<<<<<<<//


*** tstart() called on d-16-13-4
*** at Mon Jan 22 10:51:52 2024

        SAPT0  
    Ed Hohenstein
     6 June 2009

      Orbital Information
  --------------------------
    NSO        =      1152
    NMO        =      1138
    NRI        =      4087
    NRI (Elst) =      5075
    NOCC A     =        21
    NOCC B     =       171
    FOCC A     =         5
    FOCC B     =        54
    NVIR A     =      1117
    NVIR B     =       967

    Elst10,r            =     0.010821534193 [Eh]
    Exch10              =     0.000021795195 [Eh]
    Exch10 (S^2)        =     0.000021795730 [Eh]

    Iter     Energy [mEh]          dE [mEh]         Residual      Time [s]
       1      -0.01201520       0.012015202       0.667824300           154
       2      -0.01379284       0.001777639       0.332536047           186
       3      -0.01437689       0.000584044       0.068787388           204
       4      -0.01436969      -0.000007193       0.014563713           221
       5      -0.01434852      -0.000021172       0.001828728           239
       6      -0.01435106       0.000002541       0.000461077           254
       7      -0.01435103      -0.000000036       0.000158909           271
       8      -0.01435093      -0.000000100       0.000033261           285
       9      -0.01435092      -0.000000002       0.000005045           298
      10      -0.01435093       0.000000003       0.000000712           310

    CHF Iterations converged


    Iter     Energy [mEh]          dE [mEh]         Residual      Time [s]
       1      -8.20697405       8.206974051      47.872884617           178
       2      -5.52961574      -2.677358309       6.180300431           296
       3      -5.52204929      -0.007566456       2.110364894           312
       4      -5.64939107       0.127341781       0.489522182           331
       5      -5.65639021       0.006999144       0.139064297           348
       6      -5.65380776      -0.002582454       0.066441298           365
       7      -5.65298118      -0.000826573       0.025522490           382
       8      -5.65333293       0.000351742       0.011326261           398
       9      -5.65343767       0.000104745       0.004555017           415
      10      -5.65339520      -0.000042467       0.003569866           432
      11      -5.65337706      -0.000018147       0.002146372           447
      12      -5.65338709       0.000010031       0.001126083           462
      13      -5.65339503       0.000007940       0.000455692           477
      14      -5.65339434      -0.000000687       0.000156258           492
      15      -5.65339262      -0.000001724       0.000053097           508
      16      -5.65339286       0.000000244       0.000031016           526
      17      -5.65339309       0.000000230       0.000013975           542
      18      -5.65339308      -0.000000012       0.000004410           559
      19      -5.65339304      -0.000000038       0.000001696           575
      20      -5.65339304      -0.000000003       0.000000631           594

    CHF Iterations converged

    Ind20,r (A<-B)      =    -0.000014350927 [Eh]
    Ind20,r (B<-A)      =    -0.005653393037 [Eh]
    Ind20,r             =    -0.005667743964 [Eh]
    Exch-Ind20,r (A<-B) =     0.000003425776 [Eh]
    Exch-Ind20,r (B<-A) =     0.000004071905 [Eh]
    Exch-Ind20,r        =     0.000007497681 [Eh]
    Disp20              =    -0.001687708115 [Eh]
    Disp20 (SS)         =    -0.000843854058 [Eh]
    Disp20 (OS)         =    -0.000843854058 [Eh]
    Exch-Disp20         =     0.000010481964 [Eh]
    Exch-Disp20 (SS)    =     0.000007736025 [Eh]
    Exch-Disp20 (OS)    =     0.000002745939 [Eh]

    SAPT Results 
  --------------------------------------------------------------------------------------------------------
    Electrostatics                 10.82153419 [mEh]       6.79061523 [kcal/mol]      28.41193411 [kJ/mol]
      Elst10,r                     10.82153419 [mEh]       6.79061523 [kcal/mol]      28.41193411 [kJ/mol]

    Exchange                        0.02179519 [mEh]       0.01367669 [kcal/mol]       0.05722328 [kJ/mol]
      Exch10                        0.02179519 [mEh]       0.01367669 [kcal/mol]       0.05722328 [kJ/mol]
      Exch10(S^2)                   0.02179573 [mEh]       0.01367703 [kcal/mol]       0.05722468 [kJ/mol]

    Induction                      -5.60462667 [mEh]      -3.51695633 [kcal/mol]     -14.71494528 [kJ/mol]
      Ind20,r                      -5.66774396 [mEh]      -3.55656303 [kcal/mol]     -14.88065973 [kJ/mol]
      Exch-Ind20,r                  0.00749768 [mEh]       0.00470487 [kcal/mol]       0.01968516 [kJ/mol]
      delta HF,r (2)                0.05561962 [mEh]       0.03490184 [kcal/mol]       0.14602929 [kJ/mol]

    Dispersion                     -1.67722615 [mEh]      -1.05247530 [kcal/mol]      -4.40355665 [kJ/mol]
      Disp20                       -1.68770812 [mEh]      -1.05905283 [kcal/mol]      -4.43107705 [kJ/mol]
      Exch-Disp20                   0.01048196 [mEh]       0.00657753 [kcal/mol]       0.02752039 [kJ/mol]
      Disp20 (SS)                  -0.84385406 [mEh]      -0.52952642 [kcal/mol]      -2.21553852 [kJ/mol]
      Disp20 (OS)                  -0.84385406 [mEh]      -0.52952642 [kcal/mol]      -2.21553852 [kJ/mol]
      Exch-Disp20 (SS)              0.00773602 [mEh]       0.00485443 [kcal/mol]       0.02031093 [kJ/mol]
      Exch-Disp20 (OS)              0.00274594 [mEh]       0.00172310 [kcal/mol]       0.00720946 [kJ/mol]

  Total HF                          5.23870272 [mEh]       3.28733559 [kcal/mol]      13.75421210 [kJ/mol]
  Total SAPT0                       3.56147657 [mEh]       2.23486029 [kcal/mol]       9.35065545 [kJ/mol]

  Special recipe for scaled SAPT0 (see Manual):
    Electrostatics sSAPT0          10.82153419 [mEh]       6.79061523 [kcal/mol]      28.41193411 [kJ/mol]
    Exchange sSAPT0                 0.02179519 [mEh]       0.01367669 [kcal/mol]       0.05722328 [kJ/mol]
    Induction sSAPT0               -5.60462722 [mEh]      -3.51695668 [kcal/mol]     -14.71494673 [kJ/mol]
    Dispersion sSAPT0              -1.67722692 [mEh]      -1.05247578 [kcal/mol]      -4.40355868 [kJ/mol]
  Total sSAPT0                      3.56147525 [mEh]       2.23485946 [kcal/mol]       9.35065197 [kJ/mol]
  --------------------------------------------------------------------------------------------------------

*** tstop() called on d-16-13-4 at Mon Jan 22 11:48:18 2024
Module time:
	user time   =    7452.03 seconds =     124.20 minutes
	system time =     691.53 seconds =      11.53 minutes
	total time  =       3386 seconds =      56.43 minutes
Total time:
	user time   =   14316.22 seconds =     238.60 minutes
	system time =     819.59 seconds =      13.66 minutes
	total time  =       4239 seconds =      70.65 minutes

    Psi4 stopped on: Monday, 22 January 2024 11:48AM
    Psi4 wall time for execution: 1:10:40.31

*** Psi4 exiting successfully. Buy a developer a beer!
