
    -----------------------------------------------------------------------
          Psi4: An Open-Source Ab Initio Electronic Structure Package
                               Psi4 1.9 release

                         Git: Rev {} zzzzzzz 


    D. G. A. Smith, L. A. Burns, A. C. Simmonett, R. M. Parrish,
    M. C. Schieber, R. Galvelis, P. Kraus, H. Kruse, R. Di Remigio,
    A. Alenaizan, A. M. James, S. Lehtola, J. P. Misiewicz, M. Scheurer,
    R. A. Shaw, J. B. Schriber, Y. Xie, Z. L. Glick, D. A. Sirianni,
    J. S. O'Brien, J. M. Waldrop, A. Kumar, E. G. Hohenstein,
    B. P. Pritchard, B. R. Brooks, H. F. Schaefer III, A. Yu. Sokolov,
    K. Patkowski, A. E. DePrince III, U. Bozkaya, R. A. King,
    F. A. Evangelista, J. M. Turney, T. D. Crawford, C. D. Sherrill,
    J. Chem. Phys. 152(18) 184108 (2020). https://doi.org/10.1063/5.0006002

                            Additional Code Authors
    E. T. Seidl, C. L. Janssen, E. F. Valeev, M. L. Leininger,
    J. F. Gonthier, R. M. Richard, H. R. McAlexander, M. Saitow, X. Wang,
    P. Verma, M. H. Lechner, A. Jiang, S. Behnle, A. G. Heide,
    M. F. Herbst, and D. L. Poole

             Previous Authors, Complete List of Code Contributors,
                       and Citations for Specific Modules
    https://github.com/psi4/psi4/blob/master/codemeta.json
    https://github.com/psi4/psi4/graphs/contributors
    http://psicode.org/psi4manual/master/introduction.html#citing-psifour

    -----------------------------------------------------------------------


    Psi4 started on: Saturday, 10 February 2024 12:48PM

    Process ID: 3181464
    Host:       n2cn0366
    PSIDATADIR: /opt/software/pc2/EB-SW/software/PSI4/1.9-foss-2022a/share/psi4
    Memory:     500.0 MiB
    Threads:    16
    
  ==> Input File <==

--------------------------------------------------------------------------
memory 48 GB # how much memory is available ! Depends on the nodes/cores !

molecule dimer {
# monomer A
+1 1    # Charge and multiplicity
C  0.680067 -0.008042 -5.115929
C -0.680504 -0.006014 -5.115545
N -1.085635 -0.005016 -3.797221
C  0.000108 -0.001740 -3.015820
C -2.477365  0.044390 -3.329242
N  1.085222 -0.005016 -3.797221
H  1.385146 -0.015870 -5.933368
H -1.385302 -0.006204 -5.933214
H -0.000009  0.000007 -1.934731
C  2.478117 -0.021908 -3.332123
H  2.490592  0.005437 -2.241870
H  2.967028 -0.935354 -3.679299
H  3.001428  0.853575 -3.723595
H -2.857359  1.066461 -3.409201
H -3.082679 -0.625694 -3.942306
H -2.518128 -0.282594 -2.289294
--
# monomer B
0 1     # Charge and multiplicity
C   1.22531237526482      0.70753866091955      0.00613762728373
C   1.22532433589282     -0.70753852257020     -0.00619318228664
C   -0.00000567409046      1.41496628609039     -0.00672680580738
C   2.45644923379077      1.41832825917820      0.00902448468363
C   0.00001130712078     -1.41497612663474      0.00347275151708
C   -1.22530046906674      0.70754574598412      0.00838914760619
C   2.45643823516184     -1.41832293188077     -0.00843833914343
C   -0.00000085313587      2.83680140328112     -0.00913035594137
C   3.68182717731192      0.70931832800114     -0.00808954934571
C   2.45512052870677      2.83422403348893     -0.00819210630633
C   3.68182158506039     -0.70933346742900      0.00798293467272
C   -1.22531311884624     -0.70752714354401     -0.00512042085974
C   1.22670006104402      3.54346985599427      0.00816696660346
C   0.00000526469929     -2.83678176723568      0.00832091913869
C   -2.45643555300670      1.41831729028492      0.00842454345199
C   2.45512389762097     -2.83422965658853      0.00783102630520
C   -1.22671388474763      3.54346943575023      0.00827029982280
C   4.91451777504333      1.42717324448953     -0.00160886631602
C   3.69315067131765      3.54279566454522     -0.00155906667985
C   -2.45643712022637     -1.41831290883911     -0.00846337726810
C   1.22670532178455     -3.54347386990643     -0.00780316414624
C   -2.45512491866593      2.83421703463423     -0.00818572995999
C   4.91452486062398     -1.42718653794377      0.00136387641845
C   1.22142509354026      4.97013443726031      0.00150231067809
C   4.89300870916237      2.82518837202648     -0.00039219795739
C   -1.22669652864725     -3.54347062507680     -0.00753595973677
C   -3.68181849668397      0.70932533873199     -0.00807686886569
C   3.69314758099218     -3.54280096939050      0.00148176697923
C   -1.22143177215231      4.97012866986289      0.00168580605083
C   6.13477145276790      0.68054831910577     -0.00083909176631
C   3.65678936045204      4.97295361556775     -0.00065042889723
C   -2.45512642789169     -2.83421472106065      0.00758666850712
C   -3.68181869921921     -0.70932533146830      0.00810055625144
C   4.89301309775526     -2.82519973363176      0.00021895393805
C   -0.00000059327114      5.65044773803267      0.00045449734393
C   6.13477559217374     -0.68055448207492      0.00042622874941
C   2.47813196269732      5.65357712333155      0.00063835075260
C   1.22142288457925     -4.97012668293268     -0.00129718634452
C   -3.69316190412301      3.54279732619245     -0.00139355922051
C   -1.22142804110313     -4.97011793159564     -0.00140994817719
C   -4.91452132810043      1.42717581899491     -0.00153192130862
C   3.65678749952045     -4.97295485423912      0.00080007163680
C   -2.47813805026426      5.65357479452875      0.00092287576113
C   -3.69314125872231     -3.54278984697859      0.00136564082345
C   -4.91451200321153     -1.42718062802730      0.00139857359209
C   -0.00000552908399     -5.65043791501335      0.00005899322272
C   -4.89302000425900      2.82518897091939     -0.00040227981744
C   2.47812647313991     -5.65357317188818     -0.00029052915548
C   -3.65679823041642      4.97295655404175     -0.00047374852278
C   -4.89299899901461     -2.82519139505969      0.00006491824035
C   -2.47812801824129     -5.65356579800621     -0.00056571680280
C   -6.13477002348955      0.68054913825639     -0.00086464346868
C   -3.65678835334731     -4.97294365097028      0.00058578382008
C   -6.13476456307132     -0.68055354348201      0.00040575295444
H   5.83528897565761      3.36927626695423      0.00396712770529
H   7.07385965258860      1.22821762089947     -0.00037744837300
H   4.60066374401555      5.51238117445323     -0.00014522814529
H   5.83528386714679     -3.36930568472863     -0.00423551337640
H   -0.00001167146422      6.73853104613662     -0.00389474766392
H   7.07386165167227     -1.22822657074368     -0.00008250934481
H   2.47331421164041      6.74068466339473      0.00017162982210
H   4.60066897122302     -5.51237575717576      0.00039007446835
H   -2.47331820069565      6.74068209160650      0.00047297644710
H   -0.00000978838621     -6.73852780445195      0.00458867820736
H   -5.83530143450167      3.36927132229595      0.00410314985360
H   2.47330840367253     -6.74068500242887      0.00027980126949
H   -4.60067436136587      5.51237839860371      0.00002010017831
H   -5.83527902699321     -3.36928859177951     -0.00451481925734
H   -2.47329986759855     -6.74067870613986     -0.00016951527498
H   -7.07385728692578      1.22822084484047     -0.00046143985387
H   -4.60067330624313     -5.51236229778631      0.00021776644566
H   -7.07385645456741     -1.22822025997701     -0.00017736581114

    units angstrom      # Angstroms are the default
    no_reorient         # Geometry fixed, default
    symmetry c1         # C1 symmetry, default
}

set {
    scf_type DF         # Density fitting, faster than exact integrals
    freeze_core True    # Freeze core electrons
    basis jun-cc-pVDZ   # Jun-cc-pVDZ basis set, recommended for sSAPT0 in https://doi.org/10.1063/1.4867135
}

energy('ssapt0')        # Compute sSAPT0 energy, includes also SAPT0
--------------------------------------------------------------------------

  Memory set to  44.703 GiB by Python driver.

Scratch directory: /tmp/
   => Loading Basis Set <=

    Name: JUN-CC-PVDZ
    Role: ORBITAL
    Keyword: BASIS
    atoms 1-2, 4-5, 10, 17-70 entry C          line   164 file /opt/software/pc2/EB-SW/software/PSI4/1.9-foss-2022a/share/psi4/basis/jun-cc-pvdz.gbs 
    atoms 3, 6                entry N          line   198 file /opt/software/pc2/EB-SW/software/PSI4/1.9-foss-2022a/share/psi4/basis/jun-cc-pvdz.gbs 
    atoms 7-9, 11-16, 71-88   entry H          line    36 file /opt/software/pc2/EB-SW/software/PSI4/1.9-foss-2022a/share/psi4/basis/jun-cc-pvdz.gbs 

   => Loading Basis Set <=

    Name: JUN-CC-PVDZ
    Role: ORBITAL
    Keyword: BASIS
    atoms 1-2, 4-5, 10, 17-70 entry C          line   164 file /opt/software/pc2/EB-SW/software/PSI4/1.9-foss-2022a/share/psi4/basis/jun-cc-pvdz.gbs 
    atoms 3, 6                entry N          line   198 file /opt/software/pc2/EB-SW/software/PSI4/1.9-foss-2022a/share/psi4/basis/jun-cc-pvdz.gbs 
    atoms 7-9, 11-16, 71-88   entry H          line    36 file /opt/software/pc2/EB-SW/software/PSI4/1.9-foss-2022a/share/psi4/basis/jun-cc-pvdz.gbs 


  //>>>>>>>>>>>>>>>>>>>>>>>>>>>>>>>>>>>//
  //              Dimer HF             //
  //<<<<<<<<<<<<<<<<<<<<<<<<<<<<<<<<<<<//

   => Libint2 <=

    Primary   basis highest AM E, G, H:  5, 4, 3
    Auxiliary basis highest AM E, G, H:  6, 5, 4
    Onebody   basis highest AM E, G, H:  6, 5, 4
    Solid Harmonics ordering:            gaussian

*** tstart() called on n2cn0366
*** at Sat Feb 10 12:48:50 2024

   => Loading Basis Set <=

    Name: JUN-CC-PVDZ
    Role: ORBITAL
    Keyword: BASIS
    atoms 1-2, 4-5, 10, 17-70 entry C          line   164 file /opt/software/pc2/EB-SW/software/PSI4/1.9-foss-2022a/share/psi4/basis/jun-cc-pvdz.gbs 
    atoms 3, 6                entry N          line   198 file /opt/software/pc2/EB-SW/software/PSI4/1.9-foss-2022a/share/psi4/basis/jun-cc-pvdz.gbs 
    atoms 7-9, 11-16, 71-88   entry H          line    36 file /opt/software/pc2/EB-SW/software/PSI4/1.9-foss-2022a/share/psi4/basis/jun-cc-pvdz.gbs 


         ---------------------------------------------------------
                                   SCF
               by Justin Turney, Rob Parrish, Andy Simmonett
                          and Daniel G. A. Smith
                              RHF Reference
                       16 Threads,  45776 MiB Core
         ---------------------------------------------------------

  ==> Geometry <==

    Molecular point group: c1
    Full point group: C1

    Geometry (in Angstrom), charge = 1, multiplicity = 1:

       Center              X                  Y                   Z               Mass       
    ------------   -----------------  -----------------  -----------------  -----------------
         C            0.680066520158    -0.008042372515    -4.619875199228    12.000000000000
         C           -0.680504479842    -0.006014372515    -4.619491199228    12.000000000000
         N           -1.085635479842    -0.005016372515    -3.301167199228    14.003074004430
         C            0.000107520158    -0.001740372515    -2.519766199228    12.000000000000
         C           -2.477365479842     0.044389627485    -2.833188199228    12.000000000000
         N            1.085221520158    -0.005016372515    -3.301167199228    14.003074004430
         H            1.385145520158    -0.015870372515    -5.437314199228     1.007825032230
         H           -1.385302479842    -0.006204372515    -5.437160199228     1.007825032230
         H           -0.000009479842     0.000006627485    -1.438677199228     1.007825032230
         C            2.478116520158    -0.021908372515    -2.836069199228    12.000000000000
         H            2.490591520158     0.005436627485    -1.745816199228     1.007825032230
         H            2.967027520158    -0.935354372515    -3.183245199228     1.007825032230
         H            3.001427520158     0.853574627485    -3.227541199228     1.007825032230
         H           -2.857359479842     1.066460627485    -2.913147199228     1.007825032230
         H           -3.082679479842    -0.625694372515    -3.446252199228     1.007825032230
         H           -2.518128479842    -0.282594372515    -1.793240199228     1.007825032230
         C            1.225311895423     0.707538288405     0.502191428055    12.000000000000
         C            1.225323856051    -0.707538895085     0.489860618485    12.000000000000
         C           -0.000006153932     1.414965913575     0.489326994964    12.000000000000
         C            2.456448753949     1.418327886663     0.505078285455    12.000000000000
         C            0.000010827279    -1.414976499150     0.499526552289    12.000000000000
         C           -1.225300948908     0.707545373469     0.504442948378    12.000000000000
         C            2.456437755320    -1.418323304396     0.487615461628    12.000000000000
         C           -0.000001332978     2.836801030766     0.486923444830    12.000000000000
         C            3.681826697470     0.709317955486     0.487964251426    12.000000000000
         C            2.455120048865     2.834223660974     0.487861694465    12.000000000000
         C            3.681821105219    -0.709333839944     0.504036735444    12.000000000000
         C           -1.225313598688    -0.707527516059     0.490933379912    12.000000000000
         C            1.226699581202     3.543469483479     0.504220767375    12.000000000000
         C            0.000004784858    -2.836782139751     0.504374719910    12.000000000000
         C           -2.456436032848     1.418316917770     0.504478344224    12.000000000000
         C            2.455123417779    -2.834230029103     0.503884827077    12.000000000000
         C           -1.226714364589     3.543469063235     0.504324100594    12.000000000000
         C            4.914517295202     1.427172871975     0.494444934456    12.000000000000
         C            3.693150191476     3.542795292030     0.494494734092    12.000000000000
         C           -2.456437600068    -1.418313281354     0.487590423504    12.000000000000
         C            1.226704841943    -3.543474242421     0.488250636625    12.000000000000
         C           -2.455125398508     2.834216662119     0.487868070812    12.000000000000
         C            4.914524380782    -1.427186910459     0.497417677190    12.000000000000
         C            1.221424613699     4.970134064745     0.497556111450    12.000000000000
         C            4.893008229321     2.825187999512     0.495661602814    12.000000000000
         C           -1.226697008489    -3.543470997592     0.488517841035    12.000000000000
         C           -3.681818976526     0.709324966217     0.487976931906    12.000000000000
         C            3.693147101150    -3.542801341905     0.497535567751    12.000000000000
         C           -1.221432251994     4.970128297348     0.497739606822    12.000000000000
         C            6.134770972926     0.680547946591     0.495214709005    12.000000000000
         C            3.656788880610     4.972953243053     0.495403371874    12.000000000000
         C           -2.455126907733    -2.834215093576     0.503640469279    12.000000000000
         C           -3.681819179061    -0.709325703983     0.504154357023    12.000000000000
         C            4.893012617914    -2.825200106147     0.496272754710    12.000000000000
         C           -0.000001073113     5.650447365518     0.496508298116    12.000000000000
         C            6.134775112332    -0.680554854590     0.496480029521    12.000000000000
         C            2.478131482856     5.653576750817     0.496692151524    12.000000000000
         C            1.221422404738    -4.970127055448     0.494756614427    12.000000000000
         C           -3.693162383965     3.542796953677     0.494660241551    12.000000000000
         C           -1.221428520945    -4.970118304111     0.494643852594    12.000000000000
         C           -4.914521807942     1.427175446480     0.494521879463    12.000000000000
         C            3.656787019679    -4.972955226754     0.496853872408    12.000000000000
         C           -2.478138530106     5.653574422014     0.496976676533    12.000000000000
         C           -3.693141738564    -3.542790219494     0.497419441595    12.000000000000
         C           -4.914512483053    -1.427181000542     0.497452374364    12.000000000000
         C           -0.000006008926    -5.650438287528     0.496112793994    12.000000000000
         C           -4.893020484101     2.825188598404     0.495651520954    12.000000000000
         C            2.478125993298    -5.653573544403     0.495763271616    12.000000000000
         C           -3.656798710258     4.972956181527     0.495580052249    12.000000000000
         C           -4.892999478856    -2.825191767575     0.496118719012    12.000000000000
         C           -2.478128498083    -5.653566170521     0.495488083969    12.000000000000
         C           -6.134770503331     0.680548765741     0.495189157303    12.000000000000
         C           -3.656788833189    -4.972944023485     0.496639584592    12.000000000000
         C           -6.134765042913    -0.680553915997     0.496459553726    12.000000000000
         H            5.835288495816     3.369275894439     0.500020928477     1.007825032230
         H            7.073859172747     1.228217248385     0.495676352399     1.007825032230
         H            4.600663264174     5.512380801938     0.495908572626     1.007825032230
         H            5.835283387305    -3.369306057244     0.491818287395     1.007825032230
         H           -0.000012151306     6.738530673622     0.492159053108     1.007825032230
         H            7.073861171831    -1.228226943259     0.495971291427     1.007825032230
         H            2.473313731799     6.740684290880     0.496225430594     1.007825032230
         H            4.600668491381    -5.512376129691     0.496443875240     1.007825032230
         H           -2.473318680537     6.740681719092     0.496526777219     1.007825032230
         H           -0.000010268228    -6.738528176967     0.500642478979     1.007825032230
         H           -5.835301914343     3.369270949781     0.500156950625     1.007825032230
         H            2.473307923831    -6.740685374944     0.496333602041     1.007825032230
         H           -4.600674841208     5.512378026089     0.496073900950     1.007825032230
         H           -5.835279506835    -3.369288964294     0.491538981514     1.007825032230
         H           -2.473300347440    -6.740679078655     0.495884285497     1.007825032230
         H           -7.073857766768     1.228220472326     0.495592360918     1.007825032230
         H           -4.600673786085    -5.512362670301     0.496271567217     1.007825032230
         H           -7.073856934409    -1.228220632492     0.495876434960     1.007825032230

  Running in c1 symmetry.

  Rotational constants: A =      0.00188  B =      0.00183  C =      0.00109 [cm^-1]
  Rotational constants: A =     56.37317  B =     54.90747  C =     32.71081 [MHz]
  Nuclear repulsion = 8375.696421084692702

  Charge       = 1
  Multiplicity = 1
  Electrons    = 394
  Nalpha       = 197
  Nbeta        = 197

  ==> Algorithm <==

  SCF Algorithm Type is DF.
  DIIS enabled.
  MOM disabled.
  Fractional occupation disabled.
  Guess Type is SAD.
  Energy threshold   = 1.00e-08
  Density threshold  = 1.00e-08
  Integral threshold = 1.00e-12

  ==> Primary Basis <==

  Basis Set: JUN-CC-PVDZ
    Blend: JUN-CC-PVDZ
    Number of shells: 569
    Number of basis functions: 1233
    Number of Cartesian functions: 1294
    Spherical Harmonics?: true
    Max angular momentum: 2

   => Loading Basis Set <=

    Name: (JUN-CC-PVDZ AUX)
    Role: JKFIT
    Keyword: DF_BASIS_SCF
    atoms 1-2, 4-5, 10, 17-70 entry C          line   146 file /opt/software/pc2/EB-SW/software/PSI4/1.9-foss-2022a/share/psi4/basis/jun-cc-pvdz-jkfit.gbs 
    atoms 3, 6                entry N          line   202 file /opt/software/pc2/EB-SW/software/PSI4/1.9-foss-2022a/share/psi4/basis/jun-cc-pvdz-jkfit.gbs 
    atoms 7-9, 11-16, 71-88   entry H          line    70 file /opt/software/pc2/EB-SW/software/PSI4/1.9-foss-2022a/share/psi4/basis/jun-cc-pvdz-jkfit.gbs 

  ==> Integral Setup <==

  ==> DiskDFJK: Density-Fitted J/K Matrices <==

    J tasked:                  Yes
    K tasked:                  Yes
    wK tasked:                  No
    OpenMP threads:             16
    Integrals threads:          16
    Memory [MiB]:            34332
    Algorithm:                Core
    Integral Cache:           SAVE
    Schwarz Cutoff:          1E-12
    Fitting Condition:       1E-10

   => Auxiliary Basis Set <=

  Basis Set: (JUN-CC-PVDZ AUX)
    Blend: JUN-CC-PVDZ-JKFIT
    Number of shells: 1890
    Number of basis functions: 5440
    Number of Cartesian functions: 6226
    Spherical Harmonics?: true
    Max angular momentum: 3

  Minimum eigenvalue in the overlap matrix is 3.8522995572E-10.
  Reciprocal condition number of the overlap matrix is 1.5354365617E-11.
    Using canonical orthogonalization.
  Overall, 14 of 1233 possible MOs eliminated.


  ==> Pre-Iterations <==

  SCF Guess: Superposition of Atomic Densities via on-the-fly atomic UHF (no occupation information).

   -------------------------
    Irrep   Nso     Nmo    
   -------------------------
     A       1233    1219 
   -------------------------
    Total    1233    1219
   -------------------------

  ==> Iterations <==

                           Total Energy        Delta E     RMS |[F,P]|

   @DF-RHF iter SAD: -2366.06944907275056   -2.36607e+03   0.00000e+00 
   @DF-RHF iter   1: -2358.20906253106023    7.86039e+00   9.41097e-04 ADIIS/DIIS
   @DF-RHF iter   2: -2359.09784638733390   -8.88784e-01   3.16301e-04 ADIIS/DIIS
   @DF-RHF iter   3: -2359.18476058784881   -8.69142e-02   1.21159e-04 ADIIS/DIIS
   @DF-RHF iter   4: -2359.19792550855800   -1.31649e-02   4.58919e-05 DIIS
   @DF-RHF iter   5: -2359.19988137070368   -1.95586e-03   1.05955e-05 DIIS
   @DF-RHF iter   6: -2359.20007065899608   -1.89288e-04   5.77297e-06 DIIS
   @DF-RHF iter   7: -2359.20014862472408   -7.79657e-05   2.51009e-06 DIIS
   @DF-RHF iter   8: -2359.20017231552856   -2.36908e-05   1.18114e-06 DIIS
   @DF-RHF iter   9: -2359.20017815613892   -5.84061e-06   2.98206e-07 DIIS
   @DF-RHF iter  10: -2359.20017842039215   -2.64253e-07   1.14627e-07 DIIS
   @DF-RHF iter  11: -2359.20017844284303   -2.24509e-08   4.54068e-08 DIIS
   @DF-RHF iter  12: -2359.20017844739186   -4.54884e-09   2.24399e-08 DIIS
   @DF-RHF iter  13: -2359.20017844847189   -1.08002e-09   6.20222e-09 DIIS
  Energy and wave function converged.


  ==> Post-Iterations <==

    Orbital Energies [Eh]
    ---------------------

    Doubly Occupied:                                                      

       1A    -15.787854     2A    -15.787432     3A    -11.477825  
       4A    -11.419448     5A    -11.417892     6A    -11.403436  
       7A    -11.403394     8A    -11.354574     9A    -11.354231  
      10A    -11.353890    11A    -11.353122    12A    -11.352693  
      13A    -11.352319    14A    -11.346962    15A    -11.346940  
      16A    -11.346845    17A    -11.346822    18A    -11.345243  
      19A    -11.345086    20A    -11.343963    21A    -11.343954  
      22A    -11.342985    23A    -11.342939    24A    -11.342658  
      25A    -11.342454    26A    -11.342429    27A    -11.342324  
      28A    -11.341124    29A    -11.341048    30A    -11.340982  
      31A    -11.340918    32A    -11.340414    33A    -11.340408  
      34A    -11.340364    35A    -11.340347    36A    -11.339602  
      37A    -11.339590    38A    -11.339566    39A    -11.339538  
      40A    -11.338390    41A    -11.338302    42A    -11.338288  
      43A    -11.338199    44A    -11.333003    45A    -11.332845  
      46A    -11.332812    47A    -11.332760    48A    -11.331321  
      49A    -11.331236    50A    -11.330136    51A    -11.330127  
      52A    -11.328699    53A    -11.328689    54A    -11.328454  
      55A    -11.328449    56A    -11.328443    57A    -11.328407  
      58A    -11.326985    59A    -11.326979    60A    -11.326974  
      61A    -11.326929    62A     -1.532847    63A     -1.388403  
      64A     -1.335012    65A     -1.306480    66A     -1.304491  
      67A     -1.273099    68A     -1.272718    69A     -1.269117  
      70A     -1.238867    71A     -1.231653    72A     -1.222525  
      73A     -1.220861    74A     -1.195293    75A     -1.194205  
      76A     -1.194187    77A     -1.167335    78A     -1.166663  
      79A     -1.164222    80A     -1.146471    81A     -1.146463  
      82A     -1.143933    83A     -1.121482    84A     -1.109874  
      85A     -1.109368    86A     -1.108166    87A     -1.098360  
      88A     -1.092869    89A     -1.074910    90A     -1.070725  
      91A     -1.070471    92A     -1.043296    93A     -1.043092  
      94A     -0.978765    95A     -0.977381    96A     -0.977353  
      97A     -0.975455    98A     -0.970766    99A     -0.970475  
     100A     -0.965241   101A     -0.965125   102A     -0.952961  
     103A     -0.943150   104A     -0.916070   105A     -0.901240  
     106A     -0.899731   107A     -0.896335   108A     -0.895593  
     109A     -0.875342   110A     -0.874891   111A     -0.873645  
     112A     -0.831384   113A     -0.828942   114A     -0.817913  
     115A     -0.817356   116A     -0.812707   117A     -0.812657  
     118A     -0.806203   119A     -0.800156   120A     -0.780672  
     121A     -0.779889   122A     -0.776538   123A     -0.775688  
     124A     -0.775536   125A     -0.772257   126A     -0.747204  
     127A     -0.743065   128A     -0.741676   129A     -0.741310  
     130A     -0.737076   131A     -0.735368   132A     -0.730431  
     133A     -0.730343   134A     -0.720310   135A     -0.719775  
     136A     -0.712292   137A     -0.710613   138A     -0.710523  
     139A     -0.708941   140A     -0.691684   141A     -0.684741  
     142A     -0.682266   143A     -0.680748   144A     -0.679882  
     145A     -0.676475   146A     -0.676154   147A     -0.675833  
     148A     -0.674369   149A     -0.671254   150A     -0.663393  
     151A     -0.661279   152A     -0.653913   153A     -0.650391  
     154A     -0.649823   155A     -0.646552   156A     -0.646308  
     157A     -0.641921   158A     -0.634799   159A     -0.634395  
     160A     -0.621308   161A     -0.620384   162A     -0.618582  
     163A     -0.618463   164A     -0.611502   165A     -0.610948  
     166A     -0.604238   167A     -0.603534   168A     -0.579844  
     169A     -0.576167   170A     -0.573465   171A     -0.570061  
     172A     -0.567587   173A     -0.563498   174A     -0.563290  
     175A     -0.557471   176A     -0.556941   177A     -0.552969  
     178A     -0.535868   179A     -0.535352   180A     -0.519340  
     181A     -0.519201   182A     -0.489440   183A     -0.489053  
     184A     -0.487119   185A     -0.482390   186A     -0.454886  
     187A     -0.454557   188A     -0.431910   189A     -0.428397  
     190A     -0.426261   191A     -0.425888   192A     -0.391562  
     193A     -0.376020   194A     -0.369976   195A     -0.369783  
     196A     -0.307933   197A     -0.307218  

    Virtual:                                                              

     198A     -0.068771   199A     -0.068375   200A     -0.035121  
     201A     -0.028439   202A     -0.026202   203A     -0.020547  
     204A     -0.020195   205A     -0.016865   206A     -0.010888  
     207A     -0.010663   208A     -0.009749   209A     -0.007693  
     210A     -0.004982   211A     -0.000160   212A      0.000009  
     213A      0.001095   214A      0.001799   215A      0.004425  
     216A      0.004815   217A      0.007475   218A      0.010223  
     219A      0.010418   220A      0.013314   221A      0.014472  
     222A      0.016994   223A      0.017116   224A      0.019982  
     225A      0.020921   226A      0.025508   227A      0.032487  
     228A      0.032576   229A      0.033524   230A      0.034178  
     231A      0.035301   232A      0.035613   233A      0.038969  
     234A      0.042210   235A      0.042518   236A      0.044434  
     237A      0.046641   238A      0.047829   239A      0.047977  
     240A      0.051463   241A      0.052671   242A      0.058749  
     243A      0.058847   244A      0.065692   245A      0.067545  
     246A      0.069032   247A      0.069705   248A      0.072579  
     249A      0.073924   250A      0.074450   251A      0.075055  
     252A      0.076555   253A      0.080142   254A      0.083195  
     255A      0.084180   256A      0.084664   257A      0.086634  
     258A      0.088456   259A      0.094299   260A      0.097155  
     261A      0.097523   262A      0.099497   263A      0.100511  
     264A      0.101054   265A      0.104150   266A      0.105889  
     267A      0.106682   268A      0.107885   269A      0.109740  
     270A      0.114798   271A      0.115553   272A      0.117777  
     273A      0.119093   274A      0.119254   275A      0.119492  
     276A      0.123371   277A      0.124897   278A      0.125437  
     279A      0.128908   280A      0.135544   281A      0.136405  
     282A      0.140791   283A      0.141251   284A      0.141417  
     285A      0.143045   286A      0.143963   287A      0.146126  
     288A      0.146398   289A      0.147227   290A      0.148766  
     291A      0.148989   292A      0.149597   293A      0.149946  
     294A      0.150579   295A      0.152110   296A      0.153690  
     297A      0.157431   298A      0.159268   299A      0.159872  
     300A      0.160880   301A      0.163306   302A      0.164311  
     303A      0.165212   304A      0.165630   305A      0.168382  
     306A      0.168743   307A      0.172743   308A      0.173368  
     309A      0.174788   310A      0.176892   311A      0.178408  
     312A      0.178678   313A      0.180673   314A      0.186025  
     315A      0.186272   316A      0.187326   317A      0.187928  
     318A      0.189069   319A      0.189131   320A      0.190623  
     321A      0.194469   322A      0.194779   323A      0.195156  
     324A      0.195578   325A      0.196646   326A      0.198866  
     327A      0.200460   328A      0.202187   329A      0.204729  
     330A      0.205054   331A      0.206486   332A      0.209273  
     333A      0.209950   334A      0.212624   335A      0.214460  
     336A      0.217512   337A      0.218600   338A      0.221487  
     339A      0.224558   340A      0.230415   341A      0.230661  
     342A      0.231601   343A      0.235476   344A      0.236108  
     345A      0.237053   346A      0.237388   347A      0.238951  
     348A      0.239458   349A      0.240143   350A      0.240615  
     351A      0.241674   352A      0.242379   353A      0.242640  
     354A      0.243879   355A      0.244476   356A      0.246369  
     357A      0.246923   358A      0.249419   359A      0.250267  
     360A      0.251379   361A      0.252414   362A      0.254364  
     363A      0.255469   364A      0.256487   365A      0.258185  
     366A      0.261260   367A      0.261818   368A      0.262932  
     369A      0.264749   370A      0.266189   371A      0.267977  
     372A      0.271314   373A      0.272485   374A      0.273598  
     375A      0.276337   376A      0.278958   377A      0.279595  
     378A      0.281115   379A      0.281136   380A      0.283445  
     381A      0.286432   382A      0.286533   383A      0.288167  
     384A      0.288540   385A      0.291613   386A      0.291972  
     387A      0.293818   388A      0.295540   389A      0.295932  
     390A      0.296876   391A      0.298568   392A      0.299954  
     393A      0.302959   394A      0.304124   395A      0.306159  
     396A      0.306897   397A      0.308347   398A      0.309536  
     399A      0.312622   400A      0.313743   401A      0.314272  
     402A      0.314931   403A      0.315698   404A      0.318811  
     405A      0.320124   406A      0.321907   407A      0.324578  
     408A      0.326430   409A      0.327141   410A      0.329107  
     411A      0.330014   412A      0.331730   413A      0.333145  
     414A      0.333633   415A      0.334440   416A      0.335425  
     417A      0.336157   418A      0.337483   419A      0.337557  
     420A      0.339002   421A      0.340239   422A      0.341190  
     423A      0.342112   424A      0.342646   425A      0.345518  
     426A      0.347449   427A      0.349319   428A      0.350382  
     429A      0.351640   430A      0.354836   431A      0.357211  
     432A      0.357925   433A      0.363152   434A      0.364232  
     435A      0.365393   436A      0.366542   437A      0.368397  
     438A      0.369452   439A      0.369636   440A      0.371533  
     441A      0.373143   442A      0.374843   443A      0.377028  
     444A      0.379683   445A      0.381245   446A      0.381807  
     447A      0.382810   448A      0.383294   449A      0.385328  
     450A      0.386029   451A      0.386840   452A      0.388295  
     453A      0.392487   454A      0.393321   455A      0.395575  
     456A      0.398527   457A      0.401099   458A      0.402039  
     459A      0.404660   460A      0.405769   461A      0.407205  
     462A      0.410138   463A      0.415667   464A      0.416803  
     465A      0.417387   466A      0.418143   467A      0.419135  
     468A      0.419273   469A      0.420084   470A      0.422092  
     471A      0.422756   472A      0.423675   473A      0.430465  
     474A      0.430898   475A      0.432720   476A      0.435342  
     477A      0.435991   478A      0.443663   479A      0.443728  
     480A      0.444719   481A      0.446400   482A      0.448636  
     483A      0.450858   484A      0.458144   485A      0.458726  
     486A      0.463437   487A      0.466125   488A      0.466570  
     489A      0.468162   490A      0.470210   491A      0.471643  
     492A      0.472813   493A      0.474351   494A      0.474738  
     495A      0.477507   496A      0.478276   497A      0.479286  
     498A      0.481096   499A      0.482659   500A      0.485311  
     501A      0.489576   502A      0.490079   503A      0.491846  
     504A      0.493454   505A      0.507405   506A      0.509214  
     507A      0.509704   508A      0.512934   509A      0.515122  
     510A      0.517579   511A      0.519613   512A      0.520300  
     513A      0.536246   514A      0.537646   515A      0.538435  
     516A      0.539902   517A      0.540119   518A      0.543679  
     519A      0.547495   520A      0.558255   521A      0.558762  
     522A      0.567374   523A      0.571213   524A      0.574373  
     525A      0.579842   526A      0.580703   527A      0.589927  
     528A      0.589973   529A      0.596994   530A      0.597472  
     531A      0.598650   532A      0.608845   533A      0.634614  
     534A      0.635333   535A      0.660544   536A      0.661507  
     537A      0.663588   538A      0.664684   539A      0.665133  
     540A      0.666064   541A      0.676771   542A      0.677672  
     543A      0.686975   544A      0.690005   545A      0.710496  
     546A      0.713270   547A      0.717946   548A      0.720062  
     549A      0.731172   550A      0.734216   551A      0.736607  
     552A      0.739063   553A      0.744967   554A      0.746383  
     555A      0.748142   556A      0.750380   557A      0.750739  
     558A      0.752972   559A      0.759793   560A      0.763626  
     561A      0.768007   562A      0.769494   563A      0.771805  
     564A      0.775314   565A      0.776235   566A      0.783750  
     567A      0.784795   568A      0.786295   569A      0.790165  
     570A      0.794554   571A      0.795946   572A      0.800237  
     573A      0.801286   574A      0.806440   575A      0.810041  
     576A      0.811568   577A      0.813261   578A      0.813515  
     579A      0.817047   580A      0.820525   581A      0.822416  
     582A      0.826141   583A      0.828107   584A      0.830151  
     585A      0.832644   586A      0.833432   587A      0.837355  
     588A      0.838880   589A      0.840308   590A      0.842243  
     591A      0.842864   592A      0.844843   593A      0.846998  
     594A      0.847939   595A      0.851857   596A      0.852506  
     597A      0.853320   598A      0.858138   599A      0.858798  
     600A      0.860675   601A      0.863253   602A      0.866942  
     603A      0.868448   604A      0.870605   605A      0.874426  
     606A      0.876981   607A      0.877766   608A      0.879892  
     609A      0.880989   610A      0.885812   611A      0.887606  
     612A      0.888040   613A      0.890770   614A      0.891742  
     615A      0.894202   616A      0.897001   617A      0.897806  
     618A      0.899086   619A      0.901156   620A      0.902777  
     621A      0.904865   622A      0.906660   623A      0.913402  
     624A      0.916684   625A      0.918987   626A      0.920571  
     627A      0.923526   628A      0.927241   629A      0.931212  
     630A      0.934112   631A      0.939760   632A      0.940365  
     633A      0.941882   634A      0.944252   635A      0.946701  
     636A      0.947093   637A      0.948618   638A      0.951102  
     639A      0.951801   640A      0.956258   641A      0.957426  
     642A      0.961725   643A      0.962636   644A      0.963422  
     645A      0.965177   646A      0.965535   647A      0.966805  
     648A      0.967399   649A      0.968512   650A      0.972193  
     651A      0.972802   652A      0.974981   653A      0.976786  
     654A      0.978175   655A      0.979574   656A      0.981273  
     657A      0.983010   658A      0.985100   659A      0.986701  
     660A      0.989788   661A      0.991911   662A      0.999121  
     663A      1.003965   664A      1.005314   665A      1.007175  
     666A      1.009437   667A      1.010238   668A      1.011556  
     669A      1.013234   670A      1.015313   671A      1.018614  
     672A      1.021090   673A      1.021164   674A      1.022924  
     675A      1.023833   676A      1.024643   677A      1.028754  
     678A      1.031451   679A      1.034405   680A      1.035498  
     681A      1.035914   682A      1.037189   683A      1.040091  
     684A      1.041842   685A      1.043363   686A      1.044365  
     687A      1.046864   688A      1.050122   689A      1.054298  
     690A      1.054892   691A      1.060557   692A      1.062747  
     693A      1.066005   694A      1.070022   695A      1.072014  
     696A      1.075116   697A      1.077873   698A      1.080477  
     699A      1.084080   700A      1.088267   701A      1.090643  
     702A      1.093430   703A      1.094025   704A      1.097127  
     705A      1.101000   706A      1.103755   707A      1.104833  
     708A      1.112368   709A      1.113575   710A      1.118355  
     711A      1.120495   712A      1.121821   713A      1.123427  
     714A      1.130024   715A      1.133251   716A      1.136960  
     717A      1.137206   718A      1.142576   719A      1.143826  
     720A      1.146070   721A      1.150541   722A      1.159282  
     723A      1.160219   724A      1.162803   725A      1.166163  
     726A      1.169275   727A      1.171442   728A      1.179657  
     729A      1.182079   730A      1.182443   731A      1.182859  
     732A      1.183717   733A      1.185445   734A      1.186964  
     735A      1.190562   736A      1.191912   737A      1.196440  
     738A      1.197921   739A      1.201445   740A      1.210310  
     741A      1.212054   742A      1.216639   743A      1.216652  
     744A      1.220535   745A      1.221003   746A      1.221158  
     747A      1.222130   748A      1.230825   749A      1.235703  
     750A      1.238385   751A      1.239012   752A      1.241947  
     753A      1.246205   754A      1.247955   755A      1.250396  
     756A      1.252597   757A      1.253874   758A      1.256692  
     759A      1.263035   760A      1.266029   761A      1.269406  
     762A      1.269628   763A      1.271933   764A      1.272463  
     765A      1.273930   766A      1.279229   767A      1.286521  
     768A      1.288250   769A      1.291776   770A      1.292491  
     771A      1.297179   772A      1.300479   773A      1.301684  
     774A      1.308694   775A      1.311795   776A      1.317503  
     777A      1.325880   778A      1.327795   779A      1.329341  
     780A      1.331806   781A      1.337610   782A      1.339508  
     783A      1.342606   784A      1.344064   785A      1.345535  
     786A      1.347302   787A      1.352077   788A      1.356514  
     789A      1.358655   790A      1.364341   791A      1.366175  
     792A      1.368770   793A      1.370372   794A      1.371174  
     795A      1.375335   796A      1.376455   797A      1.379315  
     798A      1.384315   799A      1.386777   800A      1.389704  
     801A      1.394861   802A      1.405945   803A      1.412728  
     804A      1.430835   805A      1.438884   806A      1.440043  
     807A      1.442713   808A      1.447925   809A      1.458580  
     810A      1.466179   811A      1.466431   812A      1.474613  
     813A      1.500739   814A      1.502670   815A      1.507839  
     816A      1.515951   817A      1.520453   818A      1.521920  
     819A      1.526546   820A      1.527592   821A      1.532825  
     822A      1.535512   823A      1.536055   824A      1.539061  
     825A      1.542092   826A      1.546521   827A      1.550604  
     828A      1.552165   829A      1.558289   830A      1.563868  
     831A      1.564891   832A      1.565953   833A      1.568157  
     834A      1.572418   835A      1.574797   836A      1.576343  
     837A      1.576743   838A      1.584632   839A      1.586110  
     840A      1.589834   841A      1.590770   842A      1.592995  
     843A      1.597326   844A      1.598004   845A      1.602426  
     846A      1.603852   847A      1.606848   848A      1.609659  
     849A      1.615671   850A      1.617461   851A      1.617703  
     852A      1.618250   853A      1.624379   854A      1.625357  
     855A      1.627982   856A      1.632746   857A      1.636200  
     858A      1.640515   859A      1.644279   860A      1.652745  
     861A      1.655544   862A      1.663045   863A      1.669409  
     864A      1.670267   865A      1.684409   866A      1.684886  
     867A      1.686985   868A      1.688082   869A      1.693088  
     870A      1.697315   871A      1.704210   872A      1.711322  
     873A      1.714570   874A      1.726118   875A      1.731107  
     876A      1.732834   877A      1.733907   878A      1.738825  
     879A      1.741697   880A      1.743195   881A      1.751012  
     882A      1.754330   883A      1.755350   884A      1.760364  
     885A      1.760895   886A      1.770748   887A      1.774069  
     888A      1.780727   889A      1.781106   890A      1.784079  
     891A      1.787175   892A      1.788964   893A      1.792425  
     894A      1.795210   895A      1.800828   896A      1.803093  
     897A      1.813866   898A      1.817297   899A      1.819802  
     900A      1.821278   901A      1.824399   902A      1.826957  
     903A      1.829127   904A      1.830110   905A      1.830925  
     906A      1.835261   907A      1.836426   908A      1.837241  
     909A      1.839029   910A      1.841966   911A      1.844178  
     912A      1.848130   913A      1.856585   914A      1.857809  
     915A      1.860187   916A      1.863587   917A      1.866744  
     918A      1.868667   919A      1.870245   920A      1.872709  
     921A      1.874368   922A      1.876321   923A      1.877800  
     924A      1.878486   925A      1.882687   926A      1.886422  
     927A      1.894459   928A      1.906499   929A      1.910102  
     930A      1.913575   931A      1.915061   932A      1.915411  
     933A      1.916767   934A      1.919158   935A      1.920642  
     936A      1.926124   937A      1.928340   938A      1.930673  
     939A      1.933095   940A      1.935817   941A      1.938067  
     942A      1.943094   943A      1.946754   944A      1.948060  
     945A      1.951059   946A      1.951706   947A      1.954724  
     948A      1.956185   949A      1.961208   950A      1.961302  
     951A      1.968072   952A      1.970498   953A      1.973106  
     954A      1.977058   955A      1.980655   956A      1.983803  
     957A      1.985804   958A      1.988079   959A      1.988330  
     960A      1.993166   961A      1.994628   962A      1.997525  
     963A      1.998597   964A      2.005391   965A      2.007394  
     966A      2.008536   967A      2.012529   968A      2.015950  
     969A      2.017261   970A      2.020718   971A      2.023609  
     972A      2.024914   973A      2.026181   974A      2.027759  
     975A      2.029856   976A      2.032650   977A      2.034642  
     978A      2.035950   979A      2.037729   980A      2.040189  
     981A      2.040585   982A      2.042000   983A      2.044261  
     984A      2.047830   985A      2.048547   986A      2.051617  
     987A      2.053736   988A      2.056769   989A      2.058637  
     990A      2.059962   991A      2.061632   992A      2.061862  
     993A      2.066285   994A      2.068768   995A      2.071146  
     996A      2.077140   997A      2.081157   998A      2.083979  
     999A      2.086102  1000A      2.089694  1001A      2.092472  
    1002A      2.100909  1003A      2.104534  1004A      2.108010  
    1005A      2.114307  1006A      2.115747  1007A      2.118768  
    1008A      2.121902  1009A      2.126272  1010A      2.127968  
    1011A      2.132754  1012A      2.136829  1013A      2.137526  
    1014A      2.140542  1015A      2.145280  1016A      2.148321  
    1017A      2.153217  1018A      2.161266  1019A      2.165880  
    1020A      2.167605  1021A      2.168511  1022A      2.168982  
    1023A      2.171801  1024A      2.172269  1025A      2.174556  
    1026A      2.177290  1027A      2.184693  1028A      2.186812  
    1029A      2.189598  1030A      2.191138  1031A      2.193242  
    1032A      2.194416  1033A      2.197166  1034A      2.204949  
    1035A      2.215224  1036A      2.224395  1037A      2.227083  
    1038A      2.231681  1039A      2.236151  1040A      2.236465  
    1041A      2.246266  1042A      2.247931  1043A      2.254260  
    1044A      2.258333  1045A      2.265683  1046A      2.266767  
    1047A      2.270661  1048A      2.273791  1049A      2.275339  
    1050A      2.277023  1051A      2.280247  1052A      2.286979  
    1053A      2.289706  1054A      2.293070  1055A      2.302208  
    1056A      2.315217  1057A      2.336438  1058A      2.337788  
    1059A      2.342182  1060A      2.342554  1061A      2.342952  
    1062A      2.347316  1063A      2.356648  1064A      2.360270  
    1065A      2.379809  1066A      2.388213  1067A      2.392203  
    1068A      2.404648  1069A      2.407895  1070A      2.408533  
    1071A      2.414375  1072A      2.416502  1073A      2.422352  
    1074A      2.429779  1075A      2.445178  1076A      2.449002  
    1077A      2.457794  1078A      2.467961  1079A      2.468386  
    1080A      2.468648  1081A      2.472953  1082A      2.478182  
    1083A      2.478828  1084A      2.479177  1085A      2.479808  
    1086A      2.482877  1087A      2.491423  1088A      2.491509  
    1089A      2.500421  1090A      2.501237  1091A      2.508170  
    1092A      2.508972  1093A      2.509383  1094A      2.512821  
    1095A      2.524068  1096A      2.532254  1097A      2.542861  
    1098A      2.546236  1099A      2.549935  1100A      2.550853  
    1101A      2.554168  1102A      2.565319  1103A      2.565595  
    1104A      2.572509  1105A      2.576765  1106A      2.583388  
    1107A      2.592840  1108A      2.596951  1109A      2.597896  
    1110A      2.607888  1111A      2.610416  1112A      2.611558  
    1113A      2.620189  1114A      2.625595  1115A      2.626996  
    1116A      2.628983  1117A      2.630409  1118A      2.635608  
    1119A      2.637078  1120A      2.643762  1121A      2.644931  
    1122A      2.668145  1123A      2.679062  1124A      2.680549  
    1125A      2.690627  1126A      2.706799  1127A      2.712592  
    1128A      2.713441  1129A      2.718571  1130A      2.745322  
    1131A      2.747066  1132A      2.748727  1133A      2.755423  
    1134A      2.765390  1135A      2.768452  1136A      2.771052  
    1137A      2.773666  1138A      2.775234  1139A      2.780136  
    1140A      2.782312  1141A      2.799551  1142A      2.803300  
    1143A      2.814196  1144A      2.826518  1145A      2.838898  
    1146A      2.841957  1147A      2.843674  1148A      2.849792  
    1149A      2.859109  1150A      2.862067  1151A      2.875422  
    1152A      2.877677  1153A      2.886228  1154A      2.908013  
    1155A      2.911530  1156A      2.937037  1157A      2.942804  
    1158A      2.969744  1159A      2.976526  1160A      2.977668  
    1161A      2.979557  1162A      2.984198  1163A      2.991701  
    1164A      2.998791  1165A      3.040073  1166A      3.041629  
    1167A      3.051699  1168A      3.055257  1169A      3.056040  
    1170A      3.061115  1171A      3.065485  1172A      3.068529  
    1173A      3.069029  1174A      3.072087  1175A      3.073261  
    1176A      3.078516  1177A      3.080344  1178A      3.087608  
    1179A      3.091577  1180A      3.092105  1181A      3.108857  
    1182A      3.115985  1183A      3.131281  1184A      3.135032  
    1185A      3.151456  1186A      3.159722  1187A      3.174312  
    1188A      3.199453  1189A      3.200339  1190A      3.204469  
    1191A      3.213036  1192A      3.219322  1193A      3.337371  
    1194A      3.337778  1195A      3.357529  1196A      3.405948  
    1197A      3.409066  1198A      3.475963  1199A      3.505595  
    1200A      3.506428  1201A      3.550839  1202A      3.551870  
    1203A      3.556803  1204A      3.563120  1205A      3.600101  
    1206A      3.611948  1207A      3.613378  1208A      3.709047  
    1209A      3.711890  1210A      3.730648  1211A      3.791661  
    1212A      3.792698  1213A      3.834021  1214A      3.834326  
    1215A      3.899788  1216A      3.926727  1217A      4.001451  
    1218A      4.017219  1219A      4.121833  

    Final Occupation by Irrep:
              A 
    DOCC [   197 ]
    NA   [   197 ]
    NB   [   197 ]

  @DF-RHF Final Energy: -2359.20017844847189

   => Energetics <=

    Nuclear Repulsion Energy =           8375.6964210846927017
    One-Electron Energy =              -19849.9883193970163120
    Two-Electron Energy =                9115.0917198638526315
    Total Energy =                      -2359.2001784484709788

Computation Completed


Properties will be evaluated at   0.000000,   0.000000,   0.000000 [a0]

Properties computed using the SCF density matrix


 Multipole Moments:

 ------------------------------------------------------------------------------------
     Multipole            Electronic (a.u.)      Nuclear  (a.u.)        Total (a.u.)
 ------------------------------------------------------------------------------------

 L = 1.  Multiply by 2.5417464519 to convert [e a0] to [Debye]
 Dipole X            :         -0.0031499            0.0006313           -0.0025186
 Dipole Y            :         -0.0563980            0.0560211           -0.0003769
 Dipole Z            :         14.2894873          -18.4426655           -4.1531782
 Magnitude           :                                                    4.1531790

 ------------------------------------------------------------------------------------

*** tstop() called on n2cn0366 at Sat Feb 10 12:56:47 2024
Module time:
	user time   =    5864.01 seconds =      97.73 minutes
	system time =     203.04 seconds =       3.38 minutes
	total time  =        477 seconds =       7.95 minutes
Total time:
	user time   =    5864.01 seconds =      97.73 minutes
	system time =     203.04 seconds =       3.38 minutes
	total time  =        477 seconds =       7.95 minutes

  //>>>>>>>>>>>>>>>>>>>>>>>>>>>>>>>>>>>//
  //            Monomer A HF           //
  //<<<<<<<<<<<<<<<<<<<<<<<<<<<<<<<<<<<//

   => Libint2 <=

    Primary   basis highest AM E, G, H:  5, 4, 3
    Auxiliary basis highest AM E, G, H:  6, 5, 4
    Onebody   basis highest AM E, G, H:  6, 5, 4
    Solid Harmonics ordering:            gaussian

*** tstart() called on n2cn0366
*** at Sat Feb 10 12:56:47 2024

   => Loading Basis Set <=

    Name: JUN-CC-PVDZ
    Role: ORBITAL
    Keyword: BASIS
    atoms 1-2, 4-5, 10, 17-70 entry C          line   164 file /opt/software/pc2/EB-SW/software/PSI4/1.9-foss-2022a/share/psi4/basis/jun-cc-pvdz.gbs 
    atoms 3, 6                entry N          line   198 file /opt/software/pc2/EB-SW/software/PSI4/1.9-foss-2022a/share/psi4/basis/jun-cc-pvdz.gbs 
    atoms 7-9, 11-16, 71-88   entry H          line    36 file /opt/software/pc2/EB-SW/software/PSI4/1.9-foss-2022a/share/psi4/basis/jun-cc-pvdz.gbs 


         ---------------------------------------------------------
                                   SCF
               by Justin Turney, Rob Parrish, Andy Simmonett
                          and Daniel G. A. Smith
                              RHF Reference
                       16 Threads,  45776 MiB Core
         ---------------------------------------------------------

  ==> Geometry <==

    Molecular point group: c1
    Full point group: C1

    Geometry (in Angstrom), charge = 1, multiplicity = 1:

       Center              X                  Y                   Z               Mass       
    ------------   -----------------  -----------------  -----------------  -----------------
         C            0.680066520158    -0.008042372515    -4.619875199228    12.000000000000
         C           -0.680504479842    -0.006014372515    -4.619491199228    12.000000000000
         N           -1.085635479842    -0.005016372515    -3.301167199228    14.003074004430
         C            0.000107520158    -0.001740372515    -2.519766199228    12.000000000000
         C           -2.477365479842     0.044389627485    -2.833188199228    12.000000000000
         N            1.085221520158    -0.005016372515    -3.301167199228    14.003074004430
         H            1.385145520158    -0.015870372515    -5.437314199228     1.007825032230
         H           -1.385302479842    -0.006204372515    -5.437160199228     1.007825032230
         H           -0.000009479842     0.000006627485    -1.438677199228     1.007825032230
         C            2.478116520158    -0.021908372515    -2.836069199228    12.000000000000
         H            2.490591520158     0.005436627485    -1.745816199228     1.007825032230
         H            2.967027520158    -0.935354372515    -3.183245199228     1.007825032230
         H            3.001427520158     0.853574627485    -3.227541199228     1.007825032230
         H           -2.857359479842     1.066460627485    -2.913147199228     1.007825032230
         H           -3.082679479842    -0.625694372515    -3.446252199228     1.007825032230
         H           -2.518128479842    -0.282594372515    -1.793240199228     1.007825032230
      Gh(C)           1.225311895423     0.707538288405     0.502191428055    12.000000000000
      Gh(C)           1.225323856051    -0.707538895085     0.489860618485    12.000000000000
      Gh(C)          -0.000006153932     1.414965913575     0.489326994964    12.000000000000
      Gh(C)           2.456448753949     1.418327886663     0.505078285455    12.000000000000
      Gh(C)           0.000010827279    -1.414976499150     0.499526552289    12.000000000000
      Gh(C)          -1.225300948908     0.707545373469     0.504442948378    12.000000000000
      Gh(C)           2.456437755320    -1.418323304396     0.487615461628    12.000000000000
      Gh(C)          -0.000001332978     2.836801030766     0.486923444830    12.000000000000
      Gh(C)           3.681826697470     0.709317955486     0.487964251426    12.000000000000
      Gh(C)           2.455120048865     2.834223660974     0.487861694465    12.000000000000
      Gh(C)           3.681821105219    -0.709333839944     0.504036735444    12.000000000000
      Gh(C)          -1.225313598688    -0.707527516059     0.490933379912    12.000000000000
      Gh(C)           1.226699581202     3.543469483479     0.504220767375    12.000000000000
      Gh(C)           0.000004784858    -2.836782139751     0.504374719910    12.000000000000
      Gh(C)          -2.456436032848     1.418316917770     0.504478344224    12.000000000000
      Gh(C)           2.455123417779    -2.834230029103     0.503884827077    12.000000000000
      Gh(C)          -1.226714364589     3.543469063235     0.504324100594    12.000000000000
      Gh(C)           4.914517295202     1.427172871975     0.494444934456    12.000000000000
      Gh(C)           3.693150191476     3.542795292030     0.494494734092    12.000000000000
      Gh(C)          -2.456437600068    -1.418313281354     0.487590423504    12.000000000000
      Gh(C)           1.226704841943    -3.543474242421     0.488250636625    12.000000000000
      Gh(C)          -2.455125398508     2.834216662119     0.487868070812    12.000000000000
      Gh(C)           4.914524380782    -1.427186910459     0.497417677190    12.000000000000
      Gh(C)           1.221424613699     4.970134064745     0.497556111450    12.000000000000
      Gh(C)           4.893008229321     2.825187999512     0.495661602814    12.000000000000
      Gh(C)          -1.226697008489    -3.543470997592     0.488517841035    12.000000000000
      Gh(C)          -3.681818976526     0.709324966217     0.487976931906    12.000000000000
      Gh(C)           3.693147101150    -3.542801341905     0.497535567751    12.000000000000
      Gh(C)          -1.221432251994     4.970128297348     0.497739606822    12.000000000000
      Gh(C)           6.134770972926     0.680547946591     0.495214709005    12.000000000000
      Gh(C)           3.656788880610     4.972953243053     0.495403371874    12.000000000000
      Gh(C)          -2.455126907733    -2.834215093576     0.503640469279    12.000000000000
      Gh(C)          -3.681819179061    -0.709325703983     0.504154357023    12.000000000000
      Gh(C)           4.893012617914    -2.825200106147     0.496272754710    12.000000000000
      Gh(C)          -0.000001073113     5.650447365518     0.496508298116    12.000000000000
      Gh(C)           6.134775112332    -0.680554854590     0.496480029521    12.000000000000
      Gh(C)           2.478131482856     5.653576750817     0.496692151524    12.000000000000
      Gh(C)           1.221422404738    -4.970127055448     0.494756614427    12.000000000000
      Gh(C)          -3.693162383965     3.542796953677     0.494660241551    12.000000000000
      Gh(C)          -1.221428520945    -4.970118304111     0.494643852594    12.000000000000
      Gh(C)          -4.914521807942     1.427175446480     0.494521879463    12.000000000000
      Gh(C)           3.656787019679    -4.972955226754     0.496853872408    12.000000000000
      Gh(C)          -2.478138530106     5.653574422014     0.496976676533    12.000000000000
      Gh(C)          -3.693141738564    -3.542790219494     0.497419441595    12.000000000000
      Gh(C)          -4.914512483053    -1.427181000542     0.497452374364    12.000000000000
      Gh(C)          -0.000006008926    -5.650438287528     0.496112793994    12.000000000000
      Gh(C)          -4.893020484101     2.825188598404     0.495651520954    12.000000000000
      Gh(C)           2.478125993298    -5.653573544403     0.495763271616    12.000000000000
      Gh(C)          -3.656798710258     4.972956181527     0.495580052249    12.000000000000
      Gh(C)          -4.892999478856    -2.825191767575     0.496118719012    12.000000000000
      Gh(C)          -2.478128498083    -5.653566170521     0.495488083969    12.000000000000
      Gh(C)          -6.134770503331     0.680548765741     0.495189157303    12.000000000000
      Gh(C)          -3.656788833189    -4.972944023485     0.496639584592    12.000000000000
      Gh(C)          -6.134765042913    -0.680553915997     0.496459553726    12.000000000000
      Gh(H)           5.835288495816     3.369275894439     0.500020928477     1.007825032230
      Gh(H)           7.073859172747     1.228217248385     0.495676352399     1.007825032230
      Gh(H)           4.600663264174     5.512380801938     0.495908572626     1.007825032230
      Gh(H)           5.835283387305    -3.369306057244     0.491818287395     1.007825032230
      Gh(H)          -0.000012151306     6.738530673622     0.492159053108     1.007825032230
      Gh(H)           7.073861171831    -1.228226943259     0.495971291427     1.007825032230
      Gh(H)           2.473313731799     6.740684290880     0.496225430594     1.007825032230
      Gh(H)           4.600668491381    -5.512376129691     0.496443875240     1.007825032230
      Gh(H)          -2.473318680537     6.740681719092     0.496526777219     1.007825032230
      Gh(H)          -0.000010268228    -6.738528176967     0.500642478979     1.007825032230
      Gh(H)          -5.835301914343     3.369270949781     0.500156950625     1.007825032230
      Gh(H)           2.473307923831    -6.740685374944     0.496333602041     1.007825032230
      Gh(H)          -4.600674841208     5.512378026089     0.496073900950     1.007825032230
      Gh(H)          -5.835279506835    -3.369288964294     0.491538981514     1.007825032230
      Gh(H)          -2.473300347440    -6.740679078655     0.495884285497     1.007825032230
      Gh(H)          -7.073857766768     1.228220472326     0.495592360918     1.007825032230
      Gh(H)          -4.600673786085    -5.512362670301     0.496271567217     1.007825032230
      Gh(H)          -7.073856934409    -1.228220632492     0.495876434960     1.007825032230

  Running in c1 symmetry.

  Rotational constants: A =      0.00188  B =      0.00183  C =      0.00109 [cm^-1]
  Rotational constants: A =     56.37317  B =     54.90747  C =     32.71081 [MHz]
  Nuclear repulsion =  306.774908447733026

  Charge       = 1
  Multiplicity = 1
  Electrons    = 52
  Nalpha       = 26
  Nbeta        = 26

  ==> Algorithm <==

  SCF Algorithm Type is DF.
  DIIS enabled.
  MOM disabled.
  Fractional occupation disabled.
  Guess Type is SAD.
  Energy threshold   = 1.00e-08
  Density threshold  = 1.00e-08
  Integral threshold = 1.00e-12

  ==> Primary Basis <==

  Basis Set: JUN-CC-PVDZ
    Blend: JUN-CC-PVDZ
    Number of shells: 569
    Number of basis functions: 1233
    Number of Cartesian functions: 1294
    Spherical Harmonics?: true
    Max angular momentum: 2

   => Loading Basis Set <=

    Name: (JUN-CC-PVDZ AUX)
    Role: JKFIT
    Keyword: DF_BASIS_SCF
    atoms 1-2, 4-5, 10, 17-70 entry C          line   146 file /opt/software/pc2/EB-SW/software/PSI4/1.9-foss-2022a/share/psi4/basis/jun-cc-pvdz-jkfit.gbs 
    atoms 3, 6                entry N          line   202 file /opt/software/pc2/EB-SW/software/PSI4/1.9-foss-2022a/share/psi4/basis/jun-cc-pvdz-jkfit.gbs 
    atoms 7-9, 11-16, 71-88   entry H          line    70 file /opt/software/pc2/EB-SW/software/PSI4/1.9-foss-2022a/share/psi4/basis/jun-cc-pvdz-jkfit.gbs 

  ==> Integral Setup <==

  ==> DiskDFJK: Density-Fitted J/K Matrices <==

    J tasked:                  Yes
    K tasked:                  Yes
    wK tasked:                  No
    OpenMP threads:             16
    Integrals threads:          16
    Memory [MiB]:            34332
    Algorithm:                Core
    Integral Cache:           LOAD
    Schwarz Cutoff:          1E-12
    Fitting Condition:       1E-10

   => Auxiliary Basis Set <=

  Basis Set: (JUN-CC-PVDZ AUX)
    Blend: JUN-CC-PVDZ-JKFIT
    Number of shells: 1890
    Number of basis functions: 5440
    Number of Cartesian functions: 6226
    Spherical Harmonics?: true
    Max angular momentum: 3

  Minimum eigenvalue in the overlap matrix is 3.8522995572E-10.
  Reciprocal condition number of the overlap matrix is 1.5354365617E-11.
    Using canonical orthogonalization.
  Overall, 14 of 1233 possible MOs eliminated.


  ==> Pre-Iterations <==

  SCF Guess: Superposition of Atomic Densities via on-the-fly atomic UHF (no occupation information).

   -------------------------
    Irrep   Nso     Nmo    
   -------------------------
     A       1233    1219 
   -------------------------
    Total    1233    1219
   -------------------------

  ==> Iterations <==

                           Total Energy        Delta E     RMS |[F,P]|

   @DF-RHF iter SAD:  -303.36537188150783   -3.03365e+02   0.00000e+00 
   @DF-RHF iter   1:  -303.17042567562680    1.94946e-01   3.44944e-04 ADIIS/DIIS
   @DF-RHF iter   2:  -303.28491663276020   -1.14491e-01   1.16109e-04 ADIIS/DIIS
   @DF-RHF iter   3:  -303.29643920024131   -1.15226e-02   4.55313e-05 DIIS
   @DF-RHF iter   4:  -303.29836630768347   -1.92711e-03   9.99530e-06 DIIS
   @DF-RHF iter   5:  -303.29847489085154   -1.08583e-04   2.44457e-06 DIIS
   @DF-RHF iter   6:  -303.29848447177636   -9.58092e-06   6.59734e-07 DIIS
   @DF-RHF iter   7:  -303.29848557425106   -1.10247e-06   3.36962e-07 DIIS
   @DF-RHF iter   8:  -303.29848583694195   -2.62691e-07   1.35759e-07 DIIS
   @DF-RHF iter   9:  -303.29848588746427   -5.05223e-08   3.37977e-08 DIIS
   @DF-RHF iter  10:  -303.29848589029950   -2.83524e-09   1.25326e-08 DIIS
   @DF-RHF iter  11:  -303.29848589053842   -2.38913e-10   2.93480e-09 DIIS
  Energy and wave function converged.


  ==> Post-Iterations <==

    Orbital Energies [Eh]
    ---------------------

    Doubly Occupied:                                                      

       1A    -15.834497     2A    -15.833955     3A    -11.529203  
       4A    -11.459641     5A    -11.458086     6A    -11.449561  
       7A    -11.449439     8A     -1.577698     9A     -1.433336  
      10A     -1.238200    11A     -1.188967    12A     -1.118594  
      13A     -1.022082    14A     -0.996536    15A     -0.916677  
      16A     -0.850175    17A     -0.815882    18A     -0.812759  
      19A     -0.789747    20A     -0.785989    21A     -0.781393  
      22A     -0.729472    23A     -0.725555    24A     -0.716985  
      25A     -0.595908    26A     -0.523519  

    Virtual:                                                              

      27A     -0.080291    28A     -0.073703    29A     -0.062824  
      30A     -0.055459    31A     -0.043791    32A     -0.040362  
      33A     -0.040076    34A     -0.039154    35A     -0.038745  
      36A     -0.027170    37A     -0.026832    38A     -0.021675  
      39A     -0.021431    40A     -0.015575    41A     -0.014260  
      42A     -0.013963    43A     -0.009795    44A     -0.007127  
      45A     -0.002038    46A      0.002438    47A      0.004808  
      48A      0.005064    49A      0.006334    50A      0.006884  
      51A      0.011843    52A      0.012130    53A      0.012833  
      54A      0.019580    55A      0.022110    56A      0.022999  
      57A      0.023229    58A      0.027836    59A      0.029146  
      60A      0.030469    61A      0.037755    62A      0.038560  
      63A      0.040897    64A      0.042261    65A      0.042581  
      66A      0.046282    67A      0.046815    68A      0.051862  
      69A      0.052781    70A      0.054024    71A      0.054436  
      72A      0.058321    73A      0.059816    74A      0.060219  
      75A      0.060934    76A      0.061429    77A      0.063075  
      78A      0.067635    79A      0.067938    80A      0.068944  
      81A      0.069621    82A      0.072478    83A      0.073214  
      84A      0.076946    85A      0.079886    86A      0.080709  
      87A      0.080787    88A      0.082009    89A      0.087108  
      90A      0.087466    91A      0.087873    92A      0.088350  
      93A      0.089093    94A      0.091475    95A      0.098707  
      96A      0.100339    97A      0.101500    98A      0.102324  
      99A      0.103401   100A      0.103468   101A      0.105858  
     102A      0.108677   103A      0.110250   104A      0.110906  
     105A      0.111229   106A      0.112177   107A      0.113109  
     108A      0.114641   109A      0.116317   110A      0.117868  
     111A      0.118339   112A      0.118423   113A      0.121718  
     114A      0.121801   115A      0.124673   116A      0.126552  
     117A      0.126887   118A      0.127716   119A      0.129995  
     120A      0.134564   121A      0.136126   122A      0.139998  
     123A      0.140226   124A      0.140392   125A      0.141399  
     126A      0.141865   127A      0.146939   128A      0.147920  
     129A      0.148933   130A      0.149412   131A      0.151428  
     132A      0.154080   133A      0.154406   134A      0.156809  
     135A      0.157315   136A      0.159273   137A      0.160946  
     138A      0.162535   139A      0.164953   140A      0.165840  
     141A      0.168384   142A      0.169766   143A      0.169914  
     144A      0.171223   145A      0.173568   146A      0.173818  
     147A      0.175141   148A      0.176078   149A      0.177705  
     150A      0.177929   151A      0.178324   152A      0.181789  
     153A      0.183083   154A      0.183592   155A      0.188312  
     156A      0.189575   157A      0.190625   158A      0.196108  
     159A      0.198695   160A      0.201914   161A      0.202303  
     162A      0.203044   163A      0.204120   164A      0.204236  
     165A      0.207952   166A      0.208949   167A      0.210571  
     168A      0.211297   169A      0.211978   170A      0.213043  
     171A      0.214019   172A      0.215641   173A      0.218025  
     174A      0.218356   175A      0.221367   176A      0.222117  
     177A      0.224390   178A      0.225215   179A      0.225505  
     180A      0.227785   181A      0.230735   182A      0.231018  
     183A      0.234672   184A      0.235315   185A      0.235757  
     186A      0.237739   187A      0.240829   188A      0.244187  
     189A      0.244928   190A      0.252702   191A      0.253789  
     192A      0.257045   193A      0.260108   194A      0.260360  
     195A      0.261148   196A      0.262012   197A      0.262817  
     198A      0.264342   199A      0.265962   200A      0.267146  
     201A      0.271854   202A      0.273296   203A      0.275000  
     204A      0.276648   205A      0.276828   206A      0.280293  
     207A      0.280555   208A      0.282084   209A      0.283146  
     210A      0.284411   211A      0.285143   212A      0.286112  
     213A      0.287207   214A      0.289026   215A      0.289547  
     216A      0.290835   217A      0.294514   218A      0.296669  
     219A      0.299845   220A      0.303163   221A      0.304540  
     222A      0.306875   223A      0.311080   224A      0.311933  
     225A      0.312454   226A      0.315957   227A      0.318432  
     228A      0.321676   229A      0.323858   230A      0.324263  
     231A      0.326636   232A      0.329260   233A      0.333474  
     234A      0.334770   235A      0.336300   236A      0.339852  
     237A      0.342566   238A      0.344345   239A      0.346874  
     240A      0.347084   241A      0.348346   242A      0.349315  
     243A      0.352471   244A      0.354859   245A      0.356289  
     246A      0.357662   247A      0.360085   248A      0.362126  
     249A      0.363810   250A      0.366000   251A      0.368312  
     252A      0.372504   253A      0.374415   254A      0.375685  
     255A      0.376482   256A      0.378198   257A      0.378608  
     258A      0.380389   259A      0.381247   260A      0.383726  
     261A      0.385077   262A      0.387243   263A      0.388658  
     264A      0.389997   265A      0.391814   266A      0.393154  
     267A      0.394831   268A      0.395520   269A      0.398778  
     270A      0.399807   271A      0.400779   272A      0.402356  
     273A      0.403383   274A      0.407958   275A      0.409291  
     276A      0.412368   277A      0.416236   278A      0.420492  
     279A      0.421986   280A      0.422360   281A      0.424976  
     282A      0.426710   283A      0.431446   284A      0.434955  
     285A      0.435436   286A      0.438798   287A      0.439926  
     288A      0.441614   289A      0.443972   290A      0.445397  
     291A      0.445848   292A      0.447216   293A      0.450109  
     294A      0.452507   295A      0.454907   296A      0.456368  
     297A      0.459086   298A      0.459325   299A      0.461314  
     300A      0.463380   301A      0.465100   302A      0.467361  
     303A      0.468592   304A      0.470988   305A      0.473941  
     306A      0.476609   307A      0.479096   308A      0.481843  
     309A      0.485531   310A      0.488054   311A      0.492563  
     312A      0.494030   313A      0.496823   314A      0.498684  
     315A      0.498728   316A      0.499844   317A      0.502126  
     318A      0.503184   319A      0.503630   320A      0.505511  
     321A      0.508416   322A      0.510504   323A      0.513444  
     324A      0.516900   325A      0.519093   326A      0.523079  
     327A      0.525230   328A      0.529448   329A      0.529709  
     330A      0.534743   331A      0.534864   332A      0.536764  
     333A      0.539218   334A      0.540530   335A      0.541877  
     336A      0.545623   337A      0.547892   338A      0.549733  
     339A      0.551288   340A      0.554310   341A      0.555469  
     342A      0.557351   343A      0.559279   344A      0.563320  
     345A      0.564231   346A      0.566648   347A      0.567897  
     348A      0.570278   349A      0.571954   350A      0.574657  
     351A      0.577783   352A      0.585443   353A      0.589495  
     354A      0.591468   355A      0.592770   356A      0.595327  
     357A      0.600080   358A      0.600619   359A      0.601943  
     360A      0.602100   361A      0.602963   362A      0.605265  
     363A      0.609966   364A      0.611267   365A      0.613018  
     366A      0.614813   367A      0.615623   368A      0.617072  
     369A      0.620195   370A      0.621976   371A      0.623272  
     372A      0.623375   373A      0.640707   374A      0.642069  
     375A      0.646472   376A      0.648897   377A      0.650450  
     378A      0.654250   379A      0.659113   380A      0.664142  
     381A      0.669476   382A      0.672301   383A      0.676045  
     384A      0.677090   385A      0.678043   386A      0.678944  
     387A      0.679605   388A      0.680421   389A      0.681463  
     390A      0.683043   391A      0.684127   392A      0.685569  
     393A      0.685931   394A      0.689095   395A      0.691817  
     396A      0.696255   397A      0.700232   398A      0.701537  
     399A      0.707721   400A      0.709171   401A      0.710602  
     402A      0.711131   403A      0.717161   404A      0.718525  
     405A      0.724537   406A      0.725084   407A      0.726250  
     408A      0.742164   409A      0.743439   410A      0.754630  
     411A      0.761871   412A      0.765250   413A      0.767460  
     414A      0.770019   415A      0.771186   416A      0.772823  
     417A      0.776261   418A      0.780220   419A      0.784689  
     420A      0.789130   421A      0.790608   422A      0.792000  
     423A      0.795629   424A      0.797252   425A      0.800310  
     426A      0.805055   427A      0.805817   428A      0.809788  
     429A      0.813536   430A      0.815291   431A      0.817449  
     432A      0.821170   433A      0.823496   434A      0.828096  
     435A      0.831341   436A      0.833014   437A      0.847866  
     438A      0.860180   439A      0.861948   440A      0.876205  
     441A      0.877780   442A      0.878789   443A      0.883838  
     444A      0.884217   445A      0.884902   446A      0.894348  
     447A      0.908014   448A      0.914816   449A      0.915281  
     450A      0.917600   451A      0.923192   452A      0.923494  
     453A      0.924902   454A      0.926794   455A      0.930239  
     456A      0.932434   457A      0.945198   458A      0.946259  
     459A      0.963758   460A      0.969323   461A      0.973836  
     462A      0.976557   463A      0.979030   464A      0.981005  
     465A      0.983312   466A      0.985002   467A      1.001627  
     468A      1.014067   469A      1.016785   470A      1.020934  
     471A      1.021952   472A      1.023683   473A      1.040780  
     474A      1.049531   475A      1.057115   476A      1.064350  
     477A      1.067060   478A      1.073624   479A      1.075572  
     480A      1.080653   481A      1.085869   482A      1.087143  
     483A      1.098083   484A      1.099455   485A      1.101072  
     486A      1.101497   487A      1.107178   488A      1.109516  
     489A      1.111153   490A      1.117947   491A      1.132643  
     492A      1.134326   493A      1.136814   494A      1.152012  
     495A      1.156675   496A      1.161835   497A      1.162373  
     498A      1.174041   499A      1.192199   500A      1.202931  
     501A      1.208351   502A      1.215041   503A      1.216819  
     504A      1.218086   505A      1.220076   506A      1.220517  
     507A      1.237782   508A      1.238424   509A      1.238803  
     510A      1.240093   511A      1.278965   512A      1.281812  
     513A      1.295136   514A      1.304824   515A      1.353601  
     516A      1.355242   517A      1.356229   518A      1.367958  
     519A      1.370932   520A      1.371812   521A      1.374339  
     522A      1.375577   523A      1.391846   524A      1.398026  
     525A      1.402062   526A      1.424343   527A      1.448472  
     528A      1.457707   529A      1.463841   530A      1.466779  
     531A      1.470010   532A      1.478028   533A      1.482947  
     534A      1.488226   535A      1.495804   536A      1.504122  
     537A      1.510055   538A      1.529494   539A      1.535426  
     540A      1.541307   541A      1.558747   542A      1.560885  
     543A      1.561920   544A      1.564634   545A      1.576238  
     546A      1.586300   547A      1.589778   548A      1.591706  
     549A      1.597871   550A      1.602533   551A      1.605323  
     552A      1.614950   553A      1.623138   554A      1.632528  
     555A      1.640802   556A      1.662954   557A      1.663876  
     558A      1.666211   559A      1.668335   560A      1.670221  
     561A      1.672904   562A      1.678803   563A      1.682435  
     564A      1.683907   565A      1.687794   566A      1.690044  
     567A      1.695907   568A      1.699033   569A      1.701063  
     570A      1.703493   571A      1.712193   572A      1.714886  
     573A      1.717358   574A      1.722387   575A      1.727162  
     576A      1.733831   577A      1.739845   578A      1.741288  
     579A      1.741895   580A      1.743596   581A      1.744720  
     582A      1.745700   583A      1.747632   584A      1.755914  
     585A      1.757018   586A      1.764374   587A      1.768705  
     588A      1.770596   589A      1.771826   590A      1.773041  
     591A      1.775932   592A      1.778604   593A      1.783024  
     594A      1.788231   595A      1.789208   596A      1.794873  
     597A      1.796217   598A      1.798637   599A      1.800920  
     600A      1.803316   601A      1.803911   602A      1.806125  
     603A      1.809418   604A      1.812171   605A      1.816493  
     606A      1.817522   607A      1.818887   608A      1.821172  
     609A      1.825891   610A      1.828373   611A      1.834660  
[...]
     814A      1.748824   815A      1.760095   816A      1.761826  
     817A      1.762700   818A      1.764496   819A      1.776295  
     820A      1.778233   821A      1.783389   822A      1.787223  
     823A      1.791147   824A      1.796673   825A      1.801677  
     826A      1.804300   827A      1.817324   828A      1.818924  
     829A      1.819503   830A      1.821174   831A      1.824348  
     832A      1.826679   833A      1.832479   834A      1.834336  
     835A      1.837952   836A      1.843703   837A      1.848680  
     838A      1.854498   839A      1.855386   840A      1.862794  
     841A      1.864048   842A      1.864987   843A      1.865792  
     844A      1.871161   845A      1.874677   846A      1.875922  
     847A      1.877284   848A      1.890410   849A      1.891902  
     850A      1.895011   851A      1.903345   852A      1.904144  
     853A      1.904642   854A      1.905531   855A      1.907724  
     856A      1.915903   857A      1.916195   858A      1.917673  
     859A      1.919252   860A      1.921292   861A      1.922864  
     862A      1.925075   863A      1.930603   864A      1.934182  
     865A      1.938611   866A      1.944487   867A      1.945575  
     868A      1.946183   869A      1.948321   870A      1.951693  
     871A      1.952377   872A      1.955570   873A      1.956460  
     874A      1.958358   875A      1.972995   876A      1.973992  
     877A      1.974512   878A      1.976848   879A      1.984726  
     880A      1.985499   881A      1.989880   882A      1.998447  
     883A      1.999988   884A      2.002391   885A      2.003230  
     886A      2.006639   887A      2.010240   888A      2.014630  
     889A      2.016160   890A      2.019826   891A      2.026469  
     892A      2.029637   893A      2.031504   894A      2.033434  
     895A      2.035074   896A      2.036237   897A      2.037527  
     898A      2.042674   899A      2.049285   900A      2.050446  
     901A      2.053791   902A      2.058599   903A      2.060399  
     904A      2.063952   905A      2.066332   906A      2.067171  
     907A      2.070247   908A      2.073999   909A      2.074808  
     910A      2.077906   911A      2.081454   912A      2.082922  
     913A      2.084428   914A      2.086513   915A      2.089208  
     916A      2.092001   917A      2.094047   918A      2.096418  
     919A      2.099416   920A      2.101784   921A      2.102243  
     922A      2.103443   923A      2.107788   924A      2.109817  
     925A      2.112774   926A      2.113160   927A      2.113629  
     928A      2.115937   929A      2.118795   930A      2.120635  
     931A      2.121277   932A      2.121890   933A      2.125132  
     934A      2.129217   935A      2.131072   936A      2.133167  
     937A      2.134854   938A      2.137111   939A      2.138303  
     940A      2.140599   941A      2.142399   942A      2.142944  
     943A      2.145711   944A      2.148861   945A      2.151102  
     946A      2.160774   947A      2.163451   948A      2.164119  
     949A      2.167960   950A      2.171223   951A      2.177889  
     952A      2.179592   953A      2.180711   954A      2.183368  
     955A      2.189347   956A      2.191570   957A      2.194008  
     958A      2.196767   959A      2.197307   960A      2.201264  
     961A      2.210527   962A      2.215099   963A      2.219529  
     964A      2.220542   965A      2.221466   966A      2.227982  
     967A      2.229626   968A      2.230478   969A      2.233662  
     970A      2.237005   971A      2.240158   972A      2.243591  
     973A      2.244693   974A      2.247067   975A      2.248913  
     976A      2.253938   977A      2.256191   978A      2.259727  
     979A      2.262679   980A      2.266850   981A      2.270354  
     982A      2.271825   983A      2.272504   984A      2.273578  
     985A      2.278827   986A      2.281915   987A      2.294189  
     988A      2.297477   989A      2.301118   990A      2.306370  
     991A      2.312766   992A      2.318745   993A      2.322975  
     994A      2.325543   995A      2.330883   996A      2.334093  
     997A      2.339048   998A      2.344932   999A      2.348510  
    1000A      2.352630  1001A      2.353879  1002A      2.357339  
    1003A      2.359815  1004A      2.361416  1005A      2.364930  
    1006A      2.373264  1007A      2.379935  1008A      2.388122  
    1009A      2.390531  1010A      2.409588  1011A      2.416884  
    1012A      2.424689  1013A      2.424821  1014A      2.425530  
    1015A      2.426893  1016A      2.435138  1017A      2.436470  
    1018A      2.440929  1019A      2.445929  1020A      2.454927  
    1021A      2.465085  1022A      2.476062  1023A      2.478816  
    1024A      2.482551  1025A      2.483519  1026A      2.487449  
    1027A      2.493227  1028A      2.506029  1029A      2.512622  
    1030A      2.515760  1031A      2.525883  1032A      2.532065  
    1033A      2.535393  1034A      2.543354  1035A      2.551370  
    1036A      2.555165  1037A      2.555380  1038A      2.555603  
    1039A      2.557152  1040A      2.560325  1041A      2.560622  
    1042A      2.561147  1043A      2.567965  1044A      2.573349  
    1045A      2.574058  1046A      2.578486  1047A      2.579168  
    1048A      2.585956  1049A      2.588046  1050A      2.590222  
    1051A      2.598562  1052A      2.600279  1053A      2.603030  
    1054A      2.611552  1055A      2.613848  1056A      2.621627  
    1057A      2.633489  1058A      2.635024  1059A      2.637650  
    1060A      2.638452  1061A      2.642956  1062A      2.643369  
    1063A      2.647149  1064A      2.653718  1065A      2.657050  
    1066A      2.668810  1067A      2.677923  1068A      2.680744  
    1069A      2.684456  1070A      2.692317  1071A      2.693421  
    1072A      2.697581  1073A      2.701833  1074A      2.704340  
    1075A      2.713463  1076A      2.714112  1077A      2.717482  
    1078A      2.720692  1079A      2.720995  1080A      2.723598  
    1081A      2.727841  1082A      2.748471  1083A      2.757189  
    1084A      2.758266  1085A      2.762971  1086A      2.766773  
    1087A      2.770514  1088A      2.786964  1089A      2.797446  
    1090A      2.798444  1091A      2.803132  1092A      2.816935  
    1093A      2.826165  1094A      2.832508  1095A      2.833220  
    1096A      2.842451  1097A      2.843969  1098A      2.856210  
    1099A      2.857000  1100A      2.858893  1101A      2.865663  
    1102A      2.872287  1103A      2.876806  1104A      2.920055  
    1105A      2.920738  1106A      2.925063  1107A      2.936280  
    1108A      2.939365  1109A      2.941931  1110A      2.952956  
    1111A      2.956899  1112A      2.964808  1113A      2.966247  
    1114A      2.979845  1115A      2.991664  1116A      2.999337  
    1117A      3.014605  1118A      3.020422  1119A      3.023489  
    1120A      3.037417  1121A      3.049120  1122A      3.058583  
    1123A      3.065554  1124A      3.066289  1125A      3.074301  
    1126A      3.078497  1127A      3.083999  1128A      3.096813  
    1129A      3.109181  1130A      3.124220  1131A      3.128034  
    1132A      3.132424  1133A      3.137904  1134A      3.140222  
    1135A      3.144199  1136A      3.146776  1137A      3.147818  
    1138A      3.151187  1139A      3.152963  1140A      3.154423  
    1141A      3.160498  1142A      3.169971  1143A      3.173060  
    1144A      3.175053  1145A      3.176313  1146A      3.193686  
    1147A      3.197178  1148A      3.211723  1149A      3.220735  
    1150A      3.236811  1151A      3.257647  1152A      3.282311  
    1153A      3.284369  1154A      3.287665  1155A      3.295020  
    1156A      3.298737  1157A      3.316178  1158A      3.369223  
    1159A      3.422718  1160A      3.422906  1161A      3.430767  
    1162A      3.461661  1163A      3.491573  1164A      3.496672  
    1165A      3.526297  1166A      3.564527  1167A      3.569527  
    1168A      3.592670  1169A      3.601117  1170A      3.633598  
    1171A      3.636645  1172A      3.652272  1173A      3.663224  
    1174A      3.669088  1175A      3.676824  1176A      3.689796  
    1177A      3.767071  1178A      3.795582  1179A      3.799824  
    1180A      3.816576  1181A      3.847184  1182A      3.871877  
    1183A      3.873157  1184A      3.891170  1185A      3.915800  
    1186A      3.916921  1187A      3.986318  1188A      4.012402  
    1189A      4.028510  1190A      4.095371  1191A      4.113328  
    1192A      4.195280  1193A      4.245664  1194A      4.271665  
    1195A      4.451876  1196A      4.454900  1197A      4.529403  
    1198A      4.813460  1199A      4.861999  1200A      4.902784  
    1201A      4.912571  1202A      4.980411  1203A      5.091729  
    1204A      5.097299  1205A      5.115277  1206A      5.146678  
    1207A      5.241530  1208A      5.418934  1209A      5.446599  
    1210A      5.781646  1211A      5.807240  1212A      6.087101  
    1213A     18.208399  1214A     18.488416  1215A     18.508246  
    1216A     18.607811  1217A     18.861968  1218A     25.359016  
    1219A     25.395623  

    Final Occupation by Irrep:
              A 
    DOCC [   171 ]
    NA   [   171 ]
    NB   [   171 ]

  @DF-RHF Final Energy: -2055.89561198831598

   => Energetics <=

    Nuclear Repulsion Energy =           6452.5568002797781446
    One-Electron Energy =              -15636.5327858336222562
    Two-Electron Energy =                7128.0803735655272249
    Total Energy =                      -2055.8956119883159772

Computation Completed


Properties will be evaluated at   0.000000,   0.000000,   0.000000 [a0]

Properties computed using the SCF density matrix


 Multipole Moments:

 ------------------------------------------------------------------------------------
     Multipole            Electronic (a.u.)      Nuclear  (a.u.)        Total (a.u.)
 ------------------------------------------------------------------------------------

 L = 1.  Multiply by 2.5417464519 to convert [e a0] to [Debye]
 Dipole X            :         -0.0004697           -0.0000085           -0.0004782
 Dipole Y            :          0.0004514            0.0000167            0.0004681
 Dipole Z            :       -320.5902137          320.5913498            0.0011362
 Magnitude           :                                                    0.0013186

 ------------------------------------------------------------------------------------

*** tstop() called on n2cn0366 at Sat Feb 10 13:03:31 2024
Module time:
	user time   =    3470.53 seconds =      57.84 minutes
	system time =     133.13 seconds =       2.22 minutes
	total time  =        254 seconds =       4.23 minutes
Total time:
	user time   =   11217.51 seconds =     186.96 minutes
	system time =     366.56 seconds =       6.11 minutes
	total time  =        881 seconds =      14.68 minutes
  Constructing Basis Sets for SAPT...

   => Loading Basis Set <=

    Name: (JUN-CC-PVDZ AUX)
    Role: RIFIT
    Keyword: DF_BASIS_SAPT
    atoms 1-2, 4-5, 10, 17-70 entry C          line   100 file /opt/software/pc2/EB-SW/software/PSI4/1.9-foss-2022a/share/psi4/basis/jun-cc-pvdz-ri.gbs 
    atoms 3, 6                entry N          line   144 file /opt/software/pc2/EB-SW/software/PSI4/1.9-foss-2022a/share/psi4/basis/jun-cc-pvdz-ri.gbs 
    atoms 7-9, 11-16, 71-88   entry H          line    30 file /opt/software/pc2/EB-SW/software/PSI4/1.9-foss-2022a/share/psi4/basis/jun-cc-pvdz-ri.gbs 

   => Loading Basis Set <=

    Name: (JUN-CC-PVDZ AUX)
    Role: JKFIT
    Keyword: DF_BASIS_ELST
    atoms 1-2, 4-5, 10, 17-70 entry C          line   146 file /opt/software/pc2/EB-SW/software/PSI4/1.9-foss-2022a/share/psi4/basis/jun-cc-pvdz-jkfit.gbs 
    atoms 3, 6                entry N          line   202 file /opt/software/pc2/EB-SW/software/PSI4/1.9-foss-2022a/share/psi4/basis/jun-cc-pvdz-jkfit.gbs 
    atoms 7-9, 11-16, 71-88   entry H          line    70 file /opt/software/pc2/EB-SW/software/PSI4/1.9-foss-2022a/share/psi4/basis/jun-cc-pvdz-jkfit.gbs 


  //>>>>>>>>>>>>>>>>>>>>>>>>>>>>>>>>>>>//
  //               SSAPT0              //
  //<<<<<<<<<<<<<<<<<<<<<<<<<<<<<<<<<<<//


*** tstart() called on n2cn0366
*** at Sat Feb 10 13:03:32 2024

        SAPT0  
    Ed Hohenstein
     6 June 2009

      Orbital Information
  --------------------------
    NSO        =      1233
    NMO        =      1219
    NRI        =      4343
    NRI (Elst) =      5440
    NOCC A     =        26
    NOCC B     =       171
    FOCC A     =         7
    FOCC B     =        54
    NVIR A     =      1193
    NVIR B     =      1048

    Elst10,r            =    -0.023928132865 [Eh]
    Exch10              =     0.041635632801 [Eh]
    Exch10 (S^2)        =     0.041157647786 [Eh]

    Iter     Energy [mEh]          dE [mEh]         Residual      Time [s]
       1      -3.97334971       3.973349708       9.752104303            16
       2      -4.83311254       0.859762833       3.319232936            29
       3      -4.94389191       0.110779369       0.547361751            41
       4      -4.93651903      -0.007372885       0.176205726            53
       5      -4.93373719      -0.002781831       0.034958638            65
       6      -4.93436083       0.000623640       0.012284752            78
       7      -4.93436943       0.000008598       0.006913454            90
       8      -4.93429760      -0.000071834       0.001991233           102
       9      -4.93430141       0.000003815       0.000627844           114
      10      -4.93430520       0.000003783       0.000171618           126
      11      -4.93430507      -0.000000123       0.000042435           139
      12      -4.93430484      -0.000000236       0.000010979           151
      13      -4.93430485       0.000000012       0.000003766           163
      14      -4.93430487       0.000000019       0.000001211           175
      15      -4.93430487      -0.000000002       0.000000394           187

    CHF Iterations converged


    Iter     Energy [mEh]          dE [mEh]         Residual      Time [s]
       1     -29.57805815      29.578058146      83.519125543            18
       2     -22.09077885      -7.487279292      12.747143883            33
       3     -22.67818177       0.587402918       5.492908540            49
       4     -23.38359874       0.705416970       1.103280733            62
       5     -23.40556738       0.021968633       0.399612709            81
       6     -23.38288024      -0.022687132       0.183633171            95
       7     -23.37961120      -0.003269044       0.081111020           108
       8     -23.38272118       0.003109983       0.036695532           121
       9     -23.38341105       0.000689870       0.013510659           134
      10     -23.38310039      -0.000310661       0.006902014           148
      11     -23.38299749      -0.000102897       0.003519462           161
      12     -23.38303708       0.000039587       0.001651244           174
      13     -23.38307380       0.000036719       0.000681027           187
      14     -23.38306514      -0.000008657       0.000397477           200
      15     -23.38305794      -0.000007208       0.000205516           213
      16     -23.38305976       0.000001819       0.000133629           227
      17     -23.38306230       0.000002545       0.000063132           240
      18     -23.38306194      -0.000000361       0.000035508           253
      19     -23.38306136      -0.000000576       0.000021089           266
      20     -23.38306136      -0.000000001       0.000010861           279
      21     -23.38306156       0.000000200       0.000005065           293
      22     -23.38306157       0.000000003       0.000002824           306
      23     -23.38306153      -0.000000036       0.000001619           319
      24     -23.38306152      -0.000000010       0.000000719           333

    CHF Iterations converged

    Ind20,r (A<-B)      =    -0.004934304866 [Eh]
    Ind20,r (B<-A)      =    -0.023383061519 [Eh]
    Ind20,r             =    -0.028317366385 [Eh]
    Exch-Ind20,r (A<-B) =     0.004676646611 [Eh]
    Exch-Ind20,r (B<-A) =     0.006232664850 [Eh]
    Exch-Ind20,r        =     0.010909311461 [Eh]
    Disp20              =    -0.038426776999 [Eh]
    Disp20 (SS)         =    -0.019213388500 [Eh]
    Disp20 (OS)         =    -0.019213388500 [Eh]
    Exch-Disp20         =     0.003410885056 [Eh]
    Exch-Disp20 (SS)    =     0.002011716997 [Eh]
    Exch-Disp20 (OS)    =     0.001399168059 [Eh]

    SAPT Results 
  --------------------------------------------------------------------------------------------------------
    Electrostatics                -23.92813287 [mEh]     -15.01513006 [kcal/mol]     -62.82330418 [kJ/mol]
      Elst10,r                    -23.92813287 [mEh]     -15.01513006 [kcal/mol]     -62.82330418 [kJ/mol]

    Exchange                       41.63563280 [mEh]      26.12675403 [kcal/mol]     109.31433886 [kJ/mol]
      Exch10                       41.63563280 [mEh]      26.12675403 [kcal/mol]     109.31433886 [kJ/mol]
      Exch10(S^2)                  41.15764779 [mEh]      25.82681390 [kcal/mol]     108.05938937 [kJ/mol]

    Induction                     -23.78806955 [mEh]     -14.92723901 [kcal/mol]     -62.45556801 [kJ/mol]
      Ind20,r                     -28.31736639 [mEh]     -17.76941568 [kcal/mol]     -74.34723520 [kJ/mol]
      Exch-Ind20,r                 10.90931146 [mEh]       6.84569629 [kcal/mol]      28.64239329 [kJ/mol]
      delta HF,r (2)               -6.38001463 [mEh]      -4.00351962 [kcal/mol]     -16.75072610 [kJ/mol]

    Dispersion                    -35.01589194 [mEh]     -21.97280393 [kcal/mol]     -91.93421163 [kJ/mol]
      Disp20                      -38.42677700 [mEh]     -24.11316661 [kcal/mol]    -100.88948911 [kJ/mol]
      Exch-Disp20                   3.41088506 [mEh]       2.14036269 [kcal/mol]       8.95527748 [kJ/mol]
      Disp20 (SS)                 -19.21338850 [mEh]     -12.05658331 [kcal/mol]     -50.44474456 [kJ/mol]
      Disp20 (OS)                 -19.21338850 [mEh]     -12.05658331 [kcal/mol]     -50.44474456 [kJ/mol]
      Exch-Disp20 (SS)              2.01171700 [mEh]       1.26237147 [kcal/mol]       5.28176225 [kJ/mol]
      Exch-Disp20 (OS)              1.39916806 [mEh]       0.87799121 [kcal/mol]       3.67351523 [kJ/mol]

  Total HF                         -6.08056962 [mEh]      -3.81561504 [kcal/mol]     -15.96453333 [kJ/mol]
  Total SAPT0                     -41.09646156 [mEh]     -25.78841897 [kcal/mol]    -107.89874496 [kJ/mol]

  Special recipe for scaled SAPT0 (see Manual):
    Electrostatics sSAPT0         -23.92813287 [mEh]     -15.01513006 [kcal/mol]     -62.82330418 [kJ/mol]
    Exchange sSAPT0                41.63563280 [mEh]      26.12675403 [kcal/mol]     109.31433886 [kJ/mol]
    Induction sSAPT0              -23.40355192 [mEh]     -14.68595055 [kcal/mol]     -61.44601711 [kJ/mol]
    Dispersion sSAPT0             -34.89566938 [mEh]     -21.89736313 [kcal/mol]     -91.61856732 [kJ/mol]
  Total sSAPT0                    -40.59172137 [mEh]     -25.47168971 [kcal/mol]    -106.57354976 [kJ/mol]
  --------------------------------------------------------------------------------------------------------

*** tstop() called on n2cn0366 at Sat Feb 10 13:31:40 2024
Module time:
	user time   =   12416.04 seconds =     206.93 minutes
	system time =     560.48 seconds =       9.34 minutes
	total time  =       1688 seconds =      28.13 minutes
Total time:
	user time   =   23634.43 seconds =     393.91 minutes
	system time =     927.04 seconds =      15.45 minutes
	total time  =       2570 seconds =      42.83 minutes

    Psi4 stopped on: Saturday, 10 February 2024 01:31PM
    Psi4 wall time for execution: 0:42:50.93

*** Psi4 exiting successfully. Buy a developer a beer!
