
    -----------------------------------------------------------------------
          Psi4: An Open-Source Ab Initio Electronic Structure Package
                               Psi4 1.9 release

                         Git: Rev {} zzzzzzz 


    D. G. A. Smith, L. A. Burns, A. C. Simmonett, R. M. Parrish,
    M. C. Schieber, R. Galvelis, P. Kraus, H. Kruse, R. Di Remigio,
    A. Alenaizan, A. M. James, S. Lehtola, J. P. Misiewicz, M. Scheurer,
    R. A. Shaw, J. B. Schriber, Y. Xie, Z. L. Glick, D. A. Sirianni,
    J. S. O'Brien, J. M. Waldrop, A. Kumar, E. G. Hohenstein,
    B. P. Pritchard, B. R. Brooks, H. F. Schaefer III, A. Yu. Sokolov,
    K. Patkowski, A. E. DePrince III, U. Bozkaya, R. A. King,
    F. A. Evangelista, J. M. Turney, T. D. Crawford, C. D. Sherrill,
    J. Chem. Phys. 152(18) 184108 (2020). https://doi.org/10.1063/5.0006002

                            Additional Code Authors
    E. T. Seidl, C. L. Janssen, E. F. Valeev, M. L. Leininger,
    J. F. Gonthier, R. M. Richard, H. R. McAlexander, M. Saitow, X. Wang,
    P. Verma, M. H. Lechner, A. Jiang, S. Behnle, A. G. Heide,
    M. F. Herbst, and D. L. Poole

             Previous Authors, Complete List of Code Contributors,
                       and Citations for Specific Modules
    https://github.com/psi4/psi4/blob/master/codemeta.json
    https://github.com/psi4/psi4/graphs/contributors
    http://psicode.org/psi4manual/master/introduction.html#citing-psifour

    -----------------------------------------------------------------------


    Psi4 started on: Saturday, 20 January 2024 10:14PM

    Process ID: 434394
    Host:       d-6-7-1
    PSIDATADIR: /home/gridsan/tfroembgen/.conda/envs/psi4test/share/psi4
    Memory:     500.0 MiB
    Threads:    12
    
  ==> Input File <==

--------------------------------------------------------------------------
memory 32 GB # how much memory is available ! Depends on the nodes/cores !

molecule dimer {
# monomer A
-1 1    # Charge and multiplicity
B -1.977592e-04  2.742729e-04 -4.799966
F  1.123153e-16  1.430594e-17 -3.387181
F  1.147860e+00  6.757812e-01 -5.271107
F  1.191806e-02 -1.332011e+00 -5.270905
F -1.159666e+00  6.560735e-01 -5.270826
--
# monomer B
0 1     # Charge and multiplicity
C   1.22531237526482      0.70753866091955      0.00613762728373
C   1.22532433589282     -0.70753852257020     -0.00619318228664
C   -0.00000567409046      1.41496628609039     -0.00672680580738
C   2.45644923379077      1.41832825917820      0.00902448468363
C   0.00001130712078     -1.41497612663474      0.00347275151708
C   -1.22530046906674      0.70754574598412      0.00838914760619
C   2.45643823516184     -1.41832293188077     -0.00843833914343
C   -0.00000085313587      2.83680140328112     -0.00913035594137
C   3.68182717731192      0.70931832800114     -0.00808954934571
C   2.45512052870677      2.83422403348893     -0.00819210630633
C   3.68182158506039     -0.70933346742900      0.00798293467272
C   -1.22531311884624     -0.70752714354401     -0.00512042085974
C   1.22670006104402      3.54346985599427      0.00816696660346
C   0.00000526469929     -2.83678176723568      0.00832091913869
C   -2.45643555300670      1.41831729028492      0.00842454345199
C   2.45512389762097     -2.83422965658853      0.00783102630520
C   -1.22671388474763      3.54346943575023      0.00827029982280
C   4.91451777504333      1.42717324448953     -0.00160886631602
C   3.69315067131765      3.54279566454522     -0.00155906667985
C   -2.45643712022637     -1.41831290883911     -0.00846337726810
C   1.22670532178455     -3.54347386990643     -0.00780316414624
C   -2.45512491866593      2.83421703463423     -0.00818572995999
C   4.91452486062398     -1.42718653794377      0.00136387641845
C   1.22142509354026      4.97013443726031      0.00150231067809
C   4.89300870916237      2.82518837202648     -0.00039219795739
C   -1.22669652864725     -3.54347062507680     -0.00753595973677
C   -3.68181849668397      0.70932533873199     -0.00807686886569
C   3.69314758099218     -3.54280096939050      0.00148176697923
C   -1.22143177215231      4.97012866986289      0.00168580605083
C   6.13477145276790      0.68054831910577     -0.00083909176631
C   3.65678936045204      4.97295361556775     -0.00065042889723
C   -2.45512642789169     -2.83421472106065      0.00758666850712
C   -3.68181869921921     -0.70932533146830      0.00810055625144
C   4.89301309775526     -2.82519973363176      0.00021895393805
C   -0.00000059327114      5.65044773803267      0.00045449734393
C   6.13477559217374     -0.68055448207492      0.00042622874941
C   2.47813196269732      5.65357712333155      0.00063835075260
C   1.22142288457925     -4.97012668293268     -0.00129718634452
C   -3.69316190412301      3.54279732619245     -0.00139355922051
C   -1.22142804110313     -4.97011793159564     -0.00140994817719
C   -4.91452132810043      1.42717581899491     -0.00153192130862
C   3.65678749952045     -4.97295485423912      0.00080007163680
C   -2.47813805026426      5.65357479452875      0.00092287576113
C   -3.69314125872231     -3.54278984697859      0.00136564082345
C   -4.91451200321153     -1.42718062802730      0.00139857359209
C   -0.00000552908399     -5.65043791501335      0.00005899322272
C   -4.89302000425900      2.82518897091939     -0.00040227981744
C   2.47812647313991     -5.65357317188818     -0.00029052915548
C   -3.65679823041642      4.97295655404175     -0.00047374852278
C   -4.89299899901461     -2.82519139505969      0.00006491824035
C   -2.47812801824129     -5.65356579800621     -0.00056571680280
C   -6.13477002348955      0.68054913825639     -0.00086464346868
C   -3.65678835334731     -4.97294365097028      0.00058578382008
C   -6.13476456307132     -0.68055354348201      0.00040575295444
H   5.83528897565761      3.36927626695423      0.00396712770529
H   7.07385965258860      1.22821762089947     -0.00037744837300
H   4.60066374401555      5.51238117445323     -0.00014522814529
H   5.83528386714679     -3.36930568472863     -0.00423551337640
H   -0.00001167146422      6.73853104613662     -0.00389474766392
H   7.07386165167227     -1.22822657074368     -0.00008250934481
H   2.47331421164041      6.74068466339473      0.00017162982210
H   4.60066897122302     -5.51237575717576      0.00039007446835
H   -2.47331820069565      6.74068209160650      0.00047297644710
H   -0.00000978838621     -6.73852780445195      0.00458867820736
H   -5.83530143450167      3.36927132229595      0.00410314985360
H   2.47330840367253     -6.74068500242887      0.00027980126949
H   -4.60067436136587      5.51237839860371      0.00002010017831
H   -5.83527902699321     -3.36928859177951     -0.00451481925734
H   -2.47329986759855     -6.74067870613986     -0.00016951527498
H   -7.07385728692578      1.22822084484047     -0.00046143985387
H   -4.60067330624313     -5.51236229778631      0.00021776644566
H   -7.07385645456741     -1.22822025997701     -0.00017736581114

    units angstrom      # Angstroms are the default
    no_reorient         # Geometry fixed, default
    symmetry c1         # C1 symmetry, default
}

set {
    scf_type DF         # Density fitting, faster than exact integrals
    freeze_core True    # Freeze core electrons
    basis jun-cc-pVDZ   # Jun-cc-pVDZ basis set, recommended for sSAPT0 in https://doi.org/10.1063/1.4867135
}

energy('ssapt0')        # Compute sSAPT0 energy, includes also SAPT0
--------------------------------------------------------------------------

  Memory set to  29.802 GiB by Python driver.

Scratch directory: /state/partition1/slurm_tmp/24778931.4294967291.0/
   => Loading Basis Set <=

    Name: JUN-CC-PVDZ
    Role: ORBITAL
    Keyword: BASIS
    atoms 1     entry B          line   130 file /home/gridsan/tfroembgen/.conda/envs/psi4test/share/psi4/basis/jun-cc-pvdz.gbs 
    atoms 2-5   entry F          line   266 file /home/gridsan/tfroembgen/.conda/envs/psi4test/share/psi4/basis/jun-cc-pvdz.gbs 
    atoms 6-59  entry C          line   164 file /home/gridsan/tfroembgen/.conda/envs/psi4test/share/psi4/basis/jun-cc-pvdz.gbs 
    atoms 60-77 entry H          line    36 file /home/gridsan/tfroembgen/.conda/envs/psi4test/share/psi4/basis/jun-cc-pvdz.gbs 

   => Loading Basis Set <=

    Name: JUN-CC-PVDZ
    Role: ORBITAL
    Keyword: BASIS
    atoms 1     entry B          line   130 file /home/gridsan/tfroembgen/.conda/envs/psi4test/share/psi4/basis/jun-cc-pvdz.gbs 
    atoms 2-5   entry F          line   266 file /home/gridsan/tfroembgen/.conda/envs/psi4test/share/psi4/basis/jun-cc-pvdz.gbs 
    atoms 6-59  entry C          line   164 file /home/gridsan/tfroembgen/.conda/envs/psi4test/share/psi4/basis/jun-cc-pvdz.gbs 
    atoms 60-77 entry H          line    36 file /home/gridsan/tfroembgen/.conda/envs/psi4test/share/psi4/basis/jun-cc-pvdz.gbs 


  //>>>>>>>>>>>>>>>>>>>>>>>>>>>>>>>>>>>//
  //              Dimer HF             //
  //<<<<<<<<<<<<<<<<<<<<<<<<<<<<<<<<<<<//

   => Libint2 <=

    Primary   basis highest AM E, G, H:  7, 7, 4
    Auxiliary basis highest AM E, G, H:  7, 7, 5
    Onebody   basis highest AM E, G, H:  7, 7, 5
    Solid Harmonics ordering:            gaussian

*** tstart() called on d-6-7-1
*** at Sat Jan 20 22:14:36 2024

   => Loading Basis Set <=

    Name: JUN-CC-PVDZ
    Role: ORBITAL
    Keyword: BASIS
    atoms 1     entry B          line   130 file /home/gridsan/tfroembgen/.conda/envs/psi4test/share/psi4/basis/jun-cc-pvdz.gbs 
    atoms 2-5   entry F          line   266 file /home/gridsan/tfroembgen/.conda/envs/psi4test/share/psi4/basis/jun-cc-pvdz.gbs 
    atoms 6-59  entry C          line   164 file /home/gridsan/tfroembgen/.conda/envs/psi4test/share/psi4/basis/jun-cc-pvdz.gbs 
    atoms 60-77 entry H          line    36 file /home/gridsan/tfroembgen/.conda/envs/psi4test/share/psi4/basis/jun-cc-pvdz.gbs 


         ---------------------------------------------------------
                                   SCF
               by Justin Turney, Rob Parrish, Andy Simmonett
                          and Daniel G. A. Smith
                              RHF Reference
                       12 Threads,  30517 MiB Core
         ---------------------------------------------------------

  ==> Geometry <==

    Molecular point group: c1
    Full point group: C1

    Geometry (in Angstrom), charge = -1, multiplicity = 1:

       Center              X                  Y                   Z               Mass       
    ------------   -----------------  -----------------  -----------------  -----------------
         B           -0.000198161052     0.000273808717    -4.245469382997    11.009305360000
         F           -0.000000401852    -0.000000464183    -2.832684382997    18.998403162730
         F            1.147859598148     0.675780735817    -4.716610382997    18.998403162730
         F            0.011917658148    -1.332011464183    -4.716408382997    18.998403162730
         F           -1.159666401852     0.656073035817    -4.716329382997    18.998403162730
         C            1.225311973413     0.707538196736     0.560634244287    12.000000000000
         C            1.225323934041    -0.707538986754     0.548303434717    12.000000000000
         C           -0.000006075942     1.414965821907     0.547769811196    12.000000000000
         C            2.456448831939     1.418327794995     0.563521101687    12.000000000000
         C            0.000010905269    -1.414976590818     0.557969368520    12.000000000000
         C           -1.225300870919     0.707545281801     0.562885764610    12.000000000000
         C            2.456437833310    -1.418323396064     0.546058277860    12.000000000000
         C           -0.000001254988     2.836800939098     0.545366261062    12.000000000000
         C            3.681826775460     0.709317863818     0.546407067658    12.000000000000
         C            2.455120126855     2.834223569306     0.546304510697    12.000000000000
         C            3.681821183209    -0.709333931612     0.562479551676    12.000000000000
         C           -1.225313520698    -0.707527607727     0.549376196144    12.000000000000
         C            1.226699659192     3.543469391811     0.562663583607    12.000000000000
         C            0.000004862847    -2.836782231419     0.562817536142    12.000000000000
         C           -2.456435954859     1.418316826102     0.562921160455    12.000000000000
         C            2.455123495769    -2.834230120772     0.562327643309    12.000000000000
         C           -1.226714286599     3.543468971567     0.562766916826    12.000000000000
         C            4.914517373191     1.427172780306     0.552887750687    12.000000000000
         C            3.693150269466     3.542795200362     0.552937550324    12.000000000000
         C           -2.456437522078    -1.418313373022     0.546033239735    12.000000000000
         C            1.226704919933    -3.543474334090     0.546693452857    12.000000000000
         C           -2.455125320518     2.834216570451     0.546310887043    12.000000000000
         C            4.914524458772    -1.427187002127     0.555860493422    12.000000000000
         C            1.221424691688     4.970133973077     0.555998927681    12.000000000000
         C            4.893008307311     2.825187907843     0.554104419046    12.000000000000
         C           -1.226696930499    -3.543471089260     0.546960657267    12.000000000000
         C           -3.681818898536     0.709324874549     0.546419748138    12.000000000000
         C            3.693147179140    -3.542801433574     0.555978383983    12.000000000000
         C           -1.221432174004     4.970128205680     0.556182423054    12.000000000000
         C            6.134771050916     0.680547854922     0.553657525237    12.000000000000
         C            3.656788958600     4.972953151384     0.553846188106    12.000000000000
         C           -2.455126829744    -2.834215185244     0.562083285511    12.000000000000
         C           -3.681819101071    -0.709325795652     0.562597173255    12.000000000000
         C            4.893012695903    -2.825200197815     0.554715570941    12.000000000000
         C           -0.000000995123     5.650447273849     0.554951114347    12.000000000000
         C            6.134775190322    -0.680554946258     0.554922845753    12.000000000000
         C            2.478131560845     5.653576659148     0.555134967756    12.000000000000
         C            1.221422482727    -4.970127147116     0.553199430659    12.000000000000
         C           -3.693162305975     3.542796862009     0.553103057783    12.000000000000
         C           -1.221428442955    -4.970118395779     0.553086668826    12.000000000000
         C           -4.914521729952     1.427175354812     0.552964695695    12.000000000000
         C            3.656787097669    -4.972955318422     0.555296688640    12.000000000000
         C           -2.478138452116     5.653574330345     0.555419492765    12.000000000000
         C           -3.693141660574    -3.542790311162     0.555862257827    12.000000000000
         C           -4.914512405063    -1.427181092211     0.555895190595    12.000000000000
         C           -0.000005930936    -5.650438379197     0.554555610226    12.000000000000
         C           -4.893020406111     2.825188506736     0.554094337186    12.000000000000
         C            2.478126071288    -5.653573636072     0.554206087848    12.000000000000
         C           -3.656798632268     4.972956089858     0.554022868481    12.000000000000
         C           -4.892999400866    -2.825191859243     0.554561535244    12.000000000000
         C           -2.478128420093    -5.653566262190     0.553930900201    12.000000000000
         C           -6.134770425341     0.680548674073     0.553631973535    12.000000000000
         C           -3.656788755199    -4.972944115154     0.555082400823    12.000000000000
         C           -6.134764964923    -0.680554007665     0.554902369958    12.000000000000
         H            5.835288573806     3.369275802771     0.558463744709     1.007825032230
         H            7.073859250737     1.228217156716     0.554119168630     1.007825032230
         H            4.600663342164     5.512380710270     0.554351388858     1.007825032230
         H            5.835283465295    -3.369306148912     0.550261103627     1.007825032230
         H           -0.000012073316     6.738530581953     0.550601869339     1.007825032230
         H            7.073861249820    -1.228227034927     0.554414107659     1.007825032230
         H            2.473313809789     6.740684199211     0.554668246826     1.007825032230
         H            4.600668569371    -5.512376221359     0.554886691472     1.007825032230
         H           -2.473318602548     6.740681627423     0.554969593451     1.007825032230
         H           -0.000010190238    -6.738528268635     0.559085295211     1.007825032230
         H           -5.835301836354     3.369270858113     0.558599766857     1.007825032230
         H            2.473308001821    -6.740685466612     0.554776418273     1.007825032230
         H           -4.600674763218     5.512377934420     0.554516717182     1.007825032230
         H           -5.835279428845    -3.369289055963     0.549981797746     1.007825032230
         H           -2.473300269450    -6.740679170323     0.554327101728     1.007825032230
         H           -7.073857688778     1.228220380657     0.554035177150     1.007825032230
         H           -4.600673708095    -5.512362761970     0.554714383449     1.007825032230
         H           -7.073856856419    -1.228220724160     0.554319251192     1.007825032230

  Running in c1 symmetry.

  Rotational constants: A =      0.00178  B =      0.00178  C =      0.00110 [cm^-1]
  Rotational constants: A =     53.33808  B =     53.33150  C =     33.02251 [MHz]
  Nuclear repulsion = 7758.919641207899986

  Charge       = -1
  Multiplicity = 1
  Electrons    = 384
  Nalpha       = 192
  Nbeta        = 192

  ==> Algorithm <==

  SCF Algorithm Type is DF.
  DIIS enabled.
  MOM disabled.
  Fractional occupation disabled.
  Guess Type is SAD.
  Energy threshold   = 1.00e-08
  Density threshold  = 1.00e-08
  Integral threshold = 1.00e-12

  ==> Primary Basis <==

  Basis Set: JUN-CC-PVDZ
    Blend: JUN-CC-PVDZ
    Number of shells: 526
    Number of basis functions: 1152
    Number of Cartesian functions: 1211
    Spherical Harmonics?: true
    Max angular momentum: 2

   => Loading Basis Set <=

    Name: (JUN-CC-PVDZ AUX)
    Role: JKFIT
    Keyword: DF_BASIS_SCF
    atoms 1     entry B          line    90 file /home/gridsan/tfroembgen/.conda/envs/psi4test/share/psi4/basis/jun-cc-pvdz-jkfit.gbs 
    atoms 2-5   entry F          line   314 file /home/gridsan/tfroembgen/.conda/envs/psi4test/share/psi4/basis/jun-cc-pvdz-jkfit.gbs 
    atoms 6-59  entry C          line   146 file /home/gridsan/tfroembgen/.conda/envs/psi4test/share/psi4/basis/jun-cc-pvdz-jkfit.gbs 
    atoms 60-77 entry H          line    70 file /home/gridsan/tfroembgen/.conda/envs/psi4test/share/psi4/basis/jun-cc-pvdz-jkfit.gbs 

  ==> Integral Setup <==

  ==> DiskDFJK: Density-Fitted J/K Matrices <==

    J tasked:                  Yes
    K tasked:                  Yes
    wK tasked:                  No
    OpenMP threads:             12
    Integrals threads:          12
    Memory [MiB]:            22888
    Algorithm:                Core
    Integral Cache:           SAVE
    Schwarz Cutoff:          1E-12
    Fitting Condition:       1E-10

   => Auxiliary Basis Set <=

  Basis Set: (JUN-CC-PVDZ AUX)
    Blend: JUN-CC-PVDZ-JKFIT
    Number of shells: 1755
    Number of basis functions: 5075
    Number of Cartesian functions: 5819
    Spherical Harmonics?: true
    Max angular momentum: 3

  Minimum eigenvalue in the overlap matrix is 8.3666399069E-10.
  Reciprocal condition number of the overlap matrix is 3.6700234050E-11.
    Using canonical orthogonalization.
  Overall, 14 of 1152 possible MOs eliminated.


  ==> Pre-Iterations <==

  SCF Guess: Superposition of Atomic Densities via on-the-fly atomic UHF (no occupation information).

   -------------------------
    Irrep   Nso     Nmo    
   -------------------------
     A       1152    1138 
   -------------------------
    Total    1152    1138
   -------------------------

  ==> Iterations <==

                           Total Energy        Delta E     RMS |[F,P]|

   @DF-RHF iter SAD: -2483.28733164642290   -2.48329e+03   0.00000e+00 
   @DF-RHF iter   1: -2477.60965786549514    5.67767e+00   1.10492e-03 DIIS/ADIIS
   @DF-RHF iter   2: -2478.50441223111466   -8.94754e-01   4.85464e-04 DIIS/ADIIS
   @DF-RHF iter   3: -2478.64328287877879   -1.38871e-01   1.38090e-04 DIIS/ADIIS
   @DF-RHF iter   4: -2478.65721490379747   -1.39320e-02   6.17187e-05 DIIS
   @DF-RHF iter   5: -2478.66036564561728   -3.15074e-03   1.72529e-05 DIIS
   @DF-RHF iter   6: -2478.66068228120184   -3.16636e-04   5.37952e-06 DIIS
   @DF-RHF iter   7: -2478.66076434784236   -8.20666e-05   2.65557e-06 DIIS
   @DF-RHF iter   8: -2478.66078697913917   -2.26313e-05   1.21145e-06 DIIS
   @DF-RHF iter   9: -2478.66079372126251   -6.74212e-06   2.62454e-07 DIIS
   @DF-RHF iter  10: -2478.66079395924817   -2.37986e-07   9.27663e-08 DIIS
   @DF-RHF iter  11: -2478.66079397722115   -1.79730e-08   3.60618e-08 DIIS
   @DF-RHF iter  12: -2478.66079398102147   -3.80032e-09   1.26634e-08 DIIS
   @DF-RHF iter  13: -2478.66079398138345   -3.61979e-10   5.19842e-09 DIIS
  Energy and wave function converged.


  ==> Post-Iterations <==

    Orbital Energies [Eh]
    ---------------------

    Doubly Occupied:                                                      

       1A    -26.074356     2A    -26.069770     3A    -26.069676  
       4A    -26.069591     5A    -11.187335     6A    -11.187321  
       7A    -11.187319     8A    -11.187250     9A    -11.187238  
      10A    -11.187235    11A    -11.187218    12A    -11.187211  
      13A    -11.187210    14A    -11.187134    15A    -11.187125  
      16A    -11.187124    17A    -11.184353    18A    -11.184311  
      19A    -11.184309    20A    -11.184252    21A    -11.184249  
      22A    -11.184237    23A    -11.184192    24A    -11.184177  
      25A    -11.184174    26A    -11.184057    27A    -11.184056  
      28A    -11.183880    29A    -11.183704    30A    -11.183453  
      31A    -11.183452    32A    -11.183108    33A    -11.183106  
      34A    -11.182849    35A    -11.182829    36A    -11.182814  
      37A    -11.182812    38A    -11.182811    39A    -11.182810  
      40A    -11.182807    41A    -11.182675    42A    -11.182474  
      43A    -11.182473    44A    -11.182279    45A    -11.182278  
      46A    -11.182212    47A    -11.181254    48A    -11.180783  
      49A    -11.180772    50A    -11.180586    51A    -11.180583  
      52A    -11.180582    53A    -11.180574    54A    -11.180572  
      55A    -11.180569    56A    -11.179723    57A    -11.179713  
      58A    -11.179191    59A     -7.543020    60A     -1.414774  
      61A     -1.357304    62A     -1.353862    63A     -1.353698  
      64A     -1.167897    65A     -1.146083    66A     -1.146083  
      67A     -1.117129    68A     -1.117122    69A     -1.105911  
      70A     -1.086441    71A     -1.076867    72A     -1.061475  
      73A     -1.061467    74A     -1.042208    75A     -1.042203  
      76A     -1.009343    77A     -1.009334    78A     -1.005060  
      79A     -0.995302    80A     -0.995298    81A     -0.967757  
      82A     -0.950242    83A     -0.947258    84A     -0.947216  
      85A     -0.946938    86A     -0.942358    87A     -0.914322  
      88A     -0.914278    89A     -0.890578    90A     -0.890529  
      91A     -0.823349    92A     -0.823320    93A     -0.813813  
      94A     -0.811797    95A     -0.811741    96A     -0.808659  
      97A     -0.808610    98A     -0.790844    99A     -0.768092  
     100A     -0.746907   101A     -0.743320   102A     -0.739539  
     103A     -0.739532   104A     -0.724270   105A     -0.724260  
     106A     -0.673508   107A     -0.672220   108A     -0.661625  
     109A     -0.661602   110A     -0.660518   111A     -0.660511  
     112A     -0.644374   113A     -0.627947   114A     -0.627934  
     115A     -0.621912   116A     -0.621895   117A     -0.606294  
     118A     -0.590920   119A     -0.580796   120A     -0.580198  
     121A     -0.580192   122A     -0.578131   123A     -0.568647  
     124A     -0.568644   125A     -0.557540   126A     -0.555498  
     127A     -0.555483   128A     -0.538034   129A     -0.534454  
     130A     -0.531779   131A     -0.531696   132A     -0.529116  
     133A     -0.529002   134A     -0.528971   135A     -0.527792  
     136A     -0.521628   137A     -0.517686   138A     -0.517673  
     139A     -0.516316   140A     -0.502098   141A     -0.502093  
     142A     -0.497373   143A     -0.497358   144A     -0.493705  
     145A     -0.493694   146A     -0.486149   147A     -0.484483  
     148A     -0.484473   149A     -0.468340   150A     -0.468337  
     151A     -0.465668   152A     -0.465664   153A     -0.458426  
     154A     -0.451860   155A     -0.451572   156A     -0.451563  
     157A     -0.451140   158A     -0.451100   159A     -0.430519  
     160A     -0.424776   161A     -0.422688   162A     -0.415886  
     163A     -0.412850   164A     -0.412632   165A     -0.412152  
     166A     -0.412069   167A     -0.410168   168A     -0.410159  
     169A     -0.395566   170A     -0.395556   171A     -0.389100  
     172A     -0.389034   173A     -0.387489   174A     -0.377389  
     175A     -0.377309   176A     -0.368522   177A     -0.368513  
     178A     -0.331180   179A     -0.331157   180A     -0.328730  
     181A     -0.305355   182A     -0.305351   183A     -0.277286  
     184A     -0.261592   185A     -0.259656   186A     -0.259611  
     187A     -0.240194   188A     -0.228746   189A     -0.210319  
     190A     -0.210265   191A     -0.152751   192A     -0.152691  

    Virtual:                                                              

     193A      0.085543   194A      0.085609   195A      0.104553  
     196A      0.104559   197A      0.106155   198A      0.106970  
     199A      0.106977   200A      0.113645   201A      0.117906  
     202A      0.128880   203A      0.128881   204A      0.137643  
     205A      0.137688   206A      0.143628   207A      0.143632  
     208A      0.144129   209A      0.150789   210A      0.150804  
     211A      0.151182   212A      0.151189   213A      0.151704  
     214A      0.156489   215A      0.157376   216A      0.157378  
     217A      0.158844   218A      0.163368   219A      0.165549  
     220A      0.172330   221A      0.172338   222A      0.174262  
     223A      0.176414   224A      0.180346   225A      0.183701  
     226A      0.183740   227A      0.187287   228A      0.187306  
     229A      0.188048   230A      0.188065   231A      0.188230  
     232A      0.191224   233A      0.191730   234A      0.195034  
     235A      0.196168   236A      0.196180   237A      0.202714  
     238A      0.210711   239A      0.210715   240A      0.212507  
     241A      0.212518   242A      0.215270   243A      0.215273  
     244A      0.216704   245A      0.219792   246A      0.219796  
     247A      0.231502   248A      0.235217   249A      0.235237  
     250A      0.240612   251A      0.245051   252A      0.246526  
     253A      0.246544   254A      0.248452   255A      0.248474  
     256A      0.251447   257A      0.253653   258A      0.253664  
     259A      0.256469   260A      0.256498   261A      0.259306  
     262A      0.263605   263A      0.263609   264A      0.264256  
     265A      0.264259   266A      0.266426   267A      0.270789  
     268A      0.270829   269A      0.271141   270A      0.273320  
     271A      0.273890   272A      0.273901   273A      0.274961  
     274A      0.277504   275A      0.278952   276A      0.286669  
     277A      0.286695   278A      0.286760   279A      0.288060  
     280A      0.288077   281A      0.290675   282A      0.292811  
     283A      0.292821   284A      0.297297   285A      0.297582  
     286A      0.299831   287A      0.299847   288A      0.301494  
     289A      0.305440   290A      0.305443   291A      0.308428  
     292A      0.309442   293A      0.317450   294A      0.317455  
     295A      0.319446   296A      0.319462   297A      0.321612  
     298A      0.321624   299A      0.323719   300A      0.323739  
     301A      0.329183   302A      0.329196   303A      0.336416  
     304A      0.336421   305A      0.337786   306A      0.337790  
     307A      0.343388   308A      0.346713   309A      0.346745  
     310A      0.350870   311A      0.350900   312A      0.353712  
     313A      0.354856   314A      0.354902   315A      0.357146  
     316A      0.357163   317A      0.362460   318A      0.364864  
     319A      0.366573   320A      0.366592   321A      0.368142  
     322A      0.373422   323A      0.374953   324A      0.374975  
     325A      0.375088   326A      0.375105   327A      0.376089  
     328A      0.380186   329A      0.381152   330A      0.381158  
     331A      0.384727   332A      0.385574   333A      0.385589  
     334A      0.386124   335A      0.386210   336A      0.391717  
     337A      0.392385   338A      0.396462   339A      0.396587  
     340A      0.400287   341A      0.402157   342A      0.403566  
     343A      0.403605   344A      0.407253   345A      0.407274  
     346A      0.409750   347A      0.413815   348A      0.413842  
     349A      0.415306   350A      0.417810   351A      0.419398  
     352A      0.419437   353A      0.420811   354A      0.425994  
     355A      0.426003   356A      0.428990   357A      0.433884  
     358A      0.433911   359A      0.438951   360A      0.438979  
     361A      0.442107   362A      0.444603   363A      0.449423  
     364A      0.449473   365A      0.453357   366A      0.453482  
     367A      0.456044   368A      0.456064   369A      0.457852  
     370A      0.458581   371A      0.459185   372A      0.459235  
     373A      0.459929   374A      0.462220   375A      0.462279  
     376A      0.462455   377A      0.465908   378A      0.465942  
     379A      0.470075   380A      0.470123   381A      0.472286  
     382A      0.475137   383A      0.475172   384A      0.475810  
     385A      0.480985   386A      0.482782   387A      0.482856  
     388A      0.484049   389A      0.484515   390A      0.484691  
     391A      0.488030   392A      0.488083   393A      0.491622  
     394A      0.494066   395A      0.494257   396A      0.494275  
     397A      0.497065   398A      0.497151   399A      0.498619  
     400A      0.500770   401A      0.500874   402A      0.506832  
     403A      0.507366   404A      0.507423   405A      0.507467  
     406A      0.508760   407A      0.514165   408A      0.516017  
     409A      0.516063   410A      0.519860   411A      0.519889  
     412A      0.520583   413A      0.520589   414A      0.528216  
     415A      0.528421   416A      0.530867   417A      0.534268  
     418A      0.534290   419A      0.534785   420A      0.539716  
     421A      0.540823   422A      0.541877   423A      0.542637  
     424A      0.542663   425A      0.544786   426A      0.544822  
     427A      0.551856   428A      0.551865   429A      0.556822  
     430A      0.556910   431A      0.560229   432A      0.560270  
     433A      0.562344   434A      0.564320   435A      0.564335  
     436A      0.568123   437A      0.569424   438A      0.569431  
     439A      0.570281   440A      0.571075   441A      0.575999  
     442A      0.576050   443A      0.576087   444A      0.582948  
     445A      0.582998   446A      0.592199   447A      0.592334  
     448A      0.594418   449A      0.596275   450A      0.600354  
     451A      0.600393   452A      0.603934   453A      0.604525  
     454A      0.606852   455A      0.610057   456A      0.612616  
     457A      0.615327   458A      0.615389   459A      0.620481  
     460A      0.620492   461A      0.620705   462A      0.622704  
     463A      0.630383   464A      0.632526   465A      0.632564  
     466A      0.632650   467A      0.634926   468A      0.634955  
     469A      0.638321   470A      0.639610   471A      0.643413  
     472A      0.643453   473A      0.648846   474A      0.653350  
     475A      0.653450   476A      0.666024   477A      0.671272  
     478A      0.671312   479A      0.671832   480A      0.688560  
     481A      0.688769   482A      0.693099   483A      0.693338  
     484A      0.699114   485A      0.699276   486A      0.702324  
     487A      0.703465   488A      0.703671   489A      0.720105  
     490A      0.724837   491A      0.724900   492A      0.728565  
     493A      0.731068   494A      0.740615   495A      0.741648  
     496A      0.741702   497A      0.748765   498A      0.748797  
     499A      0.755825   500A      0.755975   501A      0.761502  
     502A      0.786669   503A      0.786806   504A      0.788610  
     505A      0.788658   506A      0.789171   507A      0.806161  
     508A      0.810652   509A      0.815729   510A      0.815800  
     511A      0.816893   512A      0.816975   513A      0.827586  
     514A      0.827611   515A      0.829964   516A      0.845805  
     517A      0.857531   518A      0.861974   519A      0.870241  
     520A      0.870307   521A      0.876629   522A      0.884359  
     523A      0.887159   524A      0.889105   525A      0.889132  
     526A      0.892815   527A      0.893111   528A      0.897412  
     529A      0.898062   530A      0.898615   531A      0.898641  
     532A      0.907596   533A      0.924793   534A      0.924812  
     535A      0.932360   536A      0.934793   537A      0.934843  
     538A      0.936263   539A      0.940169   540A      0.940337  
     541A      0.945567   542A      0.945656   543A      0.951006  
     544A      0.951130   545A      0.957832   546A      0.957896  
     547A      0.960776   548A      0.965077   549A      0.965189  
     550A      0.968091   551A      0.968166   552A      0.971295  
     553A      0.971935   554A      0.972084   555A      0.973213  
     556A      0.979739   557A      0.980872   558A      0.981180  
     559A      0.981987   560A      0.990209   561A      0.990260  
     562A      0.991344   563A      0.995175   564A      0.997939  
     565A      0.999970   566A      1.006286   567A      1.006436  
     568A      1.006840   569A      1.007552   570A      1.007753  
     571A      1.015419   572A      1.015465   573A      1.017945  
     574A      1.018123   575A      1.034611   576A      1.034623  
     577A      1.036108   578A      1.037793   579A      1.042685  
     580A      1.043068   581A      1.048928   582A      1.049148  
     583A      1.049688   584A      1.050062   585A      1.056162  
     586A      1.061557   587A      1.061643   588A      1.062096  
     589A      1.064727   590A      1.068292   591A      1.068326  
     592A      1.076998   593A      1.084117   594A      1.084128  
     595A      1.086319   596A      1.086851   597A      1.086882  
     598A      1.103688   599A      1.103727   600A      1.107676  
     601A      1.108928   602A      1.109124   603A      1.113557  
     604A      1.113594   605A      1.114422   606A      1.115588  
     607A      1.115715   608A      1.116501   609A      1.119640  
     610A      1.119851   611A      1.121047   612A      1.124236  
     613A      1.125467   614A      1.125515   615A      1.128655  
     616A      1.128697   617A      1.131631   618A      1.140872  
     619A      1.141303   620A      1.141413   621A      1.143781  
     622A      1.143886   623A      1.153898   624A      1.157559  
     625A      1.157646   626A      1.157690   627A      1.166467  
     628A      1.166509   629A      1.168117   630A      1.168139  
     631A      1.168728   632A      1.173120   633A      1.173201  
     634A      1.175905   635A      1.179625   636A      1.179791  
     637A      1.183585   638A      1.183684   639A      1.188071  
     640A      1.193557   641A      1.193704   642A      1.198149  
     643A      1.199848   644A      1.200729   645A      1.200875  
     646A      1.213344   647A      1.213432   648A      1.214916  
     649A      1.215606   650A      1.218856   651A      1.218885  
     652A      1.221326   653A      1.221452   654A      1.223212  
     655A      1.226384   656A      1.234470   657A      1.241279  
     658A      1.248052   659A      1.255914   660A      1.257928  
     661A      1.257989   662A      1.262756   663A      1.262766  
     664A      1.270923   665A      1.271061   666A      1.273385  
     667A      1.273468   668A      1.275855   669A      1.282892  
     670A      1.289567   671A      1.289613   672A      1.292960  
     673A      1.293854   674A      1.293889   675A      1.306963  
     676A      1.307020   677A      1.308174   678A      1.329348  
     679A      1.329463   680A      1.332440   681A      1.332525  
     682A      1.334602   683A      1.334744   684A      1.336147  
     685A      1.336238   686A      1.346621   687A      1.346648  
     688A      1.363806   689A      1.363852   690A      1.364311  
     691A      1.365421   692A      1.368229   693A      1.369011  
     694A      1.374822   695A      1.377171   696A      1.377243  
     697A      1.379055   698A      1.380777   699A      1.380823  
     700A      1.394303   701A      1.394334   702A      1.399035  
     703A      1.399070   704A      1.402537   705A      1.402634  
     706A      1.405501   707A      1.411717   708A      1.412054  
     709A      1.421067   710A      1.425388   711A      1.425405  
     712A      1.428686   713A      1.428723   714A      1.431061  
     715A      1.431079   716A      1.436393   717A      1.437674  
     718A      1.437729   719A      1.446432   720A      1.446490  
     721A      1.448604   722A      1.459873   723A      1.463898  
     724A      1.475118   725A      1.475138   726A      1.482724  
     727A      1.482744   728A      1.484159   729A      1.484194  
     730A      1.490921   731A      1.493928   732A      1.503403  
     733A      1.506535   734A      1.506567   735A      1.507619  
     736A      1.508934   737A      1.510711   738A      1.510767  
     739A      1.517071   740A      1.517144   741A      1.520454  
     742A      1.520480   743A      1.521859   744A      1.526650  
     745A      1.540082   746A      1.540135   747A      1.541873  
     748A      1.556913   749A      1.556967   750A      1.588325  
     751A      1.588389   752A      1.595228   753A      1.595254  
     754A      1.601248   755A      1.625387   756A      1.648299  
     757A      1.648369   758A      1.649722   759A      1.659975  
     760A      1.674581   761A      1.675076   762A      1.682164  
     763A      1.688059   764A      1.688145   765A      1.688303  
     766A      1.690806   767A      1.690904   768A      1.698293  
     769A      1.700258   770A      1.700359   771A      1.709116  
     772A      1.709360   773A      1.715036   774A      1.715065  
     775A      1.717127   776A      1.718285   777A      1.718603  
     778A      1.718841   779A      1.730218   780A      1.733214  
     781A      1.733254   782A      1.739234   783A      1.747744  
     784A      1.747777   785A      1.750447   786A      1.752769  
     787A      1.752791   788A      1.755804   789A      1.760336  
     790A      1.760383   791A      1.767415   792A      1.770149  
     793A      1.770181   794A      1.770250   795A      1.777135  
     796A      1.779965   797A      1.780026   798A      1.787080  
     799A      1.787093   800A      1.814026   801A      1.825012  
     802A      1.829323   803A      1.830787   804A      1.830797  
     805A      1.833669   806A      1.848601   807A      1.848630  
     808A      1.863206   809A      1.863222   810A      1.886877  
     811A      1.887029   812A      1.887069   813A      1.898766  
     814A      1.898862   815A      1.901644   816A      1.902637  
     817A      1.902734   818A      1.911320   819A      1.915624  
     820A      1.917019   821A      1.930709   822A      1.930737  
     823A      1.933677   824A      1.933713   825A      1.935238  
     826A      1.942244   827A      1.944921   828A      1.953348  
     829A      1.953394   830A      1.968526   831A      1.968644  
     832A      1.972365   833A      1.973245   834A      1.973408  
     835A      1.981499   836A      1.981621   837A      1.984374  
     838A      1.984544   839A      1.990192   840A      1.990355  
     841A      1.991574   842A      1.994454   843A      1.994505  
     844A      2.008171   845A      2.010977   846A      2.011064  
     847A      2.013416   848A      2.013510   849A      2.014848  
     850A      2.016452   851A      2.016514   852A      2.028584  
     853A      2.028675   854A      2.029995   855A      2.034261  
     856A      2.034320   857A      2.041018   858A      2.043824  
     859A      2.044162   860A      2.054806   861A      2.054880  
     862A      2.068741   863A      2.069386   864A      2.069487  
     865A      2.073483   866A      2.073709   867A      2.074946  
     868A      2.078061   869A      2.078654   870A      2.089606  
     871A      2.089886   872A      2.101296   873A      2.102053  
     874A      2.102209   875A      2.102315   876A      2.103856  
     877A      2.104289   878A      2.106204   879A      2.121282  
     880A      2.122700   881A      2.122772   882A      2.124547  
     883A      2.124600   884A      2.133853   885A      2.134505  
     886A      2.137191   887A      2.137252   888A      2.142637  
     889A      2.148708   890A      2.149718   891A      2.149739  
     892A      2.155989   893A      2.156188   894A      2.158564  
     895A      2.163248   896A      2.163531   897A      2.163832  
     898A      2.164802   899A      2.167239   900A      2.171967  
     901A      2.172581   902A      2.172711   903A      2.178228  
     904A      2.180365   905A      2.180377   906A      2.183026  
     907A      2.186467   908A      2.186572   909A      2.189694  
     910A      2.190038   911A      2.190137   912A      2.192837  
     913A      2.193255   914A      2.200088   915A      2.200293  
     916A      2.201664   917A      2.201823   918A      2.205402  
     919A      2.206066   920A      2.207827   921A      2.207855  
     922A      2.215453   923A      2.215503   924A      2.219055  
     925A      2.228191   926A      2.235654   927A      2.235708  
     928A      2.236426   929A      2.236461   930A      2.246695  
     931A      2.250106   932A      2.250218   933A      2.261220  
     934A      2.261416   935A      2.263527   936A      2.265692  
     937A      2.272026   938A      2.272134   939A      2.277643  
     940A      2.291724   941A      2.295029   942A      2.295070  
     943A      2.297942   944A      2.306388   945A      2.307683  
     946A      2.307849   947A      2.311687   948A      2.311943  
     949A      2.315058   950A      2.315226   951A      2.316346  
     952A      2.329633   953A      2.329748   954A      2.341361  
     955A      2.341387   956A      2.342557   957A      2.342592  
     958A      2.349307   959A      2.370591   960A      2.374729  
     961A      2.377352   962A      2.386203   963A      2.387446  
     964A      2.407339   965A      2.407438   966A      2.408255  
     967A      2.409446   968A      2.412811   969A      2.424274  
     970A      2.424941   971A      2.425839   972A      2.426109  
     973A      2.441547   974A      2.441721   975A      2.450463  
     976A      2.450678   977A      2.466174   978A      2.486319  
     979A      2.496017   980A      2.496545   981A      2.496578  
     982A      2.506868   983A      2.514636   984A      2.514701  
     985A      2.542515   986A      2.545030   987A      2.545178  
     988A      2.557977   989A      2.558026   990A      2.574281  
     991A      2.594227   992A      2.602858   993A      2.609676  
     994A      2.616787   995A      2.617192   996A      2.617240  
     997A      2.623236   998A      2.623302   999A      2.629735  
    1000A      2.631652  1001A      2.631665  1002A      2.644672  
    1003A      2.645029  1004A      2.645100  1005A      2.645180  
    1006A      2.657031  1007A      2.657180  1008A      2.660103  
    1009A      2.662287  1010A      2.662906  1011A      2.677211  
    1012A      2.694758  1013A      2.694845  1014A      2.701074  
    1015A      2.704875  1016A      2.705332  1017A      2.711451  
    1018A      2.711517  1019A      2.721875  1020A      2.722176  
    1021A      2.727208  1022A      2.754903  1023A      2.755930  
    1024A      2.757059  1025A      2.762454  1026A      2.777654  
    1027A      2.777949  1028A      2.786343  1029A      2.786356  
    1030A      2.791586  1031A      2.791602  1032A      2.795645  
    1033A      2.795838  1034A      2.823895  1035A      2.823997  
    1036A      2.824431  1037A      2.851356  1038A      2.868887  
    1039A      2.868987  1040A      2.892824  1041A      2.900978  
    1042A      2.901292  1043A      2.925182  1044A      2.925339  
    1045A      2.931760  1046A      2.933567  1047A      2.933598  
    1048A      2.933981  1049A      2.944788  1050A      2.986729  
    1051A      2.986773  1052A      2.992080  1053A      2.997776  
    1054A      2.997845  1055A      3.007693  1056A      3.007785  
    1057A      3.024295  1058A      3.024442  1059A      3.033668  
    1060A      3.059843  1061A      3.080576  1062A      3.083928  
    1063A      3.084084  1064A      3.111145  1065A      3.138697  
    1066A      3.138715  1067A      3.144431  1068A      3.144499  
    1069A      3.184387  1070A      3.185060  1071A      3.198979  
    1072A      3.201856  1073A      3.202117  1074A      3.208155  
    1075A      3.218114  1076A      3.218155  1077A      3.218374  
    1078A      3.220087  1079A      3.220118  1080A      3.230664  
    1081A      3.231036  1082A      3.236716  1083A      3.237257  
    1084A      3.261249  1085A      3.280402  1086A      3.292406  
    1087A      3.308963  1088A      3.333186  1089A      3.348976  
    1090A      3.349179  1091A      3.355328  1092A      3.357622  
    1093A      3.357824  1094A      3.491561  1095A      3.491988  
    1096A      3.529790  1097A      3.557261  1098A      3.559814  
    1099A      3.626898  1100A      3.657579  1101A      3.659627  
    1102A      3.668755  1103A      3.699282  1104A      3.701247  
    1105A      3.736108  1106A      3.745112  1107A      3.842240  
    1108A      3.859929  1109A      3.861043  1110A      3.941665  
    1111A      3.941674  1112A      3.985517  1113A      3.985589  
    1114A      4.051096  1115A      4.085340  1116A      4.113908  
    1117A      4.125327  1118A      4.166826  1119A      4.170928  
    1120A      4.171671  1121A      4.171981  1122A      4.198418  
    1123A      4.200511  1124A      4.200570  1125A      4.204132  
    1126A      4.204228  1127A      4.235720  1128A      4.235730  
    1129A      4.252907  1130A      4.445885  1131A      4.446251  
    1132A      4.447002  1133A      4.647727  1134A      4.655604  
    1135A      4.655657  1136A      4.749922  1137A      4.784819  
    1138A      4.785160  

    Final Occupation by Irrep:
              A 
    DOCC [   192 ]
    NA   [   192 ]
    NB   [   192 ]

  @DF-RHF Final Energy: -2478.66079398138345

   => Energetics <=

    Nuclear Repulsion Energy =           7758.9196412078999856
    One-Electron Energy =              -18873.8278471241937950
    Two-Electron Energy =                8636.2474119349099055
    Total Energy =                      -2478.6607939813839039

Computation Completed


Properties will be evaluated at   0.000000,   0.000000,   0.000000 [a0]

Properties computed using the SCF density matrix


 Multipole Moments:

 ------------------------------------------------------------------------------------
     Multipole            Electronic (a.u.)      Nuclear  (a.u.)        Total (a.u.)
 ------------------------------------------------------------------------------------

 L = 1.  Multiply by 2.5417464519 to convert [e a0] to [Debye]
 Dipole X            :         -0.0004441            0.0000481           -0.0003961
 Dipole Y            :          0.0009163           -0.0001453            0.0007710
 Dipole Z            :        -22.5336339           29.4257565            6.8921226
 Magnitude           :                                                    6.8921226

 ------------------------------------------------------------------------------------

*** tstop() called on d-6-7-1 at Sat Jan 20 22:21:24 2024
Module time:
	user time   =    3757.37 seconds =      62.62 minutes
	system time =      91.96 seconds =       1.53 minutes
	total time  =        408 seconds =       6.80 minutes
Total time:
	user time   =    3757.37 seconds =      62.62 minutes
	system time =      91.96 seconds =       1.53 minutes
	total time  =        408 seconds =       6.80 minutes

  //>>>>>>>>>>>>>>>>>>>>>>>>>>>>>>>>>>>//
  //            Monomer A HF           //
  //<<<<<<<<<<<<<<<<<<<<<<<<<<<<<<<<<<<//

   => Libint2 <=

    Primary   basis highest AM E, G, H:  7, 7, 4
    Auxiliary basis highest AM E, G, H:  7, 7, 5
    Onebody   basis highest AM E, G, H:  7, 7, 5
    Solid Harmonics ordering:            gaussian

*** tstart() called on d-6-7-1
*** at Sat Jan 20 22:21:24 2024

   => Loading Basis Set <=

    Name: JUN-CC-PVDZ
    Role: ORBITAL
    Keyword: BASIS
    atoms 1     entry B          line   130 file /home/gridsan/tfroembgen/.conda/envs/psi4test/share/psi4/basis/jun-cc-pvdz.gbs 
    atoms 2-5   entry F          line   266 file /home/gridsan/tfroembgen/.conda/envs/psi4test/share/psi4/basis/jun-cc-pvdz.gbs 
    atoms 6-59  entry C          line   164 file /home/gridsan/tfroembgen/.conda/envs/psi4test/share/psi4/basis/jun-cc-pvdz.gbs 
    atoms 60-77 entry H          line    36 file /home/gridsan/tfroembgen/.conda/envs/psi4test/share/psi4/basis/jun-cc-pvdz.gbs 


         ---------------------------------------------------------
                                   SCF
               by Justin Turney, Rob Parrish, Andy Simmonett
                          and Daniel G. A. Smith
                              RHF Reference
                       12 Threads,  30517 MiB Core
         ---------------------------------------------------------

  ==> Geometry <==

    Molecular point group: c1
    Full point group: C1

    Geometry (in Angstrom), charge = -1, multiplicity = 1:

       Center              X                  Y                   Z               Mass       
    ------------   -----------------  -----------------  -----------------  -----------------
         B           -0.000198161052     0.000273808717    -4.245469382997    11.009305360000
         F           -0.000000401852    -0.000000464183    -2.832684382997    18.998403162730
         F            1.147859598148     0.675780735817    -4.716610382997    18.998403162730
         F            0.011917658148    -1.332011464183    -4.716408382997    18.998403162730
         F           -1.159666401852     0.656073035817    -4.716329382997    18.998403162730
      Gh(C)           1.225311973413     0.707538196736     0.560634244287    12.000000000000
      Gh(C)           1.225323934041    -0.707538986754     0.548303434717    12.000000000000
      Gh(C)          -0.000006075942     1.414965821907     0.547769811196    12.000000000000
      Gh(C)           2.456448831939     1.418327794995     0.563521101687    12.000000000000
      Gh(C)           0.000010905269    -1.414976590818     0.557969368520    12.000000000000
      Gh(C)          -1.225300870919     0.707545281801     0.562885764610    12.000000000000
      Gh(C)           2.456437833310    -1.418323396064     0.546058277860    12.000000000000
      Gh(C)          -0.000001254988     2.836800939098     0.545366261062    12.000000000000
      Gh(C)           3.681826775460     0.709317863818     0.546407067658    12.000000000000
      Gh(C)           2.455120126855     2.834223569306     0.546304510697    12.000000000000
      Gh(C)           3.681821183209    -0.709333931612     0.562479551676    12.000000000000
      Gh(C)          -1.225313520698    -0.707527607727     0.549376196144    12.000000000000
      Gh(C)           1.226699659192     3.543469391811     0.562663583607    12.000000000000
      Gh(C)           0.000004862847    -2.836782231419     0.562817536142    12.000000000000
      Gh(C)          -2.456435954859     1.418316826102     0.562921160455    12.000000000000
      Gh(C)           2.455123495769    -2.834230120772     0.562327643309    12.000000000000
      Gh(C)          -1.226714286599     3.543468971567     0.562766916826    12.000000000000
      Gh(C)           4.914517373191     1.427172780306     0.552887750687    12.000000000000
      Gh(C)           3.693150269466     3.542795200362     0.552937550324    12.000000000000
      Gh(C)          -2.456437522078    -1.418313373022     0.546033239735    12.000000000000
      Gh(C)           1.226704919933    -3.543474334090     0.546693452857    12.000000000000
      Gh(C)          -2.455125320518     2.834216570451     0.546310887043    12.000000000000
      Gh(C)           4.914524458772    -1.427187002127     0.555860493422    12.000000000000
      Gh(C)           1.221424691688     4.970133973077     0.555998927681    12.000000000000
      Gh(C)           4.893008307311     2.825187907843     0.554104419046    12.000000000000
      Gh(C)          -1.226696930499    -3.543471089260     0.546960657267    12.000000000000
      Gh(C)          -3.681818898536     0.709324874549     0.546419748138    12.000000000000
      Gh(C)           3.693147179140    -3.542801433574     0.555978383983    12.000000000000
      Gh(C)          -1.221432174004     4.970128205680     0.556182423054    12.000000000000
      Gh(C)           6.134771050916     0.680547854922     0.553657525237    12.000000000000
      Gh(C)           3.656788958600     4.972953151384     0.553846188106    12.000000000000
      Gh(C)          -2.455126829744    -2.834215185244     0.562083285511    12.000000000000
      Gh(C)          -3.681819101071    -0.709325795652     0.562597173255    12.000000000000
      Gh(C)           4.893012695903    -2.825200197815     0.554715570941    12.000000000000
      Gh(C)          -0.000000995123     5.650447273849     0.554951114347    12.000000000000
      Gh(C)           6.134775190322    -0.680554946258     0.554922845753    12.000000000000
      Gh(C)           2.478131560845     5.653576659148     0.555134967756    12.000000000000
      Gh(C)           1.221422482727    -4.970127147116     0.553199430659    12.000000000000
      Gh(C)          -3.693162305975     3.542796862009     0.553103057783    12.000000000000
      Gh(C)          -1.221428442955    -4.970118395779     0.553086668826    12.000000000000
      Gh(C)          -4.914521729952     1.427175354812     0.552964695695    12.000000000000
      Gh(C)           3.656787097669    -4.972955318422     0.555296688640    12.000000000000
      Gh(C)          -2.478138452116     5.653574330345     0.555419492765    12.000000000000
      Gh(C)          -3.693141660574    -3.542790311162     0.555862257827    12.000000000000
      Gh(C)          -4.914512405063    -1.427181092211     0.555895190595    12.000000000000
      Gh(C)          -0.000005930936    -5.650438379197     0.554555610226    12.000000000000
      Gh(C)          -4.893020406111     2.825188506736     0.554094337186    12.000000000000
      Gh(C)           2.478126071288    -5.653573636072     0.554206087848    12.000000000000
      Gh(C)          -3.656798632268     4.972956089858     0.554022868481    12.000000000000
      Gh(C)          -4.892999400866    -2.825191859243     0.554561535244    12.000000000000
      Gh(C)          -2.478128420093    -5.653566262190     0.553930900201    12.000000000000
      Gh(C)          -6.134770425341     0.680548674073     0.553631973535    12.000000000000
      Gh(C)          -3.656788755199    -4.972944115154     0.555082400823    12.000000000000
      Gh(C)          -6.134764964923    -0.680554007665     0.554902369958    12.000000000000
      Gh(H)           5.835288573806     3.369275802771     0.558463744709     1.007825032230
      Gh(H)           7.073859250737     1.228217156716     0.554119168630     1.007825032230
      Gh(H)           4.600663342164     5.512380710270     0.554351388858     1.007825032230
      Gh(H)           5.835283465295    -3.369306148912     0.550261103627     1.007825032230
      Gh(H)          -0.000012073316     6.738530581953     0.550601869339     1.007825032230
      Gh(H)           7.073861249820    -1.228227034927     0.554414107659     1.007825032230
      Gh(H)           2.473313809789     6.740684199211     0.554668246826     1.007825032230
      Gh(H)           4.600668569371    -5.512376221359     0.554886691472     1.007825032230
      Gh(H)          -2.473318602548     6.740681627423     0.554969593451     1.007825032230
      Gh(H)          -0.000010190238    -6.738528268635     0.559085295211     1.007825032230
      Gh(H)          -5.835301836354     3.369270858113     0.558599766857     1.007825032230
      Gh(H)           2.473308001821    -6.740685466612     0.554776418273     1.007825032230
      Gh(H)          -4.600674763218     5.512377934420     0.554516717182     1.007825032230
      Gh(H)          -5.835279428845    -3.369289055963     0.549981797746     1.007825032230
      Gh(H)          -2.473300269450    -6.740679170323     0.554327101728     1.007825032230
      Gh(H)          -7.073857688778     1.228220380657     0.554035177150     1.007825032230
      Gh(H)          -4.600673708095    -5.512362761970     0.554714383449     1.007825032230
      Gh(H)          -7.073856856419    -1.228220724160     0.554319251192     1.007825032230

  Running in c1 symmetry.

  Rotational constants: A =      0.00178  B =      0.00178  C =      0.00110 [cm^-1]
  Rotational constants: A =     53.33808  B =     53.33150  C =     33.02251 [MHz]
  Nuclear repulsion =  178.879455044809106

  Charge       = -1
  Multiplicity = 1
  Electrons    = 42
  Nalpha       = 21
  Nbeta        = 21

  ==> Algorithm <==

  SCF Algorithm Type is DF.
  DIIS enabled.
  MOM disabled.
  Fractional occupation disabled.
  Guess Type is SAD.
  Energy threshold   = 1.00e-08
  Density threshold  = 1.00e-08
  Integral threshold = 1.00e-12

  ==> Primary Basis <==

  Basis Set: JUN-CC-PVDZ
    Blend: JUN-CC-PVDZ
    Number of shells: 526
    Number of basis functions: 1152
    Number of Cartesian functions: 1211
    Spherical Harmonics?: true
    Max angular momentum: 2

   => Loading Basis Set <=

    Name: (JUN-CC-PVDZ AUX)
    Role: JKFIT
    Keyword: DF_BASIS_SCF
    atoms 1     entry B          line    90 file /home/gridsan/tfroembgen/.conda/envs/psi4test/share/psi4/basis/jun-cc-pvdz-jkfit.gbs 
    atoms 2-5   entry F          line   314 file /home/gridsan/tfroembgen/.conda/envs/psi4test/share/psi4/basis/jun-cc-pvdz-jkfit.gbs 
    atoms 6-59  entry C          line   146 file /home/gridsan/tfroembgen/.conda/envs/psi4test/share/psi4/basis/jun-cc-pvdz-jkfit.gbs 
    atoms 60-77 entry H          line    70 file /home/gridsan/tfroembgen/.conda/envs/psi4test/share/psi4/basis/jun-cc-pvdz-jkfit.gbs 

  ==> Integral Setup <==

  ==> DiskDFJK: Density-Fitted J/K Matrices <==

    J tasked:                  Yes
    K tasked:                  Yes
    wK tasked:                  No
    OpenMP threads:             12
    Integrals threads:          12
    Memory [MiB]:            22888
    Algorithm:                Core
    Integral Cache:           LOAD
    Schwarz Cutoff:          1E-12
    Fitting Condition:       1E-10

   => Auxiliary Basis Set <=

  Basis Set: (JUN-CC-PVDZ AUX)
    Blend: JUN-CC-PVDZ-JKFIT
    Number of shells: 1755
    Number of basis functions: 5075
    Number of Cartesian functions: 5819
    Spherical Harmonics?: true
    Max angular momentum: 3

  Minimum eigenvalue in the overlap matrix is 8.3666399069E-10.
  Reciprocal condition number of the overlap matrix is 3.6700234050E-11.
    Using canonical orthogonalization.
  Overall, 14 of 1152 possible MOs eliminated.


  ==> Pre-Iterations <==

  SCF Guess: Superposition of Atomic Densities via on-the-fly atomic UHF (no occupation information).

   -------------------------
    Irrep   Nso     Nmo    
   -------------------------
     A       1152    1138 
   -------------------------
    Total    1152    1138
   -------------------------

  ==> Iterations <==

                           Total Energy        Delta E     RMS |[F,P]|

   @DF-RHF iter SAD:  -421.23044576510893   -4.21230e+02   0.00000e+00 
   @DF-RHF iter   1:  -422.65025082135077   -1.41981e+00   5.30279e-04 DIIS/ADIIS
   @DF-RHF iter   2:  -422.73314541031311   -8.28946e-02   3.23433e-04 DIIS/ADIIS
   @DF-RHF iter   3:  -422.77171026421934   -3.85649e-02   1.74371e-05 DIIS
   @DF-RHF iter   4:  -422.77207201959175   -3.61755e-04   2.76351e-06 DIIS
   @DF-RHF iter   5:  -422.77208070194132   -8.68235e-06   7.10000e-07 DIIS
   @DF-RHF iter   6:  -422.77208127294347   -5.71002e-07   1.46060e-07 DIIS
   @DF-RHF iter   7:  -422.77208129445313   -2.15097e-08   1.61763e-08 DIIS
   @DF-RHF iter   8:  -422.77208129468681   -2.33683e-10   6.68508e-09 DIIS
  Energy and wave function converged.


  ==> Post-Iterations <==

    Orbital Energies [Eh]
    ---------------------

    Doubly Occupied:                                                      

       1A    -26.067107     2A    -26.067013     3A    -26.066978  
       4A    -26.066926     5A     -7.539092     6A     -1.410819  
       7A     -1.351214     8A     -1.351057     9A     -1.350911  
      10A     -0.602111    11A     -0.528324    12A     -0.528255  
      13A     -0.528228    14A     -0.447165    15A     -0.447123  
      16A     -0.408391    17A     -0.408358    18A     -0.408276  
      19A     -0.384953    20A     -0.384805    21A     -0.384740  

    Virtual:                                                              

      22A      0.087159    23A      0.088035    24A      0.088039  
      25A      0.095108    26A      0.095114    27A      0.106642  
      28A      0.107330    29A      0.114364    30A      0.123052  
      31A      0.123052    32A      0.128162    33A      0.128167  
      34A      0.140444    35A      0.141042    36A      0.141051  
      37A      0.143476    38A      0.143487    39A      0.144658  
      40A      0.144673    41A      0.154380    42A      0.156106  
      43A      0.156113    44A      0.162527    45A      0.162536  
      46A      0.165228    47A      0.171660    48A      0.175024  
      49A      0.176365    50A      0.177157    51A      0.177158  
      52A      0.180775    53A      0.185199    54A      0.185213  
      55A      0.185544    56A      0.185553    57A      0.186810  
      58A      0.192044    59A      0.192086    60A      0.197454  
      61A      0.197456    62A      0.198206    63A      0.198211  
      64A      0.200810    65A      0.200830    66A      0.201631  
      67A      0.209045    68A      0.209065    69A      0.210596  
      70A      0.210597    71A      0.216469    72A      0.216977  
      73A      0.220529    74A      0.220536    75A      0.221407  
      76A      0.224388    77A      0.224408    78A      0.227535  
      79A      0.227550    80A      0.230733    81A      0.230735  
      82A      0.231629    83A      0.232399    84A      0.239106  
      85A      0.242157    86A      0.242161    87A      0.244018  
      88A      0.244363    89A      0.249159    90A      0.249182  
      91A      0.255045    92A      0.257728    93A      0.260524  
      94A      0.261435    95A      0.262945    96A      0.262957  
      97A      0.264758    98A      0.264856    99A      0.266564  
     100A      0.266565   101A      0.272812   102A      0.272821  
     103A      0.276039   104A      0.276052   105A      0.280816  
     106A      0.280829   107A      0.285586   108A      0.285590  
     109A      0.287749   110A      0.289881   111A      0.289898  
     112A      0.291617   113A      0.296908   114A      0.296917  
     115A      0.298633   116A      0.299377   117A      0.299412  
     118A      0.303576   119A      0.303740   120A      0.303794  
     121A      0.307549   122A      0.312673   123A      0.314439  
     124A      0.320359   125A      0.320369   126A      0.324064  
     127A      0.324078   128A      0.324714   129A      0.324726  
     130A      0.326963   131A      0.326971   132A      0.328068  
     133A      0.336065   134A      0.336076   135A      0.341805  
     136A      0.341823   137A      0.345428   138A      0.346451  
     139A      0.348776   140A      0.348796   141A      0.349584  
     142A      0.352017   143A      0.352021   144A      0.353718  
     145A      0.353804   146A      0.353813   147A      0.360026  
     148A      0.364286   149A      0.371114   150A      0.375676  
     151A      0.375686   152A      0.376209   153A      0.378238  
     154A      0.378288   155A      0.384833   156A      0.388888  
     157A      0.388905   158A      0.391105   159A      0.395604  
     160A      0.395622   161A      0.396882   162A      0.399943  
     163A      0.399966   164A      0.403340   165A      0.403372  
     166A      0.405992   167A      0.406473   168A      0.406585  
     169A      0.407432   170A      0.416535   171A      0.417876  
     172A      0.418002   173A      0.425170   174A      0.426207  
     175A      0.426294   176A      0.431814   177A      0.432188  
     178A      0.432515   179A      0.434918   180A      0.435054  
     181A      0.435563   182A      0.436641   183A      0.436809  
     184A      0.436825   185A      0.441564   186A      0.442069  
     187A      0.442201   188A      0.446930   189A      0.449913  
     190A      0.449951   191A      0.454572   192A      0.455167  
     193A      0.455206   194A      0.459695   195A      0.459734  
     196A      0.461669   197A      0.461723   198A      0.469192  
     199A      0.473427   200A      0.473483   201A      0.481664  
     202A      0.481734   203A      0.484936   204A      0.484967  
     205A      0.485790   206A      0.486920   207A      0.491042  
     208A      0.491072   209A      0.496171   210A      0.497333  
     211A      0.498454   212A      0.504081   213A      0.504086  
     214A      0.508104   215A      0.509646   216A      0.509760  
     217A      0.511040   218A      0.513979   219A      0.513993  
     220A      0.514184   221A      0.516646   222A      0.516679  
     223A      0.517302   224A      0.519904   225A      0.520020  
     226A      0.520768   227A      0.528109   228A      0.528414  
     229A      0.529328   230A      0.532839   231A      0.532947  
     232A      0.536151   233A      0.536857   234A      0.537372  
     235A      0.544179   236A      0.544238   237A      0.547359  
     238A      0.548425   239A      0.553798   240A      0.554765  
     241A      0.554787   242A      0.558445   243A      0.558496  
     244A      0.559460   245A      0.559461   246A      0.561101  
     247A      0.573273   248A      0.574958   249A      0.575079  
     250A      0.577771   251A      0.577820   252A      0.580955  
     253A      0.582238   254A      0.582506   255A      0.586580  
     256A      0.590525   257A      0.590561   258A      0.591119  
     259A      0.591167   260A      0.594993   261A      0.599148  
     262A      0.601596   263A      0.601631   264A      0.602460  
     265A      0.605683   266A      0.605808   267A      0.606875  
     268A      0.606971   269A      0.614543   270A      0.618074  
     271A      0.618159   272A      0.627046   273A      0.627562  
     274A      0.627590   275A      0.633675   276A      0.637790  
     277A      0.637859   278A      0.639764   279A      0.639869  
     280A      0.640444   281A      0.644022   282A      0.644066  
     283A      0.650503   284A      0.651671   285A      0.653611  
     286A      0.653619   287A      0.658719   288A      0.658737  
     289A      0.658977   290A      0.662141   291A      0.670860  
     292A      0.670883   293A      0.671041   294A      0.674701  
     295A      0.674801   296A      0.682002   297A      0.684502  
     298A      0.684570   299A      0.688049   300A      0.688077  
     301A      0.689742   302A      0.689779   303A      0.695530  
     304A      0.695570   305A      0.696532   306A      0.706854  
     307A      0.712586   308A      0.712699   309A      0.716000  
     310A      0.716732   311A      0.718938   312A      0.718953  
     313A      0.719561   314A      0.721133   315A      0.721146  
     316A      0.723974   317A      0.735551   318A      0.742318  
     319A      0.744329   320A      0.747669   321A      0.747733  
     322A      0.752580   323A      0.752611   324A      0.756038  
     325A      0.757482   326A      0.759628   327A      0.759665  
     328A      0.764401   329A      0.764484   330A      0.766548  
     331A      0.773658   332A      0.773692   333A      0.774343  
     334A      0.775991   335A      0.784288   336A      0.784377  
     337A      0.788120   338A      0.788168   339A      0.803316  
     340A      0.803360   341A      0.805909   342A      0.805966  
     343A      0.811227   344A      0.812446   345A      0.812566  
     346A      0.815785   347A      0.815835   348A      0.816171  
     349A      0.820627   350A      0.831317   351A      0.832590  
     352A      0.832611   353A      0.838271   354A      0.838296  
     355A      0.839867   356A      0.847054   357A      0.847077  
     358A      0.854446   359A      0.856404   360A      0.856679  
     361A      0.859228   362A      0.859305   363A      0.859381  
     364A      0.864967   365A      0.865018   366A      0.865819  
     367A      0.867983   368A      0.871315   369A      0.874633  
     370A      0.874646   371A      0.878692   372A      0.878719  
     373A      0.880456   374A      0.881221   375A      0.881273  
     376A      0.881966   377A      0.887791   378A      0.896157  
     379A      0.897396   380A      0.897501   381A      0.907369  
     382A      0.907371   383A      0.922704   384A      0.922710  
     385A      0.952772   386A      0.953414   387A      0.954464  
     388A      0.957051   389A      0.957077   390A      0.962451  
     391A      0.963421   392A      0.964171   393A      0.969505  
     394A      0.969538   395A      0.973335   396A      0.973375  
     397A      0.977507   398A      0.987128   399A      0.993701  
     400A      0.993887   401A      1.018663   402A      1.018667  
     403A      1.026015   404A      1.027122   405A      1.032852  
     406A      1.032889   407A      1.044285   408A      1.044318  
     409A      1.052285   410A      1.055552   411A      1.064086  
     412A      1.064099   413A      1.088539   414A      1.088823  
     415A      1.115752   416A      1.115786   417A      1.135596  
     418A      1.135630   419A      1.136386   420A      1.137501  
     421A      1.137520   422A      1.150335   423A      1.150363  
     424A      1.172921   425A      1.173567   426A      1.173585  
     427A      1.183424   428A      1.239396   429A      1.239454  
     430A      1.240517   431A      1.240909   432A      1.241059  
     433A      1.254592   434A      1.254602   435A      1.256648  
     436A      1.276126   437A      1.276171   438A      1.298504  
     439A      1.298508   440A      1.300474   441A      1.307387  
     442A      1.314320   443A      1.368011   444A      1.368124  
     445A      1.371070   446A      1.379041   447A      1.379066  
     448A      1.385458   449A      1.385503   450A      1.387874  
     451A      1.398550   452A      1.398629   453A      1.409526  
     454A      1.413700   455A      1.437466   456A      1.452174  
     457A      1.452238   458A      1.465089   459A      1.510815  
     460A      1.531637   461A      1.532019   462A      1.546631  
     463A      1.546653   464A      1.553500   465A      1.553762  
     466A      1.556269   467A      1.565328   468A      1.566190  
     469A      1.579276   470A      1.632349   471A      1.638108  
     472A      1.638151   473A      1.648055   474A      1.648718  
     475A      1.650467   476A      1.650592   477A      1.653434  
     478A      1.659612   479A      1.713854   480A      1.720469  
     481A      1.722080   482A      1.738964   483A      1.741097  
     484A      1.743744   485A      1.757319   486A      1.757766  
     487A      1.768092   488A      1.773058   489A      1.773738  
     490A      1.780640   491A      1.790776   492A      1.821247  
     493A      1.822330   494A      1.823047   495A      1.823525  
     496A      1.826334   497A      1.828603   498A      1.833905  
     499A      1.834165   500A      1.848581   501A      1.853545  
     502A      1.853710   503A      1.854700   504A      1.868778  
     505A      1.869825   506A      1.873940   507A      1.874657  
     508A      1.891871   509A      1.895681   510A      1.906081  
     511A      1.906149   512A      1.906541   513A      1.907775  
     514A      1.908490   515A      1.908684   516A      1.909827  
     517A      1.914663   518A      1.917939   519A      1.918025  
     520A      1.927349   521A      1.927395   522A      1.927588  
     523A      1.937511   524A      1.938359   525A      1.942432  
     526A      1.955325   527A      1.959420   528A      1.959522  
     529A      1.961637   530A      1.966346   531A      1.967640  
     532A      1.968475   533A      1.970562   534A      1.970690  
     535A      1.986099   536A      1.986562   537A      1.990048  
     538A      1.991927   539A      1.992997   540A      1.996036  
     541A      1.996592   542A      1.996839   543A      2.002484  
     544A      2.002637   545A      2.009422   546A      2.009987  
     547A      2.013087   548A      2.017483   549A      2.022327  
     550A      2.022469   551A      2.027167   552A      2.027294  
     553A      2.047736   554A      2.047931   555A      2.049118  
     556A      2.049342   557A      2.049794   558A      2.056335  
     559A      2.056536   560A      2.057842   561A      2.068420  
     562A      2.068489   563A      2.070777   564A      2.070904  
     565A      2.074137   566A      2.077464   567A      2.079180  
     568A      2.079250   569A      2.081158   570A      2.082953  
     571A      2.083236   572A      2.083908   573A      2.105976  
     574A      2.106099   575A      2.111000   576A      2.111155  
     577A      2.119271   578A      2.119474   579A      2.152292  
     580A      2.156249   581A      2.156294   582A      2.156339  
     583A      2.161665   584A      2.163548   585A      2.163584  
     586A      2.172773   587A      2.173482   588A      2.173795  
     589A      2.175553   590A      2.180526   591A      2.180669  
     592A      2.185854   593A      2.195820   594A      2.196725  
     595A      2.196764   596A      2.197707   597A      2.204652  
     598A      2.212527   599A      2.212568   600A      2.215697  
     601A      2.215704   602A      2.217884   603A      2.218412  
     604A      2.218486   605A      2.225702   606A      2.227937  
     607A      2.228117   608A      2.228149   609A      2.230263  
     610A      2.230325   611A      2.230416   612A      2.235848  
     613A      2.235859   614A      2.241438   615A      2.241457  
     616A      2.242048   617A      2.242162   618A      2.242233  
     619A      2.243281   620A      2.247671   621A      2.247699  
     622A      2.248010   623A      2.255034   624A      2.255454  
     625A      2.255579   626A      2.258558   627A      2.258760  
     628A      2.262704   629A      2.268118   630A      2.268192  
     631A      2.269070   632A      2.269252   633A      2.269842  
     634A      2.272055   635A      2.272186   636A      2.276221  
     637A      2.282002   638A      2.295394   639A      2.295510  
     640A      2.298075   641A      2.307812   642A      2.307849  
     643A      2.314173   644A      2.318123   645A      2.325196  
     646A      2.325240   647A      2.328930   648A      2.328948  
     649A      2.329732   650A      2.329832   651A      2.341819  
     652A      2.350077   653A      2.351469   654A      2.351506  
     655A      2.353966   656A      2.354066   657A      2.354539  
     658A      2.364744   659A      2.364768   660A      2.371575  
     661A      2.371735   662A      2.372190   663A      2.384906  
     664A      2.387378   665A      2.387431   666A      2.401822  
     667A      2.408363   668A      2.408474   669A      2.411153  
     670A      2.411188   671A      2.411812   672A      2.416967  
     673A      2.427000   674A      2.427008   675A      2.433474  
     676A      2.439074   677A      2.439912   678A      2.448693  
     679A      2.448718   680A      2.451730   681A      2.451751  
     682A      2.451899   683A      2.458330   684A      2.458335  
     685A      2.459110   686A      2.462240   687A      2.462305  
     688A      2.464766   689A      2.470450   690A      2.472192  
     691A      2.475768   692A      2.475827   693A      2.484747  
     694A      2.488413   695A      2.488507   696A      2.495737  
     697A      2.501190   698A      2.501254   699A      2.507753  
     700A      2.508526   701A      2.508630   702A      2.525202  
     703A      2.525387   704A      2.526471   705A      2.526603  
     706A      2.535969   707A      2.536019   708A      2.548070  
     709A      2.550833   710A      2.551160   711A      2.552944  
     712A      2.553003   713A      2.557684   714A      2.563137  
     715A      2.563420   716A      2.566341   717A      2.583257  
     718A      2.583302   719A      2.583829   720A      2.583850  
     721A      2.593117   722A      2.602500   723A      2.605344  
     724A      2.614791   725A      2.614875   726A      2.621110  
     727A      2.624055   728A      2.624334   729A      2.627386  
     730A      2.630922   731A      2.631042   732A      2.633738  
     733A      2.637229   734A      2.637535   735A      2.640627  
     736A      2.641061   737A      2.641251   738A      2.646341  
     739A      2.653106   740A      2.660034   741A      2.660086  
     742A      2.684248   743A      2.684313   744A      2.703419  
     745A      2.704252   746A      2.704310   747A      2.707488  
     748A      2.710405   749A      2.710428   750A      2.711473  
     751A      2.716590   752A      2.716693   753A      2.730857  
     754A      2.731648   755A      2.732032   756A      2.732270  
     757A      2.736757   758A      2.736974   759A      2.741170  
     760A      2.741285   761A      2.756419   762A      2.756465  
     763A      2.770922   764A      2.770945   765A      2.779189  
     766A      2.779384   767A      2.787276   768A      2.788865  
     769A      2.793680   770A      2.795782   771A      2.795954  
     772A      2.797225   773A      2.797311   774A      2.803742  
     775A      2.803801   776A      2.822358   777A      2.824937  
     778A      2.825064   779A      2.827726   780A      2.832646  
     781A      2.832897   782A      2.837382   783A      2.838798  
     784A      2.838883   785A      2.848140   786A      2.865055  
[...]
     712A      1.405521   713A      1.405542   714A      1.413960  
     715A      1.414011   716A      1.414860   717A      1.415465  
     718A      1.415516   719A      1.420156   720A      1.423593  
     721A      1.429637   722A      1.436304   723A      1.436702  
     724A      1.436736   725A      1.438498   726A      1.438558  
     727A      1.440661   728A      1.441616   729A      1.441644  
     730A      1.450576   731A      1.451811   732A      1.451821  
     733A      1.460918   734A      1.467059   735A      1.467112  
     736A      1.478644   737A      1.478765   738A      1.517657  
     739A      1.517689   740A      1.521956   741A      1.521985  
     742A      1.533884   743A      1.552405   744A      1.580093  
     745A      1.600861   746A      1.601419   747A      1.606668  
     748A      1.612405   749A      1.612662   750A      1.613069  
     751A      1.613443   752A      1.614024   753A      1.619012  
     754A      1.625226   755A      1.625287   756A      1.633927  
     757A      1.634209   758A      1.638493   759A      1.642966  
     760A      1.642993   761A      1.643625   762A      1.644763  
     763A      1.644936   764A      1.646238   765A      1.661327  
     766A      1.661360   767A      1.667755   768A      1.671238  
     769A      1.671289   770A      1.677050   771A      1.677120  
     772A      1.677264   773A      1.679105   774A      1.679301  
     775A      1.682506   776A      1.686150   777A      1.688097  
     778A      1.688141   779A      1.696147   780A      1.699194  
     781A      1.699226   782A      1.699486   783A      1.701797  
     784A      1.704916   785A      1.704984   786A      1.715915  
     787A      1.715935   788A      1.741766   789A      1.751571  
     790A      1.761129   791A      1.761142   792A      1.761172  
     793A      1.761280   794A      1.766152   795A      1.769920  
     796A      1.770092   797A      1.777296   798A      1.777326  
     799A      1.793209   800A      1.793231   801A      1.816871  
     802A      1.816913   803A      1.817902   804A      1.824904  
     805A      1.825004   806A      1.831615   807A      1.831693  
     808A      1.835800   809A      1.842472   810A      1.843768  
     811A      1.846424   812A      1.861455   813A      1.861480  
     814A      1.864297   815A      1.867143   816A      1.868581  
     817A      1.868601   818A      1.873486   819A      1.880735  
     820A      1.880771   821A      1.896944   822A      1.897027  
     823A      1.901340   824A      1.904538   825A      1.904682  
     826A      1.908881   827A      1.908985   828A      1.917480  
     829A      1.917591   830A      1.918123   831A      1.918201  
     832A      1.919327   833A      1.922402   834A      1.922481  
     835A      1.926281   836A      1.940531   837A      1.942495  
     838A      1.943175   839A      1.943352   840A      1.946814  
     841A      1.946832   842A      1.955231   843A      1.955359  
     844A      1.957582   845A      1.957626   846A      1.958120  
     847A      1.977916   848A      1.984278   849A      1.984403  
     850A      1.997195   851A      1.998733   852A      1.998757  
     853A      2.003840   854A      2.008497   855A      2.008670  
     856A      2.012956   857A      2.013139   858A      2.027968  
     859A      2.030607   860A      2.030722   861A      2.031098  
     862A      2.032521   863A      2.032629   864A      2.040158  
     865A      2.048327   866A      2.052926   867A      2.053169  
     868A      2.059452   869A      2.060333   870A      2.062817  
     871A      2.062875   872A      2.068990   873A      2.073636  
     874A      2.073919   875A      2.077580   876A      2.078032  
     877A      2.078224   878A      2.086804   879A      2.089178  
     880A      2.089298   881A      2.093581   882A      2.095862  
     883A      2.096929   884A      2.099844   885A      2.101088  
     886A      2.101157   887A      2.108877   888A      2.108899  
     889A      2.110386   890A      2.112301   891A      2.112356  
     892A      2.117920   893A      2.119939   894A      2.120071  
     895A      2.122042   896A      2.122115   897A      2.125343  
     898A      2.128308   899A      2.128464   900A      2.134673  
     901A      2.136149   902A      2.136220   903A      2.138537  
     904A      2.143485   905A      2.143521   906A      2.157295  
     907A      2.161025   908A      2.161095   909A      2.163633  
     910A      2.163677   911A      2.172230   912A      2.178570  
     913A      2.178656   914A      2.191908   915A      2.192159  
     916A      2.192607   917A      2.195332   918A      2.195999  
     919A      2.196119   920A      2.200985   921A      2.219792  
     922A      2.220486   923A      2.220518   924A      2.228194  
     925A      2.229768   926A      2.233725   927A      2.233800  
     928A      2.243536   929A      2.243830   930A      2.245453  
     931A      2.245664   932A      2.247479   933A      2.260366  
     934A      2.260479   935A      2.270334   936A      2.270345  
     937A      2.272512   938A      2.272549   939A      2.281111  
     940A      2.300267   941A      2.306748   942A      2.313569  
     943A      2.315027   944A      2.324215   945A      2.331462  
     946A      2.331561   947A      2.334770   948A      2.336927  
     949A      2.344833   950A      2.351040   951A      2.351696  
     952A      2.353586   953A      2.353892   954A      2.368541  
     955A      2.368750   956A      2.374804   957A      2.387981  
     958A      2.416268   959A      2.424089   960A      2.424520  
     961A      2.424545   962A      2.436531   963A      2.441565  
     964A      2.441619   965A      2.470098   966A      2.473971  
     967A      2.474121   968A      2.486772   969A      2.486832  
     970A      2.502383   971A      2.522574   972A      2.530254  
     973A      2.536135   974A      2.546382   975A      2.546404  
     976A      2.546527   977A      2.554415   978A      2.554482  
     979A      2.554990   980A      2.560266   981A      2.560275  
     982A      2.573079   983A      2.573115   984A      2.575841  
     985A      2.576307   986A      2.586346   987A      2.586465  
     988A      2.588089   989A      2.590284   990A      2.591468  
     991A      2.606936   992A      2.624413   993A      2.624489  
     994A      2.628574   995A      2.632075   996A      2.632555  
     997A      2.641703   998A      2.641766   999A      2.652190  
    1000A      2.652510  1001A      2.656917  1002A      2.683109  
    1003A      2.684057  1004A      2.684296  1005A      2.692909  
    1006A      2.702418  1007A      2.702726  1008A      2.713170  
    1009A      2.713179  1010A      2.718930  1011A      2.718945  
    1012A      2.723370  1013A      2.723574  1014A      2.733755  
    1015A      2.753502  1016A      2.753920  1017A      2.777797  
    1018A      2.795112  1019A      2.795234  1020A      2.821287  
    1021A      2.827214  1022A      2.828532  1023A      2.830732  
    1024A      2.831282  1025A      2.853721  1026A      2.853869  
    1027A      2.856123  1028A      2.858498  1029A      2.860176  
    1030A      2.860281  1031A      2.861119  1032A      2.905903  
    1033A      2.917885  1034A      2.917917  1035A      2.925940  
    1036A      2.934820  1037A      2.934874  1038A      2.952165  
    1039A      2.952254  1040A      2.963306  1041A      3.010375  
    1042A      3.010466  1043A      3.011958  1044A      3.040333  
    1045A      3.064548  1046A      3.064568  1047A      3.071555  
    1048A      3.071633  1049A      3.113361  1050A      3.114075  
    1051A      3.129916  1052A      3.130585  1053A      3.130842  
    1054A      3.137539  1055A      3.147373  1056A      3.147409  
    1057A      3.147549  1058A      3.149760  1059A      3.149780  
    1060A      3.159735  1061A      3.160094  1062A      3.166198  
    1063A      3.166737  1064A      3.191874  1065A      3.211197  
    1066A      3.219829  1067A      3.243687  1068A      3.277175  
    1069A      3.277305  1070A      3.277491  1071A      3.285312  
    1072A      3.285475  1073A      3.417626  1074A      3.418076  
    1075A      3.446679  1076A      3.482251  1077A      3.484857  
    1078A      3.550863  1079A      3.581628  1080A      3.583707  
    1081A      3.594003  1082A      3.626990  1083A      3.628946  
    1084A      3.663914  1085A      3.672238  1086A      3.769343  
    1087A      3.785193  1088A      3.786238  1089A      3.870959  
    1090A      3.870969  1091A      3.913888  1092A      3.913966  
    1093A      3.977061  1094A      4.011154  1095A      4.037122  
    1096A      4.048810  1097A      4.087835  1098A      4.231896  
    1099A      4.231969  1100A      4.284156  1101A      4.412021  
    1102A      5.750803  1103A      5.754413  1104A      5.754428  
    1105A      5.760699  1106A      5.760704  1107A      5.761457  
    1108A      5.766350  1109A      5.766354  1110A      5.788834  
    1111A      5.788862  1112A      5.804151  1113A      6.022493  
    1114A      6.024877  1115A      6.025210  1116A      6.198822  
    1117A      6.330934  1118A      6.331266  1119A      6.381971  
    1120A      6.382192  1121A      6.382367  1122A      7.229892  
    1123A      7.229991  1124A      7.258394  1125A      7.267611  
    1126A      7.293230  1127A      7.293354  1128A      7.371674  
    1129A      7.371749  1130A      7.495355  1131A      7.495633  
    1132A      7.595934  1133A      7.758303  1134A     12.630163  
    1135A     42.918959  1136A     42.919031  1137A     42.931131  
    1138A     42.957229  

    Final Occupation by Irrep:
              A 
    DOCC [   171 ]
    NA   [   171 ]
    NB   [   171 ]

  @DF-RHF Final Energy: -2055.89285876527265

   => Energetics <=

    Nuclear Repulsion Energy =           6452.5568002797772351
    One-Electron Energy =              -15636.4605219845361717
    Two-Electron Energy =                7128.0108629394862874
    Total Energy =                      -2055.8928587652726492

Computation Completed


Properties will be evaluated at   0.000000,   0.000000,   0.000000 [a0]

Properties computed using the SCF density matrix


 Multipole Moments:

 ------------------------------------------------------------------------------------
     Multipole            Electronic (a.u.)      Nuclear  (a.u.)        Total (a.u.)
 ------------------------------------------------------------------------------------

 L = 1.  Multiply by 2.5417464519 to convert [e a0] to [Debye]
 Dipole X            :          0.0000315            0.0000419            0.0000734
 Dipole Y            :          0.0000448           -0.0000426            0.0000022
 Dipole Z            :       -358.3599177          358.3621434            0.0022256
 Magnitude           :                                                    0.0022268

 ------------------------------------------------------------------------------------

*** tstop() called on d-6-7-1 at Sat Jan 20 22:27:16 2024
Module time:
	user time   =    2270.56 seconds =      37.84 minutes
	system time =      33.47 seconds =       0.56 minutes
	total time  =        236 seconds =       3.93 minutes
Total time:
	user time   =    7052.00 seconds =     117.53 minutes
	system time =     141.96 seconds =       2.37 minutes
	total time  =        760 seconds =      12.67 minutes
  Constructing Basis Sets for SAPT...

   => Loading Basis Set <=

    Name: (JUN-CC-PVDZ AUX)
    Role: RIFIT
    Keyword: DF_BASIS_SAPT
    atoms 1     entry B          line    56 file /home/gridsan/tfroembgen/.conda/envs/psi4test/share/psi4/basis/jun-cc-pvdz-ri.gbs 
    atoms 2-5   entry F          line   232 file /home/gridsan/tfroembgen/.conda/envs/psi4test/share/psi4/basis/jun-cc-pvdz-ri.gbs 
    atoms 6-59  entry C          line   100 file /home/gridsan/tfroembgen/.conda/envs/psi4test/share/psi4/basis/jun-cc-pvdz-ri.gbs 
    atoms 60-77 entry H          line    30 file /home/gridsan/tfroembgen/.conda/envs/psi4test/share/psi4/basis/jun-cc-pvdz-ri.gbs 

   => Loading Basis Set <=

    Name: (JUN-CC-PVDZ AUX)
    Role: JKFIT
    Keyword: DF_BASIS_ELST
    atoms 1     entry B          line    90 file /home/gridsan/tfroembgen/.conda/envs/psi4test/share/psi4/basis/jun-cc-pvdz-jkfit.gbs 
    atoms 2-5   entry F          line   314 file /home/gridsan/tfroembgen/.conda/envs/psi4test/share/psi4/basis/jun-cc-pvdz-jkfit.gbs 
    atoms 6-59  entry C          line   146 file /home/gridsan/tfroembgen/.conda/envs/psi4test/share/psi4/basis/jun-cc-pvdz-jkfit.gbs 
    atoms 60-77 entry H          line    70 file /home/gridsan/tfroembgen/.conda/envs/psi4test/share/psi4/basis/jun-cc-pvdz-jkfit.gbs 


  //>>>>>>>>>>>>>>>>>>>>>>>>>>>>>>>>>>>//
  //               SSAPT0              //
  //<<<<<<<<<<<<<<<<<<<<<<<<<<<<<<<<<<<//


*** tstart() called on d-6-7-1
*** at Sat Jan 20 22:27:17 2024

        SAPT0  
    Ed Hohenstein
     6 June 2009

      Orbital Information
  --------------------------
    NSO        =      1152
    NMO        =      1138
    NRI        =      4087
    NRI (Elst) =      5075
    NOCC A     =        21
    NOCC B     =       171
    FOCC A     =         5
    FOCC B     =        54
    NVIR A     =      1117
    NVIR B     =       967

    Elst10,r            =     0.011183990890 [Eh]
    Exch10              =     0.000927381941 [Eh]
    Exch10 (S^2)        =     0.000927507324 [Eh]

    Iter     Energy [mEh]          dE [mEh]         Residual      Time [s]
       1      -0.07120524       0.071205244       1.260041460           341
       2      -0.08385524       0.012649994       0.539467710           629
       3      -0.08590922       0.002053981       0.078295317           709
       4      -0.08574275      -0.000166471       0.022315707           727
       5      -0.08572690      -0.000015843       0.004784620           743
       6      -0.08573290       0.000005992       0.001527662           759
       7      -0.08573469       0.000001796       0.000327005           775
       8      -0.08573430      -0.000000391       0.000090459           792
       9      -0.08573423      -0.000000075       0.000014487           805
      10      -0.08573425       0.000000024       0.000002100           817
      11      -0.08573425      -0.000000001       0.000000477           829

    CHF Iterations converged


    Iter     Energy [mEh]          dE [mEh]         Residual      Time [s]
       1     -11.70847861      11.708478611      57.283096676           185
       2      -7.89125158      -3.817227035       7.467686421           483
       3      -7.87586669      -0.015384887       2.522623823           501
       4      -8.05243372       0.176567030       0.616386478           520
       5      -8.06342017       0.010986448       0.186976954           538
       6      -8.05820512      -0.005215044       0.087522846           555
       7      -8.05726780      -0.000937324       0.038232935           572
       8      -8.05803897       0.000771167       0.018074959           588
       9      -8.05822976       0.000190794       0.011584829           606
      10      -8.05806352      -0.000166237       0.008158663           624
      11      -8.05803213      -0.000031392       0.003314323           642
      12      -8.05806071       0.000028582       0.001446430           659
      13      -8.05807241       0.000011692       0.000538166           681
      14      -8.05807079      -0.000001612       0.000195306           704
      15      -8.05806824      -0.000002555       0.000068103           724
      16      -8.05806878       0.000000544       0.000033535           742
      17      -8.05806901       0.000000228       0.000014461           761
      18      -8.05806899      -0.000000026       0.000005434           779
      19      -8.05806893      -0.000000059       0.000001893           804
      20      -8.05806892      -0.000000002       0.000000705           821

    CHF Iterations converged

    Ind20,r (A<-B)      =    -0.000085734249 [Eh]
    Ind20,r (B<-A)      =    -0.008058068925 [Eh]
    Ind20,r             =    -0.008143803174 [Eh]
    Exch-Ind20,r (A<-B) =     0.000068881652 [Eh]
    Exch-Ind20,r (B<-A) =     0.000086982622 [Eh]
    Exch-Ind20,r        =     0.000155864273 [Eh]
    Disp20              =    -0.003465270534 [Eh]
    Disp20 (SS)         =    -0.001732635267 [Eh]
    Disp20 (OS)         =    -0.001732635267 [Eh]
    Exch-Disp20         =     0.000162496361 [Eh]
    Exch-Disp20 (SS)    =     0.000100370362 [Eh]
    Exch-Disp20 (OS)    =     0.000062126000 [Eh]

    SAPT Results 
  --------------------------------------------------------------------------------------------------------
    Electrostatics                 11.18399089 [mEh]       7.01806024 [kcal/mol]      29.36356404 [kJ/mol]
      Elst10,r                     11.18399089 [mEh]       7.01806024 [kcal/mol]      29.36356404 [kJ/mol]

    Exchange                        0.92738194 [mEh]       0.58194095 [kcal/mol]       2.43484095 [kJ/mol]
      Exch10                        0.92738194 [mEh]       0.58194095 [kcal/mol]       2.43484095 [kJ/mol]
      Exch10(S^2)                   0.92750732 [mEh]       0.58201963 [kcal/mol]       2.43517014 [kJ/mol]

    Induction                      -7.96529426 [mEh]      -4.99829761 [kcal/mol]     -20.91287719 [kJ/mol]
      Ind20,r                      -8.14380317 [mEh]      -5.11031364 [kcal/mol]     -21.38155229 [kJ/mol]
      Exch-Ind20,r                  0.15586427 [mEh]       0.09780631 [kcal/mol]       0.40922159 [kJ/mol]
      delta HF,r (2)                0.02264465 [mEh]       0.01420973 [kcal/mol]       0.05945351 [kJ/mol]

    Dispersion                     -3.30277417 [mEh]      -2.07252208 [kcal/mol]      -8.67143240 [kJ/mol]
      Disp20                       -3.46527053 [mEh]      -2.17449009 [kcal/mol]      -9.09806653 [kJ/mol]
      Exch-Disp20                   0.16249636 [mEh]       0.10196801 [kcal/mol]       0.42663414 [kJ/mol]
      Disp20 (SS)                  -1.73263527 [mEh]      -1.08724504 [kcal/mol]      -4.54903327 [kJ/mol]
      Disp20 (OS)                  -1.73263527 [mEh]      -1.08724504 [kcal/mol]      -4.54903327 [kJ/mol]
      Exch-Disp20 (SS)              0.10037036 [mEh]       0.06298335 [kcal/mol]       0.26352235 [kJ/mol]
      Exch-Disp20 (OS)              0.06212600 [mEh]       0.03898465 [kcal/mol]       0.16311179 [kJ/mol]

  Total HF                          4.14607858 [mEh]       2.60170359 [kcal/mol]      10.88552780 [kJ/mol]
  Total SAPT0                       0.84330440 [mEh]       0.52918150 [kcal/mol]       2.21409541 [kJ/mol]

  Special recipe for scaled SAPT0 (see Manual):
    Electrostatics sSAPT0          11.18399089 [mEh]       7.01806024 [kcal/mol]      29.36356404 [kJ/mol]
    Exchange sSAPT0                 0.92738194 [mEh]       0.58194095 [kcal/mol]       2.43484095 [kJ/mol]
    Induction sSAPT0               -7.96535746 [mEh]      -4.99833727 [kcal/mol]     -20.91304312 [kJ/mol]
    Dispersion sSAPT0              -3.30284006 [mEh]      -2.07256343 [kcal/mol]      -8.67160539 [kJ/mol]
  Total sSAPT0                      0.84317531 [mEh]       0.52910049 [kcal/mol]       2.21375647 [kJ/mol]
  --------------------------------------------------------------------------------------------------------

*** tstop() called on d-6-7-1 at Sat Jan 20 23:42:09 2024
Module time:
	user time   =    7114.26 seconds =     118.57 minutes
	system time =     678.41 seconds =      11.31 minutes
	total time  =       4492 seconds =      74.87 minutes
Total time:
	user time   =   14167.83 seconds =     236.13 minutes
	system time =     820.41 seconds =      13.67 minutes
	total time  =       5253 seconds =      87.55 minutes

    Psi4 stopped on: Saturday, 20 January 2024 11:42PM
    Psi4 wall time for execution: 1:27:33.37

*** Psi4 exiting successfully. Buy a developer a beer!
