
    -----------------------------------------------------------------------
          Psi4: An Open-Source Ab Initio Electronic Structure Package
                               Psi4 1.9 release

                         Git: Rev {} zzzzzzz 


    D. G. A. Smith, L. A. Burns, A. C. Simmonett, R. M. Parrish,
    M. C. Schieber, R. Galvelis, P. Kraus, H. Kruse, R. Di Remigio,
    A. Alenaizan, A. M. James, S. Lehtola, J. P. Misiewicz, M. Scheurer,
    R. A. Shaw, J. B. Schriber, Y. Xie, Z. L. Glick, D. A. Sirianni,
    J. S. O'Brien, J. M. Waldrop, A. Kumar, E. G. Hohenstein,
    B. P. Pritchard, B. R. Brooks, H. F. Schaefer III, A. Yu. Sokolov,
    K. Patkowski, A. E. DePrince III, U. Bozkaya, R. A. King,
    F. A. Evangelista, J. M. Turney, T. D. Crawford, C. D. Sherrill,
    J. Chem. Phys. 152(18) 184108 (2020). https://doi.org/10.1063/5.0006002

                            Additional Code Authors
    E. T. Seidl, C. L. Janssen, E. F. Valeev, M. L. Leininger,
    J. F. Gonthier, R. M. Richard, H. R. McAlexander, M. Saitow, X. Wang,
    P. Verma, M. H. Lechner, A. Jiang, S. Behnle, A. G. Heide,
    M. F. Herbst, and D. L. Poole

             Previous Authors, Complete List of Code Contributors,
                       and Citations for Specific Modules
    https://github.com/psi4/psi4/blob/master/codemeta.json
    https://github.com/psi4/psi4/graphs/contributors
    http://psicode.org/psi4manual/master/introduction.html#citing-psifour

    -----------------------------------------------------------------------


    Psi4 started on: Monday, 22 January 2024 07:45PM

    Process ID: 1561172
    Host:       d-17-1-1
    PSIDATADIR: /home/gridsan/tfroembgen/.conda/envs/psi4test/share/psi4
    Memory:     500.0 MiB
    Threads:    12
    
  ==> Input File <==

--------------------------------------------------------------------------
memory 32 GB # how much memory is available ! Depends on the nodes/cores !

molecule dimer {
# monomer A
+1 1    # Charge and multiplicity
C  0.680067 -0.008042 -8.815929
C -0.680504 -0.006014 -8.815545
N -1.085635 -0.005016 -7.497221
C  0.000108 -0.001740 -6.715820
C -2.477365  0.044390 -7.029242
N  1.085222 -0.005016 -7.497221
H  1.385146 -0.015870 -9.633368
H -1.385302 -0.006204 -9.633214
H -0.000009  0.000007 -5.634731
C  2.478117 -0.021908 -7.032123
H  2.490592  0.005437 -5.941870
H  2.967028 -0.935354 -7.379299
H  3.001428  0.853575 -7.423595
H -2.857359  1.066461 -7.109201
H -3.082679 -0.625694 -7.642306
H -2.518128 -0.282594 -5.989294
--
# monomer B
0 1     # Charge and multiplicity
C   1.22531237526482      0.70753866091955      0.00613762728373
C   1.22532433589282     -0.70753852257020     -0.00619318228664
C   -0.00000567409046      1.41496628609039     -0.00672680580738
C   2.45644923379077      1.41832825917820      0.00902448468363
C   0.00001130712078     -1.41497612663474      0.00347275151708
C   -1.22530046906674      0.70754574598412      0.00838914760619
C   2.45643823516184     -1.41832293188077     -0.00843833914343
C   -0.00000085313587      2.83680140328112     -0.00913035594137
C   3.68182717731192      0.70931832800114     -0.00808954934571
C   2.45512052870677      2.83422403348893     -0.00819210630633
C   3.68182158506039     -0.70933346742900      0.00798293467272
C   -1.22531311884624     -0.70752714354401     -0.00512042085974
C   1.22670006104402      3.54346985599427      0.00816696660346
C   0.00000526469929     -2.83678176723568      0.00832091913869
C   -2.45643555300670      1.41831729028492      0.00842454345199
C   2.45512389762097     -2.83422965658853      0.00783102630520
C   -1.22671388474763      3.54346943575023      0.00827029982280
C   4.91451777504333      1.42717324448953     -0.00160886631602
C   3.69315067131765      3.54279566454522     -0.00155906667985
C   -2.45643712022637     -1.41831290883911     -0.00846337726810
C   1.22670532178455     -3.54347386990643     -0.00780316414624
C   -2.45512491866593      2.83421703463423     -0.00818572995999
C   4.91452486062398     -1.42718653794377      0.00136387641845
C   1.22142509354026      4.97013443726031      0.00150231067809
C   4.89300870916237      2.82518837202648     -0.00039219795739
C   -1.22669652864725     -3.54347062507680     -0.00753595973677
C   -3.68181849668397      0.70932533873199     -0.00807686886569
C   3.69314758099218     -3.54280096939050      0.00148176697923
C   -1.22143177215231      4.97012866986289      0.00168580605083
C   6.13477145276790      0.68054831910577     -0.00083909176631
C   3.65678936045204      4.97295361556775     -0.00065042889723
C   -2.45512642789169     -2.83421472106065      0.00758666850712
C   -3.68181869921921     -0.70932533146830      0.00810055625144
C   4.89301309775526     -2.82519973363176      0.00021895393805
C   -0.00000059327114      5.65044773803267      0.00045449734393
C   6.13477559217374     -0.68055448207492      0.00042622874941
C   2.47813196269732      5.65357712333155      0.00063835075260
C   1.22142288457925     -4.97012668293268     -0.00129718634452
C   -3.69316190412301      3.54279732619245     -0.00139355922051
C   -1.22142804110313     -4.97011793159564     -0.00140994817719
C   -4.91452132810043      1.42717581899491     -0.00153192130862
C   3.65678749952045     -4.97295485423912      0.00080007163680
C   -2.47813805026426      5.65357479452875      0.00092287576113
C   -3.69314125872231     -3.54278984697859      0.00136564082345
C   -4.91451200321153     -1.42718062802730      0.00139857359209
C   -0.00000552908399     -5.65043791501335      0.00005899322272
C   -4.89302000425900      2.82518897091939     -0.00040227981744
C   2.47812647313991     -5.65357317188818     -0.00029052915548
C   -3.65679823041642      4.97295655404175     -0.00047374852278
C   -4.89299899901461     -2.82519139505969      0.00006491824035
C   -2.47812801824129     -5.65356579800621     -0.00056571680280
C   -6.13477002348955      0.68054913825639     -0.00086464346868
C   -3.65678835334731     -4.97294365097028      0.00058578382008
C   -6.13476456307132     -0.68055354348201      0.00040575295444
H   5.83528897565761      3.36927626695423      0.00396712770529
H   7.07385965258860      1.22821762089947     -0.00037744837300
H   4.60066374401555      5.51238117445323     -0.00014522814529
H   5.83528386714679     -3.36930568472863     -0.00423551337640
H   -0.00001167146422      6.73853104613662     -0.00389474766392
H   7.07386165167227     -1.22822657074368     -0.00008250934481
H   2.47331421164041      6.74068466339473      0.00017162982210
H   4.60066897122302     -5.51237575717576      0.00039007446835
H   -2.47331820069565      6.74068209160650      0.00047297644710
H   -0.00000978838621     -6.73852780445195      0.00458867820736
H   -5.83530143450167      3.36927132229595      0.00410314985360
H   2.47330840367253     -6.74068500242887      0.00027980126949
H   -4.60067436136587      5.51237839860371      0.00002010017831
H   -5.83527902699321     -3.36928859177951     -0.00451481925734
H   -2.47329986759855     -6.74067870613986     -0.00016951527498
H   -7.07385728692578      1.22822084484047     -0.00046143985387
H   -4.60067330624313     -5.51236229778631      0.00021776644566
H   -7.07385645456741     -1.22822025997701     -0.00017736581114

    units angstrom      # Angstroms are the default
    no_reorient         # Geometry fixed, default
    symmetry c1         # C1 symmetry, default
}

set {
    scf_type DF         # Density fitting, faster than exact integrals
    freeze_core True    # Freeze core electrons
    basis jun-cc-pVDZ   # Jun-cc-pVDZ basis set, recommended for sSAPT0 in https://doi.org/10.1063/1.4867135
}

energy('ssapt0')        # Compute sSAPT0 energy, includes also SAPT0
--------------------------------------------------------------------------

  Memory set to  29.802 GiB by Python driver.

Scratch directory: /state/partition1/slurm_tmp/24798280.4294967291.0/
   => Loading Basis Set <=

    Name: JUN-CC-PVDZ
    Role: ORBITAL
    Keyword: BASIS
    atoms 1-2, 4-5, 10, 17-70 entry C          line   164 file /home/gridsan/tfroembgen/.conda/envs/psi4test/share/psi4/basis/jun-cc-pvdz.gbs 
    atoms 3, 6                entry N          line   198 file /home/gridsan/tfroembgen/.conda/envs/psi4test/share/psi4/basis/jun-cc-pvdz.gbs 
    atoms 7-9, 11-16, 71-88   entry H          line    36 file /home/gridsan/tfroembgen/.conda/envs/psi4test/share/psi4/basis/jun-cc-pvdz.gbs 

   => Loading Basis Set <=

    Name: JUN-CC-PVDZ
    Role: ORBITAL
    Keyword: BASIS
    atoms 1-2, 4-5, 10, 17-70 entry C          line   164 file /home/gridsan/tfroembgen/.conda/envs/psi4test/share/psi4/basis/jun-cc-pvdz.gbs 
    atoms 3, 6                entry N          line   198 file /home/gridsan/tfroembgen/.conda/envs/psi4test/share/psi4/basis/jun-cc-pvdz.gbs 
    atoms 7-9, 11-16, 71-88   entry H          line    36 file /home/gridsan/tfroembgen/.conda/envs/psi4test/share/psi4/basis/jun-cc-pvdz.gbs 


  //>>>>>>>>>>>>>>>>>>>>>>>>>>>>>>>>>>>//
  //              Dimer HF             //
  //<<<<<<<<<<<<<<<<<<<<<<<<<<<<<<<<<<<//

   => Libint2 <=

    Primary   basis highest AM E, G, H:  7, 7, 4
    Auxiliary basis highest AM E, G, H:  7, 7, 5
    Onebody   basis highest AM E, G, H:  7, 7, 5
    Solid Harmonics ordering:            gaussian

*** tstart() called on d-17-1-1
*** at Mon Jan 22 19:45:13 2024

   => Loading Basis Set <=

    Name: JUN-CC-PVDZ
    Role: ORBITAL
    Keyword: BASIS
    atoms 1-2, 4-5, 10, 17-70 entry C          line   164 file /home/gridsan/tfroembgen/.conda/envs/psi4test/share/psi4/basis/jun-cc-pvdz.gbs 
    atoms 3, 6                entry N          line   198 file /home/gridsan/tfroembgen/.conda/envs/psi4test/share/psi4/basis/jun-cc-pvdz.gbs 
    atoms 7-9, 11-16, 71-88   entry H          line    36 file /home/gridsan/tfroembgen/.conda/envs/psi4test/share/psi4/basis/jun-cc-pvdz.gbs 


         ---------------------------------------------------------
                                   SCF
               by Justin Turney, Rob Parrish, Andy Simmonett
                          and Daniel G. A. Smith
                              RHF Reference
                       12 Threads,  30517 MiB Core
         ---------------------------------------------------------

  ==> Geometry <==

    Molecular point group: c1
    Full point group: C1

    Geometry (in Angstrom), charge = 1, multiplicity = 1:

       Center              X                  Y                   Z               Mass       
    ------------   -----------------  -----------------  -----------------  -----------------
         C            0.680066520158    -0.008042372515    -7.849257902023    12.000000000000
         C           -0.680504479842    -0.006014372515    -7.848873902023    12.000000000000
         N           -1.085635479842    -0.005016372515    -6.530549902023    14.003074004430
         C            0.000107520158    -0.001740372515    -5.749148902023    12.000000000000
         C           -2.477365479842     0.044389627485    -6.062570902023    12.000000000000
         N            1.085221520158    -0.005016372515    -6.530549902023    14.003074004430
         H            1.385145520158    -0.015870372515    -8.666696902023     1.007825032230
         H           -1.385302479842    -0.006204372515    -8.666542902023     1.007825032230
         H           -0.000009479842     0.000006627485    -4.668059902023     1.007825032230
         C            2.478116520158    -0.021908372515    -6.065451902023    12.000000000000
         H            2.490591520158     0.005436627485    -4.975198902023     1.007825032230
         H            2.967027520158    -0.935354372515    -6.412627902023     1.007825032230
         H            3.001427520158     0.853574627485    -6.456923902023     1.007825032230
         H           -2.857359479842     1.066460627485    -6.142529902023     1.007825032230
         H           -3.082679479842    -0.625694372515    -6.675634902023     1.007825032230
         H           -2.518128479842    -0.282594372515    -5.022622902023     1.007825032230
         C            1.225311895423     0.707538288405     0.972808725261    12.000000000000
         C            1.225323856051    -0.707538895085     0.960477915690    12.000000000000
         C           -0.000006153932     1.414965913575     0.959944292170    12.000000000000
         C            2.456448753949     1.418327886663     0.975695582661    12.000000000000
         C            0.000010827279    -1.414976499150     0.970143849494    12.000000000000
         C           -1.225300948908     0.707545373469     0.975060245583    12.000000000000
         C            2.456437755320    -1.418323304396     0.958232758834    12.000000000000
         C           -0.000001332978     2.836801030766     0.957540742036    12.000000000000
         C            3.681826697470     0.709317955486     0.958581548631    12.000000000000
         C            2.455120048865     2.834223660974     0.958478991671    12.000000000000
         C            3.681821105219    -0.709333839944     0.974654032650    12.000000000000
         C           -1.225313598688    -0.707527516059     0.961550677117    12.000000000000
         C            1.226699581202     3.543469483479     0.974838064580    12.000000000000
         C            0.000004784858    -2.836782139751     0.974992017116    12.000000000000
         C           -2.456436032848     1.418316917770     0.975095641429    12.000000000000
         C            2.455123417779    -2.834230029103     0.974502124282    12.000000000000
         C           -1.226714364589     3.543469063235     0.974941397800    12.000000000000
         C            4.914517295202     1.427172871975     0.965062231661    12.000000000000
         C            3.693150191476     3.542795292030     0.965112031297    12.000000000000
         C           -2.456437600068    -1.418313281354     0.958207720709    12.000000000000
         C            1.226704841943    -3.543474242421     0.958867933831    12.000000000000
         C           -2.455125398508     2.834216662119     0.958485368017    12.000000000000
         C            4.914524380782    -1.427186910459     0.968034974395    12.000000000000
         C            1.221424613699     4.970134064745     0.968173408655    12.000000000000
         C            4.893008229321     2.825187999512     0.966278900020    12.000000000000
         C           -1.226697008489    -3.543470997592     0.959135138240    12.000000000000
         C           -3.681818976526     0.709324966217     0.958594229111    12.000000000000
         C            3.693147101150    -3.542801341905     0.968152864956    12.000000000000
         C           -1.221432251994     4.970128297348     0.968356904028    12.000000000000
         C            6.134770972926     0.680547946591     0.965832006211    12.000000000000
         C            3.656788880610     4.972953243053     0.966020669080    12.000000000000
         C           -2.455126907733    -2.834215093576     0.974257766484    12.000000000000
         C           -3.681819179061    -0.709325703983     0.974771654228    12.000000000000
         C            4.893012617914    -2.825200106147     0.966890051915    12.000000000000
         C           -0.000001073113     5.650447365518     0.967125595321    12.000000000000
         C            6.134775112332    -0.680554854590     0.967097326726    12.000000000000
         C            2.478131482856     5.653576750817     0.967309448730    12.000000000000
         C            1.221422404738    -4.970127055448     0.965373911633    12.000000000000
         C           -3.693162383965     3.542796953677     0.965277538757    12.000000000000
         C           -1.221428520945    -4.970118304111     0.965261149800    12.000000000000
         C           -4.914521807942     1.427175446480     0.965139176668    12.000000000000
         C            3.656787019679    -4.972955226754     0.967471169614    12.000000000000
         C           -2.478138530106     5.653574422014     0.967593973738    12.000000000000
         C           -3.693141738564    -3.542790219494     0.968036738800    12.000000000000
         C           -4.914512483053    -1.427181000542     0.968069671569    12.000000000000
         C           -0.000006008926    -5.650438287528     0.966730091200    12.000000000000
         C           -4.893020484101     2.825188598404     0.966268818160    12.000000000000
         C            2.478125993298    -5.653573544403     0.966380568822    12.000000000000
         C           -3.656798710258     4.972956181527     0.966197349454    12.000000000000
         C           -4.892999478856    -2.825191767575     0.966736016217    12.000000000000
         C           -2.478128498083    -5.653566170521     0.966105381174    12.000000000000
         C           -6.134770503331     0.680548765741     0.965806454508    12.000000000000
         C           -3.656788833189    -4.972944023485     0.967256881797    12.000000000000
         C           -6.134765042913    -0.680553915997     0.967076850931    12.000000000000
         H            5.835288495816     3.369275894439     0.970638225682     1.007825032230
         H            7.073859172747     1.228217248385     0.966293649604     1.007825032230
         H            4.600663264174     5.512380801938     0.966525869832     1.007825032230
         H            5.835283387305    -3.369306057244     0.962435584601     1.007825032230
         H           -0.000012151306     6.738530673622     0.962776350313     1.007825032230
         H            7.073861171831    -1.228226943259     0.966588588632     1.007825032230
         H            2.473313731799     6.740684290880     0.966842727799     1.007825032230
         H            4.600668491381    -5.512376129691     0.967061172445     1.007825032230
         H           -2.473318680537     6.740681719092     0.967144074424     1.007825032230
         H           -0.000010268228    -6.738528176967     0.971259776184     1.007825032230
         H           -5.835301914343     3.369270949781     0.970774247831     1.007825032230
         H            2.473307923831    -6.740685374944     0.966950899247     1.007825032230
         H           -4.600674841208     5.512378026089     0.966691198155     1.007825032230
         H           -5.835279506835    -3.369288964294     0.962156278720     1.007825032230
         H           -2.473300347440    -6.740679078655     0.966501582702     1.007825032230
         H           -7.073857766768     1.228220472326     0.966209658123     1.007825032230
         H           -4.600673786085    -5.512362670301     0.966888864423     1.007825032230
         H           -7.073856934409    -1.228220632492     0.966493732166     1.007825032230

  Running in c1 symmetry.

  Rotational constants: A =      0.00134  B =      0.00132  C =      0.00109 [cm^-1]
  Rotational constants: A =     40.20491  B =     39.45379  C =     32.71081 [MHz]
  Nuclear repulsion = 7830.339801389890454

  Charge       = 1
  Multiplicity = 1
  Electrons    = 394
  Nalpha       = 197
  Nbeta        = 197

  ==> Algorithm <==

  SCF Algorithm Type is DF.
  DIIS enabled.
  MOM disabled.
  Fractional occupation disabled.
  Guess Type is SAD.
  Energy threshold   = 1.00e-08
  Density threshold  = 1.00e-08
  Integral threshold = 1.00e-12

  ==> Primary Basis <==

  Basis Set: JUN-CC-PVDZ
    Blend: JUN-CC-PVDZ
    Number of shells: 569
    Number of basis functions: 1233
    Number of Cartesian functions: 1294
    Spherical Harmonics?: true
    Max angular momentum: 2

   => Loading Basis Set <=

    Name: (JUN-CC-PVDZ AUX)
    Role: JKFIT
    Keyword: DF_BASIS_SCF
    atoms 1-2, 4-5, 10, 17-70 entry C          line   146 file /home/gridsan/tfroembgen/.conda/envs/psi4test/share/psi4/basis/jun-cc-pvdz-jkfit.gbs 
    atoms 3, 6                entry N          line   202 file /home/gridsan/tfroembgen/.conda/envs/psi4test/share/psi4/basis/jun-cc-pvdz-jkfit.gbs 
    atoms 7-9, 11-16, 71-88   entry H          line    70 file /home/gridsan/tfroembgen/.conda/envs/psi4test/share/psi4/basis/jun-cc-pvdz-jkfit.gbs 

  ==> Integral Setup <==

  ==> DiskDFJK: Density-Fitted J/K Matrices <==

    J tasked:                  Yes
    K tasked:                  Yes
    wK tasked:                  No
    OpenMP threads:             12
    Integrals threads:          12
    Memory [MiB]:            22888
    Algorithm:                Core
    Integral Cache:           SAVE
    Schwarz Cutoff:          1E-12
    Fitting Condition:       1E-10

   => Auxiliary Basis Set <=

  Basis Set: (JUN-CC-PVDZ AUX)
    Blend: JUN-CC-PVDZ-JKFIT
    Number of shells: 1890
    Number of basis functions: 5440
    Number of Cartesian functions: 6226
    Spherical Harmonics?: true
    Max angular momentum: 3

  Minimum eigenvalue in the overlap matrix is 8.3917680624E-10.
  Reciprocal condition number of the overlap matrix is 3.7524093559E-11.
    Using canonical orthogonalization.
  Overall, 14 of 1233 possible MOs eliminated.


  ==> Pre-Iterations <==

  SCF Guess: Superposition of Atomic Densities via on-the-fly atomic UHF (no occupation information).

   -------------------------
    Irrep   Nso     Nmo    
   -------------------------
     A       1233    1219 
   -------------------------
    Total    1233    1219
   -------------------------

  ==> Iterations <==

                           Total Energy        Delta E     RMS |[F,P]|

   @DF-RHF iter SAD: -2365.39422914015677   -2.36539e+03   0.00000e+00 
   @DF-RHF iter   1: -2358.19121677894691    7.20301e+00   9.47456e-04 ADIIS/DIIS
   @DF-RHF iter   2: -2359.09094577269207   -8.99729e-01   3.22895e-04 ADIIS/DIIS
   @DF-RHF iter   3: -2359.18273048752735   -9.17847e-02   1.18236e-04 ADIIS/DIIS
   @DF-RHF iter   4: -2359.19588745732290   -1.31570e-02   4.43416e-05 DIIS
   @DF-RHF iter   5: -2359.19780261384085   -1.91516e-03   9.91322e-06 DIIS
   @DF-RHF iter   6: -2359.19797739860132   -1.74785e-04   5.05583e-06 DIIS
   @DF-RHF iter   7: -2359.19804494824530   -6.75496e-05   2.23864e-06 DIIS
   @DF-RHF iter   8: -2359.19806510752460   -2.01593e-05   1.13926e-06 DIIS
   @DF-RHF iter   9: -2359.19807003802453   -4.93050e-06   2.60387e-07 DIIS
   @DF-RHF iter  10: -2359.19807027877869   -2.40754e-07   8.72197e-08 DIIS
   @DF-RHF iter  11: -2359.19807029644926   -1.76706e-08   3.22636e-08 DIIS
   @DF-RHF iter  12: -2359.19807030006314   -3.61388e-09   1.23209e-08 DIIS
   @DF-RHF iter  13: -2359.19807030042284   -3.59705e-10   5.28232e-09 DIIS
  Energy and wave function converged.


  ==> Post-Iterations <==

    Orbital Energies [Eh]
    ---------------------

    Doubly Occupied:                                                      

       1A    -15.824190     2A    -15.823671     3A    -11.518851  
       4A    -11.450480     5A    -11.448925     6A    -11.439003  
       7A    -11.438899     8A    -11.320445     9A    -11.319980  
      10A    -11.319941    11A    -11.318986    12A    -11.318937  
      13A    -11.318531    14A    -11.317692    15A    -11.317685  
      16A    -11.317579    17A    -11.317553    18A    -11.317398  
      19A    -11.317332    20A    -11.316143    21A    -11.316132  
      22A    -11.315943    23A    -11.315907    24A    -11.315864  
      25A    -11.315834    26A    -11.315740    27A    -11.315735  
      28A    -11.315503    29A    -11.315490    30A    -11.315451  
      31A    -11.315449    32A    -11.315098    33A    -11.315093  
      34A    -11.314865    35A    -11.314856    36A    -11.314851  
      37A    -11.314839    38A    -11.314495    39A    -11.314489  
      40A    -11.314275    41A    -11.314269    42A    -11.314207  
      43A    -11.314201    44A    -11.308232    45A    -11.308229  
      46A    -11.308193    47A    -11.308191    48A    -11.307958  
      49A    -11.307954    50A    -11.307910    51A    -11.307877  
      52A    -11.307491    53A    -11.307485    54A    -11.307481  
      55A    -11.307478    56A    -11.306530    57A    -11.306526  
      58A    -11.306056    59A    -11.306052    60A    -11.306048  
      61A    -11.306046    62A     -1.567977    63A     -1.423482  
      64A     -1.303206    65A     -1.278136    66A     -1.277926  
      67A     -1.247192    68A     -1.247171    69A     -1.239342  
      70A     -1.228638    71A     -1.214589    72A     -1.206478  
      73A     -1.193675    74A     -1.193482    75A     -1.178852  
      76A     -1.170147    77A     -1.170106    78A     -1.140234  
      79A     -1.140218    80A     -1.136426    81A     -1.122749  
      82A     -1.122732    83A     -1.108396    84A     -1.096551  
      85A     -1.082525    86A     -1.080053    87A     -1.079959  
      88A     -1.074589    89A     -1.069354    90A     -1.044639  
      91A     -1.044571    92A     -1.018808    93A     -1.018793  
      94A     -1.012535    95A     -0.986521    96A     -0.951350  
      97A     -0.951275    98A     -0.946107    99A     -0.944338  
     100A     -0.944181   101A     -0.939079   102A     -0.938987  
     103A     -0.918774   104A     -0.906657   105A     -0.893500  
     106A     -0.875253   107A     -0.874451   108A     -0.869703  
     109A     -0.869588   110A     -0.851227   111A     -0.851226  
     112A     -0.840217   113A     -0.806343   114A     -0.804471  
     115A     -0.802480   116A     -0.802368   117A     -0.791057  
     118A     -0.790904   119A     -0.788812   120A     -0.788720  
     121A     -0.780066   122A     -0.775854   123A     -0.773726  
     124A     -0.772123   125A     -0.755929   126A     -0.755777  
     127A     -0.750820   128A     -0.750665   129A     -0.718926  
     130A     -0.717703   131A     -0.715091   132A     -0.710381  
     133A     -0.708814   134A     -0.706783   135A     -0.706670  
     136A     -0.706614   137A     -0.696130   138A     -0.696060  
     139A     -0.686969   140A     -0.684776   141A     -0.684759  
     142A     -0.666058   143A     -0.661028   144A     -0.659175  
     145A     -0.656441   146A     -0.656252   147A     -0.651034  
     148A     -0.649136   149A     -0.649004   150A     -0.641080  
     151A     -0.634974   152A     -0.634647   153A     -0.623580  
     154A     -0.623516   155A     -0.623462   156A     -0.623317  
     157A     -0.616080   158A     -0.611233   159A     -0.611061  
     160A     -0.595954   161A     -0.595914   162A     -0.595011  
     163A     -0.594975   164A     -0.586828   165A     -0.586619  
     166A     -0.586179   167A     -0.579813   168A     -0.579645  
     169A     -0.556768   170A     -0.552568   171A     -0.549746  
     172A     -0.545329   173A     -0.542441   174A     -0.538758  
     175A     -0.538705   176A     -0.528782   177A     -0.528513  
     178A     -0.514203   179A     -0.508939   180A     -0.508765  
     181A     -0.495885   182A     -0.495838   183A     -0.462754  
     184A     -0.462753   185A     -0.461445   186A     -0.431973  
     187A     -0.431948   188A     -0.406417   189A     -0.396626  
     190A     -0.395621   191A     -0.395499   192A     -0.368130  
     193A     -0.354160   194A     -0.342523   195A     -0.342468  
     196A     -0.282181   197A     -0.282105  

    Virtual:                                                              

     198A     -0.058399   199A     -0.053255   200A     -0.045726  
     201A     -0.043307   202A     -0.043113   203A     -0.038999  
     204A     -0.023264   205A     -0.021354   206A     -0.020596  
     207A     -0.015675   208A     -0.002567   209A      0.000592  
     210A      0.002164   211A      0.002523   212A      0.004152  
     213A      0.004594   214A      0.006517   215A      0.006741  
     216A      0.007043   217A      0.009952   218A      0.011002  
     219A      0.011575   220A      0.013006   221A      0.017065  
     222A      0.025684   223A      0.027599   224A      0.027807  
     225A      0.027819   226A      0.029711   227A      0.029843  
     228A      0.031929   229A      0.032758   230A      0.033627  
     231A      0.039096   232A      0.042206   233A      0.042856  
     234A      0.043540   235A      0.044105   236A      0.044143  
     237A      0.047293   238A      0.049879   239A      0.052804  
     240A      0.054548   241A      0.055797   242A      0.061580  
     243A      0.062276   244A      0.063018   245A      0.063969  
     246A      0.067930   247A      0.069183   248A      0.071167  
     249A      0.075282   250A      0.076105   251A      0.077651  
     252A      0.081776   253A      0.082121   254A      0.082830  
     255A      0.085607   256A      0.085690   257A      0.086330  
     258A      0.086634   259A      0.087029   260A      0.090602  
     261A      0.092201   262A      0.093382   263A      0.099317  
     264A      0.099618   265A      0.101241   266A      0.103961  
     267A      0.106176   268A      0.106265   269A      0.109449  
     270A      0.110842   271A      0.114693   272A      0.117910  
     273A      0.119195   274A      0.120960   275A      0.124365  
     276A      0.127570   277A      0.128045   278A      0.128991  
     279A      0.131131   280A      0.132671   281A      0.133052  
     282A      0.133184   283A      0.135629   284A      0.137227  
     285A      0.137918   286A      0.138995   287A      0.139810  
     288A      0.142261   289A      0.143877   290A      0.144859  
     291A      0.147674   292A      0.150365   293A      0.154179  
     294A      0.154395   295A      0.154886   296A      0.156076  
     297A      0.159272   298A      0.160433   299A      0.160879  
     300A      0.161059   301A      0.161853   302A      0.162429  
     303A      0.163103   304A      0.164926   305A      0.165322  
     306A      0.167711   307A      0.170481   308A      0.171551  
     309A      0.172556   310A      0.176380   311A      0.177029  
     312A      0.177251   313A      0.178193   314A      0.179875  
     315A      0.180057   316A      0.181128   317A      0.182328  
     318A      0.182731   319A      0.183032   320A      0.187133  
     321A      0.189390   322A      0.193211   323A      0.194712  
     324A      0.195188   325A      0.198651   326A      0.199896  
     327A      0.200965   328A      0.202148   329A      0.202653  
     330A      0.203372   331A      0.204142   332A      0.205382  
     333A      0.205562   334A      0.209748   335A      0.213522  
     336A      0.213888   337A      0.214429   338A      0.215316  
     339A      0.215561   340A      0.217073   341A      0.217129  
     342A      0.220697   343A      0.221057   344A      0.223902  
     345A      0.227573   346A      0.229451   347A      0.232593  
     348A      0.233111   349A      0.233834   350A      0.236683  
     351A      0.240281   352A      0.242126   353A      0.243330  
     354A      0.243618   355A      0.247610   356A      0.248275  
     357A      0.248912   358A      0.249684   359A      0.253218  
     360A      0.254535   361A      0.254927   362A      0.255634  
     363A      0.257356   364A      0.258394   365A      0.258831  
     366A      0.260114   367A      0.260907   368A      0.261929  
     369A      0.263816   370A      0.265215   371A      0.266658  
     372A      0.267649   373A      0.268138   374A      0.268316  
     375A      0.268429   376A      0.269613   377A      0.271280  
     378A      0.275367   379A      0.278019   380A      0.278190  
     381A      0.281198   382A      0.283848   383A      0.285423  
     384A      0.287916   385A      0.289169   386A      0.291325  
     387A      0.292653   388A      0.293258   389A      0.294728  
     390A      0.297209   391A      0.297387   392A      0.298304  
     393A      0.299166   394A      0.300087   395A      0.300744  
     396A      0.302992   397A      0.307092   398A      0.308358  
     399A      0.311731   400A      0.313023   401A      0.315192  
     402A      0.318598   403A      0.318872   404A      0.319725  
     405A      0.319917   406A      0.321269   407A      0.328777  
     408A      0.329287   409A      0.330051   410A      0.332757  
     411A      0.335275   412A      0.335471   413A      0.335561  
     414A      0.336740   415A      0.339015   416A      0.340248  
     417A      0.340551   418A      0.341665   419A      0.342082  
     420A      0.342631   421A      0.346564   422A      0.346964  
     423A      0.349659   424A      0.351492   425A      0.351644  
     426A      0.352086   427A      0.352520   428A      0.352826  
     429A      0.355515   430A      0.356661   431A      0.357742  
     432A      0.359309   433A      0.361244   434A      0.364387  
     435A      0.366404   436A      0.367957   437A      0.368747  
     438A      0.369502   439A      0.375731   440A      0.377434  
     441A      0.380665   442A      0.381391   443A      0.383836  
     444A      0.387881   445A      0.388107   446A      0.389738  
     447A      0.389947   448A      0.393043   449A      0.394207  
     450A      0.394212   451A      0.397747   452A      0.399833  
     453A      0.400257   454A      0.403874   455A      0.404165  
     456A      0.404604   457A      0.405423   458A      0.406128  
     459A      0.407727   460A      0.412114   461A      0.414694  
     462A      0.415957   463A      0.418205   464A      0.418853  
     465A      0.420875   466A      0.425523   467A      0.425985  
     468A      0.428127   469A      0.428543   470A      0.437899  
     471A      0.438044   472A      0.438825   473A      0.439457  
     474A      0.440356   475A      0.442273   476A      0.445594  
     477A      0.445847   478A      0.450368   479A      0.451026  
     480A      0.454043   481A      0.455066   482A      0.456553  
     483A      0.456705   484A      0.457618   485A      0.462323  
     486A      0.462868   487A      0.467431   488A      0.469018  
     489A      0.469362   490A      0.471245   491A      0.482241  
     492A      0.482298   493A      0.485315   494A      0.486501  
     495A      0.487596   496A      0.492208   497A      0.492650  
     498A      0.493375   499A      0.495831   500A      0.495870  
     501A      0.497902   502A      0.499645   503A      0.499944  
     504A      0.504079   505A      0.505914   506A      0.506049  
     507A      0.511608   508A      0.513075   509A      0.513365  
     510A      0.518588   511A      0.529809   512A      0.530461  
     513A      0.540168   514A      0.540723   515A      0.541673  
     516A      0.549745   517A      0.557050   518A      0.557650  
     519A      0.564503   520A      0.564911   521A      0.570437  
     522A      0.570507   523A      0.577242   524A      0.587545  
     525A      0.592719   526A      0.592884   527A      0.597666  
     528A      0.610505   529A      0.610549   530A      0.613349  
     531A      0.619733   532A      0.621087   533A      0.621209  
     534A      0.628135   535A      0.640446   536A      0.658632  
     537A      0.659703   538A      0.661493   539A      0.663552  
     540A      0.674279   541A      0.676169   542A      0.684425  
     543A      0.686454   544A      0.687261   545A      0.687465  
     546A      0.687688   547A      0.691587   548A      0.698758  
     549A      0.700855   550A      0.701027   551A      0.704143  
     552A      0.708557   553A      0.714796   554A      0.716373  
     555A      0.722447   556A      0.730009   557A      0.734827  
     558A      0.738918   559A      0.742183   560A      0.749105  
     561A      0.749449   562A      0.750142   563A      0.752725  
     564A      0.757253   565A      0.757958   566A      0.759159  
     567A      0.764485   568A      0.766985   569A      0.770659  
     570A      0.771745   571A      0.771916   572A      0.778012  
     573A      0.778324   574A      0.781857   575A      0.787664  
     576A      0.790228   577A      0.796525   578A      0.799479  
     579A      0.799901   580A      0.800617   581A      0.803639  
     582A      0.807679   583A      0.808455   584A      0.810493  
     585A      0.816138   586A      0.816507   587A      0.817405  
     588A      0.818691   589A      0.821943   590A      0.822028  
     591A      0.824247   592A      0.829858   593A      0.832611  
     594A      0.833108   595A      0.840989   596A      0.841593  
     597A      0.842345   598A      0.843395   599A      0.844123  
     600A      0.849403   601A      0.852331   602A      0.852738  
     603A      0.853332   604A      0.856450   605A      0.856874  
     606A      0.859358   607A      0.859644   608A      0.861116  
     609A      0.866403   610A      0.866762   611A      0.872422  
     612A      0.875617   613A      0.875648   614A      0.877207  
     615A      0.879708   616A      0.879749   617A      0.882533  
     618A      0.885687   619A      0.886631   620A      0.889318  
     621A      0.890241   622A      0.895810   623A      0.901120  
     624A      0.902064   625A      0.905407   626A      0.913499  
     627A      0.914777   628A      0.915044   629A      0.915403  
     630A      0.916002   631A      0.917126   632A      0.917174  
     633A      0.921381   634A      0.923931   635A      0.925562  
     636A      0.931417   637A      0.931872   638A      0.937731  
     639A      0.941895   640A      0.942086   641A      0.949264  
     642A      0.956483   643A      0.959810   644A      0.960535  
     645A      0.961634   646A      0.962790   647A      0.963718  
     648A      0.967318   649A      0.973431   650A      0.976061  
     651A      0.978315   652A      0.978814   653A      0.979122  
     654A      0.980401   655A      0.982760   656A      0.983212  
     657A      0.983764   658A      0.985437   659A      0.988526  
     660A      0.989040   661A      0.989223   662A      0.989708  
     663A      0.990072   664A      0.991945   665A      0.992654  
     666A      0.999075   667A      0.999461   668A      1.003763  
     669A      1.004441   670A      1.005012   671A      1.005355  
     672A      1.011584   673A      1.013371   674A      1.015112  
     675A      1.015872   676A      1.018587   677A      1.021641  
     678A      1.025889   679A      1.027403   680A      1.027800  
     681A      1.028931   682A      1.031661   683A      1.033255  
     684A      1.036761   685A      1.040648   686A      1.046135  
     687A      1.047742   688A      1.048214   689A      1.050653  
     690A      1.055718   691A      1.059205   692A      1.059778  
     693A      1.059947   694A      1.060599   695A      1.064278  
     696A      1.064493   697A      1.068268   698A      1.069127  
     699A      1.070982   700A      1.075936   701A      1.076792  
     702A      1.077745   703A      1.078029   704A      1.083516  
     705A      1.083606   706A      1.084482   707A      1.087159  
     708A      1.088580   709A      1.097718   710A      1.110111  
     711A      1.111054   712A      1.114329   713A      1.117164  
     714A      1.120386   715A      1.120652   716A      1.125196  
     717A      1.125643   718A      1.126271   719A      1.128249  
     720A      1.136066   721A      1.139901   722A      1.140837  
     723A      1.142640   724A      1.143321   725A      1.150867  
     726A      1.154352   727A      1.159853   728A      1.161621  
     729A      1.161804   730A      1.164176   731A      1.166511  
     732A      1.166711   733A      1.174993   734A      1.183365  
     735A      1.183756   736A      1.184057   737A      1.201186  
     738A      1.204552   739A      1.206162   740A      1.206417  
     741A      1.206464   742A      1.207005   743A      1.210068  
     744A      1.210440   745A      1.212078   746A      1.221241  
     747A      1.227348   748A      1.238557   749A      1.238571  
     750A      1.240657   751A      1.241743   752A      1.242071  
     753A      1.244875   754A      1.252116   755A      1.252325  
     756A      1.253630   757A      1.254921   758A      1.262798  
     759A      1.263505   760A      1.265156   761A      1.265719  
     762A      1.273019   763A      1.273196   764A      1.277538  
     765A      1.280470   766A      1.282915   767A      1.285314  
     768A      1.286362   769A      1.288460   770A      1.294510  
     771A      1.295745   772A      1.297098   773A      1.297548  
     774A      1.301295   775A      1.301950   776A      1.303449  
     777A      1.306000   778A      1.308699   779A      1.311820  
     780A      1.324566   781A      1.334052   782A      1.334923  
     783A      1.345688   784A      1.346399   785A      1.347947  
     786A      1.350437   787A      1.351141   788A      1.355482  
     789A      1.356027   790A      1.361863   791A      1.362468  
     792A      1.366853   793A      1.368143   794A      1.371113  
     795A      1.371510   796A      1.378006   797A      1.380326  
     798A      1.380526   799A      1.382267   800A      1.382992  
     801A      1.383485   802A      1.384003   803A      1.391711  
     804A      1.392781   805A      1.393690   806A      1.405489  
     807A      1.406164   808A      1.414969   809A      1.416690  
     810A      1.435788   811A      1.459850   812A      1.460223  
     813A      1.463663   814A      1.463822   815A      1.476041  
     816A      1.476627   817A      1.488681   818A      1.494744  
     819A      1.513654   820A      1.518896   821A      1.529279  
     822A      1.540904   823A      1.541908   824A      1.542433  
     825A      1.550234   826A      1.550790   827A      1.551619  
     828A      1.553416   829A      1.553776   830A      1.557812  
     831A      1.564213   832A      1.564605   833A      1.571565  
     834A      1.571850   835A      1.575088   836A      1.582898  
     837A      1.582926   838A      1.585591   839A      1.585867  
     840A      1.585902   841A      1.585996   842A      1.594021  
     843A      1.604061   844A      1.604085   845A      1.610550  
     846A      1.617139   847A      1.617787   848A      1.617874  
     849A      1.619242   850A      1.620078   851A      1.620288  
     852A      1.626616   853A      1.629138   854A      1.629196  
     855A      1.630634   856A      1.639201   857A      1.640960  
     858A      1.642560   859A      1.642796   860A      1.643468  
     861A      1.646354   862A      1.646464   863A      1.659185  
     864A      1.659357   865A      1.673308   866A      1.680686  
     867A      1.684456   868A      1.692438   869A      1.693710  
     870A      1.703603   871A      1.704328   872A      1.705007  
     873A      1.705815   874A      1.707900   875A      1.719831  
     876A      1.719854   877A      1.734614   878A      1.734686  
     879A      1.744575   880A      1.758069   881A      1.759480  
     882A      1.760162   883A      1.760240   884A      1.760604  
     885A      1.762063   886A      1.766746   887A      1.766869  
     888A      1.767643   889A      1.773858   890A      1.774173  
     891A      1.780882   892A      1.784692   893A      1.785021  
     894A      1.796184   895A      1.803853   896A      1.804543  
     897A      1.804863   898A      1.805026   899A      1.807630  
     900A      1.812485   901A      1.815121   902A      1.820776  
     903A      1.822439   904A      1.822553   905A      1.823197  
     906A      1.829093   907A      1.839159   908A      1.839235  
     909A      1.843726   910A      1.847271   911A      1.847402  
     912A      1.851139   913A      1.851336   914A      1.855812  
     915A      1.857800   916A      1.859516   917A      1.860459  
     918A      1.860657   919A      1.861915   920A      1.864734  
     921A      1.864963   922A      1.870063   923A      1.880428  
     924A      1.883937   925A      1.885504   926A      1.885747  
     927A      1.886182   928A      1.891520   929A      1.891588  
     930A      1.896110   931A      1.896868   932A      1.897194  
     933A      1.897674   934A      1.900860   935A      1.906662  
     936A      1.909720   937A      1.915326   938A      1.925010  
     939A      1.925403   940A      1.933624   941A      1.940238  
     942A      1.942222   943A      1.942255   944A      1.949156  
     945A      1.952695   946A      1.955973   947A      1.956095  
     948A      1.958581   949A      1.970194   950A      1.972293  
     951A      1.973294   952A      1.973425   953A      1.973918  
     954A      1.974419   955A      1.974603   956A      1.978861  
     957A      1.991544   958A      1.995236   959A      1.995541  
     960A      2.000211   961A      2.001312   962A      2.002969  
     963A      2.003984   964A      2.010652   965A      2.012952  
     966A      2.013425   967A      2.014255   968A      2.017427  
     969A      2.018545   970A      2.020278   971A      2.024702  
     972A      2.027009   973A      2.027490   974A      2.037152  
     975A      2.038507   976A      2.040430   977A      2.040486  
     978A      2.043628   979A      2.043938   980A      2.050441  
     981A      2.051263   982A      2.051450   983A      2.051857  
     984A      2.052743   985A      2.053581   986A      2.056607  
     987A      2.058322   988A      2.062792   989A      2.062831  
     990A      2.063006   991A      2.063768   992A      2.069708  
     993A      2.070065   994A      2.076737   995A      2.077450  
     996A      2.077682   997A      2.079629   998A      2.079748  
     999A      2.086702  1000A      2.086752  1001A      2.099438  
    1002A      2.101575  1003A      2.101737  1004A      2.104413  
    1005A      2.105618  1006A      2.105739  1007A      2.113207  
    1008A      2.121516  1009A      2.121874  1010A      2.134775  
    1011A      2.134949  1012A      2.135083  1013A      2.137196  
    1014A      2.137225  1015A      2.138651  1016A      2.140207  
    1017A      2.146441  1018A      2.157094  1019A      2.162372  
    1020A      2.162414  1021A      2.162765  1022A      2.168845  
    1023A      2.169850  1024A      2.170966  1025A      2.171411  
    1026A      2.172068  1027A      2.187924  1028A      2.188389  
    1029A      2.188392  1030A      2.188632  1031A      2.191600  
    1032A      2.204447  1033A      2.204608  1034A      2.208855  
    1035A      2.213520  1036A      2.213601  1037A      2.215986  
    1038A      2.216091  1039A      2.225896  1040A      2.233468  
    1041A      2.244144  1042A      2.250303  1043A      2.252728  
    1044A      2.254759  1045A      2.258056  1046A      2.263360  
    1047A      2.264881  1048A      2.272551  1049A      2.272624  
    1050A      2.273421  1051A      2.276094  1052A      2.293120  
    1053A      2.293745  1054A      2.295455  1055A      2.295644  
    1056A      2.304480  1057A      2.308736  1058A      2.308845  
    1059A      2.316055  1060A      2.323008  1061A      2.336208  
    1062A      2.344679  1063A      2.359728  1064A      2.366873  
    1065A      2.367369  1066A      2.367581  1067A      2.380141  
    1068A      2.383743  1069A      2.383789  1070A      2.412902  
    1071A      2.416135  1072A      2.416603  1073A      2.428642  
    1074A      2.428952  1075A      2.445363  1076A      2.453027  
    1077A      2.463118  1078A      2.470425  1079A      2.472668  
    1080A      2.473262  1081A      2.487872  1082A      2.489051  
    1083A      2.489371  1084A      2.496715  1085A      2.498796  
    1086A      2.499054  1087A      2.502931  1088A      2.503041  
    1089A      2.505856  1090A      2.515853  1091A      2.515896  
    1092A      2.519209  1093A      2.519670  1094A      2.529800  
    1095A      2.529909  1096A      2.529987  1097A      2.533000  
    1098A      2.536081  1099A      2.550008  1100A      2.567346  
    1101A      2.567555  1102A      2.569264  1103A      2.573972  
    1104A      2.574457  1105A      2.580968  1106A      2.585092  
    1107A      2.585200  1108A      2.594931  1109A      2.595240  
    1110A      2.600478  1111A      2.612129  1112A      2.624617  
    1113A      2.625676  1114A      2.627510  1115A      2.631304  
    1116A      2.642725  1117A      2.643932  1118A      2.645184  
    1119A      2.655309  1120A      2.655527  1121A      2.661192  
    1122A      2.661396  1123A      2.665643  1124A      2.665704  
    1125A      2.669020  1126A      2.680006  1127A      2.687628  
    1128A      2.687908  1129A      2.695144  1130A      2.696365  
    1131A      2.697413  1132A      2.713530  1133A      2.720457  
    1134A      2.736979  1135A      2.737107  1136A      2.743867  
    1137A      2.754567  1138A      2.759566  1139A      2.769253  
    1140A      2.771464  1141A      2.794166  1142A      2.795314  
    1143A      2.797525  1144A      2.799869  1145A      2.801688  
    1146A      2.801964  1147A      2.803570  1148A      2.812149  
    1149A      2.861012  1150A      2.861118  1151A      2.868217  
    1152A      2.877363  1153A      2.877577  1154A      2.893010  
    1155A      2.893046  1156A      2.906897  1157A      2.924086  
    1158A      2.949616  1159A      2.950567  1160A      2.956363  
    1161A      2.973583  1162A      2.982531  1163A      3.006286  
    1164A      3.006296  1165A      3.013236  1166A      3.013567  
    1167A      3.053105  1168A      3.053751  1169A      3.054272  
    1170A      3.070989  1171A      3.072842  1172A      3.073235  
    1173A      3.073398  1174A      3.081025  1175A      3.089867  
    1176A      3.090138  1177A      3.090274  1178A      3.092776  
    1179A      3.093149  1180A      3.101314  1181A      3.101995  
    1182A      3.109348  1183A      3.110076  1184A      3.135985  
    1185A      3.155336  1186A      3.161748  1187A      3.180972  
    1188A      3.215915  1189A      3.219878  1190A      3.219978  
    1191A      3.224571  1192A      3.224915  1193A      3.358610  
    1194A      3.359042  1195A      3.382262  1196A      3.423348  
    1197A      3.425766  1198A      3.446071  1199A      3.490810  
    1200A      3.518625  1201A      3.520457  1202A      3.534856  
    1203A      3.535660  1204A      3.569263  1205A      3.571281  
    1206A      3.605855  1207A      3.612012  1208A      3.711656  
    1209A      3.724677  1210A      3.725558  1211A      3.814228  
    1212A      3.814393  1213A      3.856117  1214A      3.856409  
    1215A      3.919010  1216A      3.952879  1217A      3.973314  
    1218A      3.985172  1219A      4.021700  

    Final Occupation by Irrep:
              A 
    DOCC [   197 ]
    NA   [   197 ]
    NB   [   197 ]

  @DF-RHF Final Energy: -2359.19807030042284

   => Energetics <=

    Nuclear Repulsion Energy =           7830.3398013898904537
    One-Electron Energy =              -18766.2913931851617235
    Two-Electron Energy =                8576.7535214948475186
    Total Energy =                      -2359.1980703004228417

Computation Completed


Properties will be evaluated at   0.000000,   0.000000,   0.000000 [a0]

Properties computed using the SCF density matrix


 Multipole Moments:

 ------------------------------------------------------------------------------------
     Multipole            Electronic (a.u.)      Nuclear  (a.u.)        Total (a.u.)
 ------------------------------------------------------------------------------------

 L = 1.  Multiply by 2.5417464519 to convert [e a0] to [Debye]
 Dipole X            :         -0.0011741            0.0006313           -0.0005428
 Dipole Y            :         -0.0480156            0.0560211            0.0080055
 Dipole Z            :         26.4630959          -37.7295271          -11.2664311
 Magnitude           :                                                   11.2664340

 ------------------------------------------------------------------------------------

*** tstop() called on d-17-1-1 at Mon Jan 22 19:52:58 2024
Module time:
	user time   =    4210.83 seconds =      70.18 minutes
	system time =     118.92 seconds =       1.98 minutes
	total time  =        465 seconds =       7.75 minutes
Total time:
	user time   =    4210.83 seconds =      70.18 minutes
	system time =     118.92 seconds =       1.98 minutes
	total time  =        465 seconds =       7.75 minutes

  //>>>>>>>>>>>>>>>>>>>>>>>>>>>>>>>>>>>//
  //            Monomer A HF           //
  //<<<<<<<<<<<<<<<<<<<<<<<<<<<<<<<<<<<//

   => Libint2 <=

    Primary   basis highest AM E, G, H:  7, 7, 4
    Auxiliary basis highest AM E, G, H:  7, 7, 5
    Onebody   basis highest AM E, G, H:  7, 7, 5
    Solid Harmonics ordering:            gaussian

*** tstart() called on d-17-1-1
*** at Mon Jan 22 19:52:58 2024

   => Loading Basis Set <=

    Name: JUN-CC-PVDZ
    Role: ORBITAL
    Keyword: BASIS
    atoms 1-2, 4-5, 10, 17-70 entry C          line   164 file /home/gridsan/tfroembgen/.conda/envs/psi4test/share/psi4/basis/jun-cc-pvdz.gbs 
    atoms 3, 6                entry N          line   198 file /home/gridsan/tfroembgen/.conda/envs/psi4test/share/psi4/basis/jun-cc-pvdz.gbs 
    atoms 7-9, 11-16, 71-88   entry H          line    36 file /home/gridsan/tfroembgen/.conda/envs/psi4test/share/psi4/basis/jun-cc-pvdz.gbs 


         ---------------------------------------------------------
                                   SCF
               by Justin Turney, Rob Parrish, Andy Simmonett
                          and Daniel G. A. Smith
                              RHF Reference
                       12 Threads,  30517 MiB Core
         ---------------------------------------------------------

  ==> Geometry <==

    Molecular point group: c1
    Full point group: C1

    Geometry (in Angstrom), charge = 1, multiplicity = 1:

       Center              X                  Y                   Z               Mass       
    ------------   -----------------  -----------------  -----------------  -----------------
         C            0.680066520158    -0.008042372515    -7.849257902023    12.000000000000
         C           -0.680504479842    -0.006014372515    -7.848873902023    12.000000000000
         N           -1.085635479842    -0.005016372515    -6.530549902023    14.003074004430
         C            0.000107520158    -0.001740372515    -5.749148902023    12.000000000000
         C           -2.477365479842     0.044389627485    -6.062570902023    12.000000000000
         N            1.085221520158    -0.005016372515    -6.530549902023    14.003074004430
         H            1.385145520158    -0.015870372515    -8.666696902023     1.007825032230
         H           -1.385302479842    -0.006204372515    -8.666542902023     1.007825032230
         H           -0.000009479842     0.000006627485    -4.668059902023     1.007825032230
         C            2.478116520158    -0.021908372515    -6.065451902023    12.000000000000
         H            2.490591520158     0.005436627485    -4.975198902023     1.007825032230
         H            2.967027520158    -0.935354372515    -6.412627902023     1.007825032230
         H            3.001427520158     0.853574627485    -6.456923902023     1.007825032230
         H           -2.857359479842     1.066460627485    -6.142529902023     1.007825032230
         H           -3.082679479842    -0.625694372515    -6.675634902023     1.007825032230
         H           -2.518128479842    -0.282594372515    -5.022622902023     1.007825032230
      Gh(C)           1.225311895423     0.707538288405     0.972808725261    12.000000000000
      Gh(C)           1.225323856051    -0.707538895085     0.960477915690    12.000000000000
      Gh(C)          -0.000006153932     1.414965913575     0.959944292170    12.000000000000
      Gh(C)           2.456448753949     1.418327886663     0.975695582661    12.000000000000
      Gh(C)           0.000010827279    -1.414976499150     0.970143849494    12.000000000000
      Gh(C)          -1.225300948908     0.707545373469     0.975060245583    12.000000000000
      Gh(C)           2.456437755320    -1.418323304396     0.958232758834    12.000000000000
      Gh(C)          -0.000001332978     2.836801030766     0.957540742036    12.000000000000
      Gh(C)           3.681826697470     0.709317955486     0.958581548631    12.000000000000
      Gh(C)           2.455120048865     2.834223660974     0.958478991671    12.000000000000
      Gh(C)           3.681821105219    -0.709333839944     0.974654032650    12.000000000000
      Gh(C)          -1.225313598688    -0.707527516059     0.961550677117    12.000000000000
      Gh(C)           1.226699581202     3.543469483479     0.974838064580    12.000000000000
      Gh(C)           0.000004784858    -2.836782139751     0.974992017116    12.000000000000
      Gh(C)          -2.456436032848     1.418316917770     0.975095641429    12.000000000000
      Gh(C)           2.455123417779    -2.834230029103     0.974502124282    12.000000000000
      Gh(C)          -1.226714364589     3.543469063235     0.974941397800    12.000000000000
      Gh(C)           4.914517295202     1.427172871975     0.965062231661    12.000000000000
      Gh(C)           3.693150191476     3.542795292030     0.965112031297    12.000000000000
      Gh(C)          -2.456437600068    -1.418313281354     0.958207720709    12.000000000000
      Gh(C)           1.226704841943    -3.543474242421     0.958867933831    12.000000000000
      Gh(C)          -2.455125398508     2.834216662119     0.958485368017    12.000000000000
      Gh(C)           4.914524380782    -1.427186910459     0.968034974395    12.000000000000
      Gh(C)           1.221424613699     4.970134064745     0.968173408655    12.000000000000
      Gh(C)           4.893008229321     2.825187999512     0.966278900020    12.000000000000
      Gh(C)          -1.226697008489    -3.543470997592     0.959135138240    12.000000000000
      Gh(C)          -3.681818976526     0.709324966217     0.958594229111    12.000000000000
      Gh(C)           3.693147101150    -3.542801341905     0.968152864956    12.000000000000
      Gh(C)          -1.221432251994     4.970128297348     0.968356904028    12.000000000000
      Gh(C)           6.134770972926     0.680547946591     0.965832006211    12.000000000000
      Gh(C)           3.656788880610     4.972953243053     0.966020669080    12.000000000000
      Gh(C)          -2.455126907733    -2.834215093576     0.974257766484    12.000000000000
      Gh(C)          -3.681819179061    -0.709325703983     0.974771654228    12.000000000000
      Gh(C)           4.893012617914    -2.825200106147     0.966890051915    12.000000000000
      Gh(C)          -0.000001073113     5.650447365518     0.967125595321    12.000000000000
      Gh(C)           6.134775112332    -0.680554854590     0.967097326726    12.000000000000
      Gh(C)           2.478131482856     5.653576750817     0.967309448730    12.000000000000
      Gh(C)           1.221422404738    -4.970127055448     0.965373911633    12.000000000000
      Gh(C)          -3.693162383965     3.542796953677     0.965277538757    12.000000000000
      Gh(C)          -1.221428520945    -4.970118304111     0.965261149800    12.000000000000
      Gh(C)          -4.914521807942     1.427175446480     0.965139176668    12.000000000000
      Gh(C)           3.656787019679    -4.972955226754     0.967471169614    12.000000000000
      Gh(C)          -2.478138530106     5.653574422014     0.967593973738    12.000000000000
      Gh(C)          -3.693141738564    -3.542790219494     0.968036738800    12.000000000000
      Gh(C)          -4.914512483053    -1.427181000542     0.968069671569    12.000000000000
      Gh(C)          -0.000006008926    -5.650438287528     0.966730091200    12.000000000000
      Gh(C)          -4.893020484101     2.825188598404     0.966268818160    12.000000000000
      Gh(C)           2.478125993298    -5.653573544403     0.966380568822    12.000000000000
      Gh(C)          -3.656798710258     4.972956181527     0.966197349454    12.000000000000
      Gh(C)          -4.892999478856    -2.825191767575     0.966736016217    12.000000000000
      Gh(C)          -2.478128498083    -5.653566170521     0.966105381174    12.000000000000
      Gh(C)          -6.134770503331     0.680548765741     0.965806454508    12.000000000000
      Gh(C)          -3.656788833189    -4.972944023485     0.967256881797    12.000000000000
      Gh(C)          -6.134765042913    -0.680553915997     0.967076850931    12.000000000000
      Gh(H)           5.835288495816     3.369275894439     0.970638225682     1.007825032230
      Gh(H)           7.073859172747     1.228217248385     0.966293649604     1.007825032230
      Gh(H)           4.600663264174     5.512380801938     0.966525869832     1.007825032230
      Gh(H)           5.835283387305    -3.369306057244     0.962435584601     1.007825032230
      Gh(H)          -0.000012151306     6.738530673622     0.962776350313     1.007825032230
      Gh(H)           7.073861171831    -1.228226943259     0.966588588632     1.007825032230
      Gh(H)           2.473313731799     6.740684290880     0.966842727799     1.007825032230
      Gh(H)           4.600668491381    -5.512376129691     0.967061172445     1.007825032230
      Gh(H)          -2.473318680537     6.740681719092     0.967144074424     1.007825032230
      Gh(H)          -0.000010268228    -6.738528176967     0.971259776184     1.007825032230
      Gh(H)          -5.835301914343     3.369270949781     0.970774247831     1.007825032230
      Gh(H)           2.473307923831    -6.740685374944     0.966950899247     1.007825032230
      Gh(H)          -4.600674841208     5.512378026089     0.966691198155     1.007825032230
      Gh(H)          -5.835279506835    -3.369288964294     0.962156278720     1.007825032230
      Gh(H)          -2.473300347440    -6.740679078655     0.966501582702     1.007825032230
      Gh(H)          -7.073857766768     1.228220472326     0.966209658123     1.007825032230
      Gh(H)          -4.600673786085    -5.512362670301     0.966888864423     1.007825032230
      Gh(H)          -7.073856934409    -1.228220632492     0.966493732166     1.007825032230

  Running in c1 symmetry.

  Rotational constants: A =      0.00134  B =      0.00132  C =      0.00109 [cm^-1]
  Rotational constants: A =     40.20491  B =     39.45379  C =     32.71081 [MHz]
  Nuclear repulsion =  306.774908447733083

  Charge       = 1
  Multiplicity = 1
  Electrons    = 52
  Nalpha       = 26
  Nbeta        = 26

  ==> Algorithm <==

  SCF Algorithm Type is DF.
  DIIS enabled.
  MOM disabled.
  Fractional occupation disabled.
  Guess Type is SAD.
  Energy threshold   = 1.00e-08
  Density threshold  = 1.00e-08
  Integral threshold = 1.00e-12

  ==> Primary Basis <==

  Basis Set: JUN-CC-PVDZ
    Blend: JUN-CC-PVDZ
    Number of shells: 569
    Number of basis functions: 1233
    Number of Cartesian functions: 1294
    Spherical Harmonics?: true
    Max angular momentum: 2

   => Loading Basis Set <=

    Name: (JUN-CC-PVDZ AUX)
    Role: JKFIT
    Keyword: DF_BASIS_SCF
    atoms 1-2, 4-5, 10, 17-70 entry C          line   146 file /home/gridsan/tfroembgen/.conda/envs/psi4test/share/psi4/basis/jun-cc-pvdz-jkfit.gbs 
    atoms 3, 6                entry N          line   202 file /home/gridsan/tfroembgen/.conda/envs/psi4test/share/psi4/basis/jun-cc-pvdz-jkfit.gbs 
    atoms 7-9, 11-16, 71-88   entry H          line    70 file /home/gridsan/tfroembgen/.conda/envs/psi4test/share/psi4/basis/jun-cc-pvdz-jkfit.gbs 

  ==> Integral Setup <==

  ==> DiskDFJK: Density-Fitted J/K Matrices <==

    J tasked:                  Yes
    K tasked:                  Yes
    wK tasked:                  No
    OpenMP threads:             12
    Integrals threads:          12
    Memory [MiB]:            22888
    Algorithm:                Core
    Integral Cache:           LOAD
    Schwarz Cutoff:          1E-12
    Fitting Condition:       1E-10

   => Auxiliary Basis Set <=

  Basis Set: (JUN-CC-PVDZ AUX)
    Blend: JUN-CC-PVDZ-JKFIT
    Number of shells: 1890
    Number of basis functions: 5440
    Number of Cartesian functions: 6226
    Spherical Harmonics?: true
    Max angular momentum: 3

  Minimum eigenvalue in the overlap matrix is 8.3917680624E-10.
  Reciprocal condition number of the overlap matrix is 3.7524093559E-11.
    Using canonical orthogonalization.
  Overall, 14 of 1233 possible MOs eliminated.


  ==> Pre-Iterations <==

  SCF Guess: Superposition of Atomic Densities via on-the-fly atomic UHF (no occupation information).

   -------------------------
    Irrep   Nso     Nmo    
   -------------------------
     A       1233    1219 
   -------------------------
    Total    1233    1219
   -------------------------

  ==> Iterations <==

                           Total Energy        Delta E     RMS |[F,P]|

   @DF-RHF iter SAD:  -303.36534020803924   -3.03365e+02   0.00000e+00 
   @DF-RHF iter   1:  -303.16942249174110    1.95918e-01   3.44060e-04 ADIIS/DIIS
   @DF-RHF iter   2:  -303.28375437711975   -1.14332e-01   1.15863e-04 ADIIS/DIIS
   @DF-RHF iter   3:  -303.29520055704575   -1.14462e-02   4.53195e-05 DIIS
   @DF-RHF iter   4:  -303.29710200123583   -1.90144e-03   9.89051e-06 DIIS
   @DF-RHF iter   5:  -303.29720746707665   -1.05466e-04   2.41109e-06 DIIS
   @DF-RHF iter   6:  -303.29721671800053   -9.25092e-06   6.54189e-07 DIIS
   @DF-RHF iter   7:  -303.29721779012004   -1.07212e-06   3.32101e-07 DIIS
   @DF-RHF iter   8:  -303.29721804246958   -2.52350e-07   1.33630e-07 DIIS
   @DF-RHF iter   9:  -303.29721809090245   -4.84329e-08   3.37141e-08 DIIS
   @DF-RHF iter  10:  -303.29721809372882   -2.82637e-09   1.26729e-08 DIIS
   @DF-RHF iter  11:  -303.29721809397563   -2.46814e-10   2.99025e-09 DIIS
  Energy and wave function converged.


  ==> Post-Iterations <==

    Orbital Energies [Eh]
    ---------------------

    Doubly Occupied:                                                      

       1A    -15.834663     2A    -15.834131     3A    -11.529547  
       4A    -11.459858     5A    -11.458303     6A    -11.449666  
       7A    -11.449552     8A     -1.578223     9A     -1.433815  
      10A     -1.238656    11A     -1.189302    12A     -1.118860  
      13A     -1.022526    14A     -0.996955    15A     -0.917038  
      16A     -0.850518    17A     -0.816250    18A     -0.813193  
      19A     -0.790120    20A     -0.786222    21A     -0.781763  
      22A     -0.729699    23A     -0.725778    24A     -0.717092  
      25A     -0.596295    26A     -0.523849  

    Virtual:                                                              

      27A     -0.073284    28A     -0.070601    29A     -0.057987  
      30A     -0.050886    31A     -0.037270    32A     -0.034182  
      33A     -0.033338    34A     -0.033049    35A     -0.031615  
      36A     -0.023782    37A     -0.019915    38A     -0.018467  
      39A     -0.014958    40A     -0.011144    41A     -0.008586  
      42A     -0.006021    43A     -0.004256    44A     -0.000439  
      45A     -0.000329    46A      0.000907    47A      0.003079  
      48A      0.010593    49A      0.011229    50A      0.013787  
      51A      0.014593    52A      0.018963    53A      0.019165  
      54A      0.023993    55A      0.025084    56A      0.027734  
      57A      0.029825    58A      0.030493    59A      0.035307  
      60A      0.035672    61A      0.036789    62A      0.039749  
      63A      0.039845    64A      0.041502    65A      0.047480  
      66A      0.051224    67A      0.052790    68A      0.055038  
      69A      0.056926    70A      0.057373    71A      0.057880  
      72A      0.062742    73A      0.064501    74A      0.064795  
      75A      0.069810    76A      0.070907    77A      0.071257  
      78A      0.072331    79A      0.073395    80A      0.074351  
      81A      0.075707    82A      0.077925    83A      0.080668  
      84A      0.081227    85A      0.081575    86A      0.082966  
      87A      0.083389    88A      0.089574    89A      0.091019  
      90A      0.091054    91A      0.092205    92A      0.093607  
      93A      0.093652    94A      0.097297    95A      0.098848  
      96A      0.100986    97A      0.101134    98A      0.101449  
      99A      0.102319   100A      0.104769   101A      0.110992  
     102A      0.112227   103A      0.113299   104A      0.115474  
     105A      0.116613   106A      0.116943   107A      0.118884  
     108A      0.120755   109A      0.122236   110A      0.122394  
     111A      0.122691   112A      0.125696   113A      0.126364  
     114A      0.128237   115A      0.128918   116A      0.131069  
     117A      0.132238   118A      0.134549   119A      0.137773  
     120A      0.139447   121A      0.141720   122A      0.142070  
     123A      0.142235   124A      0.143536   125A      0.145155  
     126A      0.146697   127A      0.147881   128A      0.148633  
     129A      0.148956   130A      0.149560   131A      0.151470  
     132A      0.154516   133A      0.154762   134A      0.155611  
     135A      0.156677   136A      0.160826   137A      0.165084  
     138A      0.166178   139A      0.168223   140A      0.169644  
     141A      0.169768   142A      0.171282   143A      0.171642  
     144A      0.173492   145A      0.174008   146A      0.176666  
     147A      0.178522   148A      0.181667   149A      0.183839  
     150A      0.184606   151A      0.184972   152A      0.185179  
     153A      0.186481   154A      0.188425   155A      0.188608  
     156A      0.190128   157A      0.191069   158A      0.194920  
     159A      0.197519   160A      0.197805   161A      0.198182  
     162A      0.198786   163A      0.202626   164A      0.204209  
     165A      0.206721   166A      0.212990   167A      0.215000  
     168A      0.215506   169A      0.216302   170A      0.220220  
     171A      0.220565   172A      0.221780   173A      0.222408  
     174A      0.222881   175A      0.223084   176A      0.224918  
     177A      0.227078   178A      0.227520   179A      0.228350  
     180A      0.229332   181A      0.231483   182A      0.232218  
     183A      0.233167   184A      0.233221   185A      0.237382  
     186A      0.240432   187A      0.243215   188A      0.244405  
     189A      0.246654   190A      0.248068   191A      0.248656  
     192A      0.253523   193A      0.254768   194A      0.254928  
     195A      0.258633   196A      0.259068   197A      0.263763  
     198A      0.268436   199A      0.269696   200A      0.270560  
     201A      0.272667   202A      0.274712   203A      0.274848  
     204A      0.276294   205A      0.277258   206A      0.283359  
     207A      0.286507   208A      0.286584   209A      0.290548  
     210A      0.291545   211A      0.292021   212A      0.292791  
     213A      0.293506   214A      0.298253   215A      0.298912  
     216A      0.299699   217A      0.301332   218A      0.302960  
     219A      0.305166   220A      0.307109   221A      0.307999  
     222A      0.308351   223A      0.308800   224A      0.309172  
     225A      0.315356   226A      0.316042   227A      0.317773  
     228A      0.318175   229A      0.320519   230A      0.325351  
     231A      0.325438   232A      0.330338   233A      0.333054  
     234A      0.334047   235A      0.336213   236A      0.342038  
     237A      0.343156   238A      0.343983   239A      0.347184  
     240A      0.348600   241A      0.350300   242A      0.353610  
     243A      0.359138   244A      0.360904   245A      0.361448  
     246A      0.366559   247A      0.368920   248A      0.370026  
     249A      0.372422   250A      0.373783   251A      0.373910  
     252A      0.374337   253A      0.374670   254A      0.376634  
     255A      0.377279   256A      0.379073   257A      0.380328  
     258A      0.388878   259A      0.389156   260A      0.390546  
     261A      0.392018   262A      0.392232   263A      0.396083  
     264A      0.398601   265A      0.399030   266A      0.399810  
     267A      0.400001   268A      0.400472   269A      0.401218  
     270A      0.403840   271A      0.411122   272A      0.411262  
     273A      0.411675   274A      0.414795   275A      0.415329  
     276A      0.415911   277A      0.417456   278A      0.419759  
     279A      0.420788   280A      0.423448   281A      0.425450  
     282A      0.426228   283A      0.428283   284A      0.429477  
     285A      0.429788   286A      0.430885   287A      0.432456  
     288A      0.437502   289A      0.438160   290A      0.438368  
     291A      0.440955   292A      0.448261   293A      0.449378  
     294A      0.453468   295A      0.454233   296A      0.460191  
     297A      0.460316   298A      0.461613   299A      0.465495  
     300A      0.467909   301A      0.468735   302A      0.471522  
     303A      0.472511   304A      0.473516   305A      0.474897  
     306A      0.476088   307A      0.476412   308A      0.478492  
     309A      0.482993   310A      0.486767   311A      0.487974  
     312A      0.488925   313A      0.489363   314A      0.491836  
     315A      0.493188   316A      0.506367   317A      0.507091  
     318A      0.509301   319A      0.511183   320A      0.514489  
     321A      0.516997   322A      0.517154   323A      0.517216  
     324A      0.518297   325A      0.520826   326A      0.521855  
     327A      0.522203   328A      0.524162   329A      0.531757  
     330A      0.539490   331A      0.540617   332A      0.540938  
     333A      0.542440   334A      0.542648   335A      0.542733  
     336A      0.552179   337A      0.552350   338A      0.558045  
     339A      0.559237   340A      0.560038   341A      0.561216  
     342A      0.561965   343A      0.563190   344A      0.566394  
     345A      0.573010   346A      0.574797   347A      0.575008  
     348A      0.582214   349A      0.583044   350A      0.587850  
     351A      0.588126   352A      0.588776   353A      0.594381  
     354A      0.597998   355A      0.604787   356A      0.605404  
     357A      0.613428   358A      0.617870   359A      0.619706  
     360A      0.619845   361A      0.620839   362A      0.621723  
     363A      0.621961   364A      0.624936   365A      0.628915  
     366A      0.630379   367A      0.632164   368A      0.632630  
     369A      0.633913   370A      0.639367   371A      0.639458  
     372A      0.643554   373A      0.644227   374A      0.647285  
     375A      0.647535   376A      0.648057   377A      0.649175  
     378A      0.654504   379A      0.657276   380A      0.660478  
     381A      0.664511   382A      0.665385   383A      0.665638  
     384A      0.665924   385A      0.669950   386A      0.682660  
     387A      0.686594   388A      0.690802   389A      0.691667  
     390A      0.698204   391A      0.700602   392A      0.702854  
     393A      0.703243   394A      0.703892   395A      0.705715  
     396A      0.706439   397A      0.708046   398A      0.708383  
     399A      0.708909   400A      0.709695   401A      0.711603  
     402A      0.713421   403A      0.715249   404A      0.715873  
     405A      0.718021   406A      0.718073   407A      0.721965  
     408A      0.727684   409A      0.729051   410A      0.729369  
     411A      0.732816   412A      0.733707   413A      0.737391  
     414A      0.737547   415A      0.739847   416A      0.742916  
     417A      0.744950   418A      0.748065   419A      0.749362  
     420A      0.749540   421A      0.754858   422A      0.757652  
     423A      0.760655   424A      0.787035   425A      0.787654  
     426A      0.788093   427A      0.791129   428A      0.791252  
     429A      0.796760   430A      0.800659   431A      0.800781  
     432A      0.810991   433A      0.820800   434A      0.822535  
     435A      0.822618   436A      0.825109   437A      0.827516  
     438A      0.827631   439A      0.832627   440A      0.832964  
     441A      0.840466   442A      0.840573   443A      0.847681  
     444A      0.858921   445A      0.860796   446A      0.865427  
     447A      0.865550   448A      0.889668   449A      0.890355  
     450A      0.901819   451A      0.901957   452A      0.903460  
     453A      0.910224   454A      0.910275   455A      0.919510  
     456A      0.932902   457A      0.942122   458A      0.942276  
     459A      0.945245   460A      0.950862   461A      0.955003  
     462A      0.960681   463A      0.967946   464A      0.968564  
     465A      0.969357   466A      0.982287   467A      0.983281  
     468A      0.983983   469A      1.000919   470A      1.007566  
     471A      1.007629   472A      1.009356   473A      1.009573  
     474A      1.033497   475A      1.038831   476A      1.044703  
     477A      1.045155   478A      1.047015   479A      1.055698  
     480A      1.066179   481A      1.095707   482A      1.095783  
     483A      1.098977   484A      1.102499   485A      1.102692  
     486A      1.105410   487A      1.116641   488A      1.119074  
     489A      1.124730   490A      1.125019   491A      1.125770  
     492A      1.138000   493A      1.138014   494A      1.139693  
     495A      1.142098   496A      1.150090   497A      1.161429  
     498A      1.161496   499A      1.164713   500A      1.169863  
     501A      1.170364   502A      1.228853   503A      1.236873  
     504A      1.236881   505A      1.244786   506A      1.247295  
     507A      1.247576   508A      1.263357   509A      1.263634  
     510A      1.268322   511A      1.268719   512A      1.270661  
     513A      1.280196   514A      1.305675   515A      1.311532  
     516A      1.311748   517A      1.322787   518A      1.348786  
     519A      1.362311   520A      1.383542   521A      1.384019  
     522A      1.402517   523A      1.402586   524A      1.404117  
     525A      1.407639   526A      1.407861   527A      1.410343  
     528A      1.422319   529A      1.423493   530A      1.424974  
     531A      1.464894   532A      1.477938   533A      1.484532  
     534A      1.495654   535A      1.496238   536A      1.498293  
     537A      1.499040   538A      1.503433   539A      1.510351  
     540A      1.518172   541A      1.562613   542A      1.565370  
     543A      1.576063   544A      1.578856   545A      1.588043  
     546A      1.591087   547A      1.599722   548A      1.601492  
     549A      1.603317   550A      1.606360   551A      1.620490  
     552A      1.622991   553A      1.624756   554A      1.631488  
     555A      1.632731   556A      1.642407   557A      1.661055  
     558A      1.669441   559A      1.681489   560A      1.687110  
     561A      1.688088   562A      1.688328   563A      1.689580  
     564A      1.690559   565A      1.691827   566A      1.692031  
     567A      1.701538   568A      1.703714   569A      1.704109  
     570A      1.710782   571A      1.727502   572A      1.731550  
     573A      1.732139   574A      1.732261   575A      1.733372  
     576A      1.735446   577A      1.740334   578A      1.745772  
     579A      1.748649   580A      1.751185   581A      1.751408  
     582A      1.756999   583A      1.761968   584A      1.765835  
     585A      1.767032   586A      1.770809   587A      1.770926  
     588A      1.771622   589A      1.774411   590A      1.775177  
     591A      1.781335   592A      1.784869   593A      1.785138  
     594A      1.785216   595A      1.788282   596A      1.790762  
     597A      1.799992   598A      1.802050   599A      1.802411  
     600A      1.809560   601A      1.812276   602A      1.816997  
     603A      1.818201   604A      1.820776   605A      1.822503  
     606A      1.826599   607A      1.826920   608A      1.827778  
     609A      1.830063   610A      1.834515   611A      1.838235  
     612A      1.844664   613A      1.845618   614A      1.847209  
[...]
     793A      1.644065   794A      1.650591   795A      1.661148  
     796A      1.661169   797A      1.666650   798A      1.667692  
     799A      1.676345   800A      1.676433   801A      1.676763  
     802A      1.676800   803A      1.677049   804A      1.682149  
     805A      1.686664   806A      1.686733   807A      1.695642  
     808A      1.696087   809A      1.699272   810A      1.699341  
     811A      1.700834   812A      1.704774   813A      1.704837  
     814A      1.708478   815A      1.715767   816A      1.715844  
     817A      1.741713   818A      1.751432   819A      1.757042  
     820A      1.760306   821A      1.760449   822A      1.761082  
     823A      1.761768   824A      1.776754   825A      1.776773  
     826A      1.791464   827A      1.791562   828A      1.795820  
     829A      1.804104   830A      1.809981   831A      1.813590  
     832A      1.816662   833A      1.816765   834A      1.817794  
     835A      1.820347   836A      1.824682   837A      1.824837  
     838A      1.830910   839A      1.831167   840A      1.838789  
     841A      1.840442   842A      1.842427   843A      1.843305  
     844A      1.859263   845A      1.860699   846A      1.860864  
     847A      1.861811   848A      1.862992   849A      1.864277  
     850A      1.869826   851A      1.872283   852A      1.880167  
     853A      1.880354   854A      1.895553   855A      1.896219  
     856A      1.896473   857A      1.898822   858A      1.899682  
     859A      1.902981   860A      1.903189   861A      1.908503  
     862A      1.908655   863A      1.914277   864A      1.915645  
     865A      1.916519   866A      1.917750   867A      1.917997  
     868A      1.919392   869A      1.922003   870A      1.922262  
     871A      1.940772   872A      1.941852   873A      1.942076  
     874A      1.942735   875A      1.943750   876A      1.946602  
     877A      1.946926   878A      1.954041   879A      1.954527  
     880A      1.954753   881A      1.954984   882A      1.958045  
     883A      1.970866   884A      1.982992   885A      1.983472  
     886A      1.989920   887A      1.997159   888A      1.997356  
     889A      1.998724   890A      1.999031   891A      2.007624  
     892A      2.008266   893A      2.012305   894A      2.012493  
     895A      2.018476   896A      2.027824   897A      2.029052  
     898A      2.029818   899A      2.030139   900A      2.030680  
     901A      2.031276   902A      2.031491   903A      2.035858  
     904A      2.039745   905A      2.048296   906A      2.049751  
     907A      2.052348   908A      2.052413   909A      2.057563  
     910A      2.058496   911A      2.059225   912A      2.060301  
     913A      2.062760   914A      2.068588   915A      2.070800  
     916A      2.071447   917A      2.072206   918A      2.076183  
     919A      2.076416   920A      2.082143   921A      2.084060  
     922A      2.084767   923A      2.086858   924A      2.089067  
     925A      2.094886   926A      2.095076   927A      2.096812  
     928A      2.096919   929A      2.100595   930A      2.100736  
     931A      2.108194   932A      2.108362   933A      2.108467  
     934A      2.109869   935A      2.110742   936A      2.111845  
     937A      2.115035   938A      2.116759   939A      2.119327  
     940A      2.119430   941A      2.120341   942A      2.121461  
     943A      2.125774   944A      2.126556   945A      2.126868  
     946A      2.133249   947A      2.134600   948A      2.135649  
     949A      2.135906   950A      2.138664   951A      2.143205  
     952A      2.143220   953A      2.153518   954A      2.156386  
     955A      2.159768   956A      2.159945   957A      2.162777  
     958A      2.163146   959A      2.171360   960A      2.174543  
     961A      2.178262   962A      2.180402   963A      2.190117  
     964A      2.190629   965A      2.190879   966A      2.192515  
     967A      2.193942   968A      2.195580   969A      2.195809  
     970A      2.198077   971A      2.198991   972A      2.215294  
     973A      2.219682   974A      2.220376   975A      2.220432  
     976A      2.227905   977A      2.228213   978A      2.228872  
     979A      2.229124   980A      2.240851   981A      2.243337  
     982A      2.243804   983A      2.244159   984A      2.244396  
     985A      2.247250   986A      2.260129   987A      2.260210  
     988A      2.269347   989A      2.270154   990A      2.270321  
     991A      2.272068   992A      2.272173   993A      2.279675  
     994A      2.281082   995A      2.300051   996A      2.300418  
     997A      2.306681   998A      2.310350   999A      2.312297  
    1000A      2.320192  1001A      2.322372  1002A      2.322483  
    1003A      2.330993  1004A      2.331023  1005A      2.331133  
    1006A      2.333917  1007A      2.345031  1008A      2.347116  
    1009A      2.350894  1010A      2.351523  1011A      2.352450  
    1012A      2.352514  1013A      2.366355  1014A      2.366560  
    1015A      2.374786  1016A      2.380004  1017A      2.389618  
    1018A      2.415896  1019A      2.424021  1020A      2.424394  
    1021A      2.424416  1022A      2.436462  1023A      2.441157  
    1024A      2.441329  1025A      2.447112  1026A      2.450581  
    1027A      2.458838  1028A      2.470183  1029A      2.470763  
    1030A      2.472896  1031A      2.473262  1032A      2.477628  
    1033A      2.485589  1034A      2.485617  1035A      2.502302  
    1036A      2.511918  1037A      2.519541  1038A      2.529827  
    1039A      2.530106  1040A      2.543986  1041A      2.545389  
    1042A      2.545608  1043A      2.554351  1044A      2.554451  
    1045A      2.554819  1046A      2.559837  1047A      2.559876  
    1048A      2.572984  1049A      2.573013  1050A      2.574690  
    1051A      2.575223  1052A      2.580036  1053A      2.586209  
    1054A      2.586365  1055A      2.587484  1056A      2.589783  
    1057A      2.591409  1058A      2.606423  1059A      2.623429  
    1060A      2.623652  1061A      2.626196  1062A      2.631436  
    1063A      2.631923  1064A      2.635392  1065A      2.641150  
    1066A      2.641373  1067A      2.647691  1068A      2.650846  
    1069A      2.651217  1070A      2.652137  1071A      2.656850  
    1072A      2.660413  1073A      2.675654  1074A      2.682158  
    1075A      2.683236  1076A      2.684036  1077A      2.686997  
    1078A      2.702140  1079A      2.702312  1080A      2.713024  
    1081A      2.713032  1082A      2.718704  1083A      2.718722  
    1084A      2.722647  1085A      2.723155  1086A      2.738529  
    1087A      2.739473  1088A      2.748720  1089A      2.752455  
    1090A      2.752950  1091A      2.767847  1092A      2.777785  
    1093A      2.794669  1094A      2.794784  1095A      2.807734  
    1096A      2.816522  1097A      2.827110  1098A      2.828344  
    1099A      2.837893  1100A      2.851516  1101A      2.852445  
    1102A      2.856044  1103A      2.858335  1104A      2.859717  
    1105A      2.859793  1106A      2.868052  1107A      2.877987  
    1108A      2.891523  1109A      2.910918  1110A      2.917083  
    1111A      2.917160  1112A      2.924088  1113A      2.924461  
    1114A      2.933676  1115A      2.933874  1116A      2.949603  
    1117A      2.949698  1118A      2.950952  1119A      2.963125  
    1120A      2.973728  1121A      2.999040  1122A      3.006976  
    1123A      3.008262  1124A      3.011872  1125A      3.011999  
    1126A      3.029354  1127A      3.041929  1128A      3.064202  
    1129A      3.064240  1130A      3.070670  1131A      3.070798  
    1132A      3.109396  1133A      3.110270  1134A      3.128770  
    1135A      3.129667  1136A      3.129805  1137A      3.137460  
    1138A      3.142050  1139A      3.146253  1140A      3.146592  
    1141A      3.146779  1142A      3.149135  1143A      3.149427  
    1144A      3.157783  1145A      3.158313  1146A      3.165857  
    1147A      3.166419  1148A      3.191841  1149A      3.211154  
    1150A      3.219203  1151A      3.237633  1152A      3.273883  
    1153A      3.276958  1154A      3.277136  1155A      3.281922  
    1156A      3.282042  1157A      3.285967  1158A      3.308642  
    1159A      3.320318  1160A      3.406146  1161A      3.416485  
    1162A      3.416947  1163A      3.443089  1164A      3.481548  
    1165A      3.484037  1166A      3.523500  1167A      3.549373  
    1168A      3.569791  1169A      3.577186  1170A      3.579173  
    1171A      3.593871  1172A      3.626526  1173A      3.628495  
    1174A      3.644169  1175A      3.663017  1176A      3.669182  
    1177A      3.756845  1178A      3.769234  1179A      3.782707  
    1180A      3.783780  1181A      3.815200  1182A      3.867389  
    1183A      3.870799  1184A      3.870832  1185A      3.913130  
    1186A      3.913254  1187A      3.960304  1188A      3.976923  
    1189A      4.010900  1190A      4.032794  1191A      4.044711  
    1192A      4.081400  1193A      4.205125  1194A      4.208880  
    1195A      4.346161  1196A      4.360176  1197A      4.486537  
    1198A      4.737172  1199A      4.774481  1200A      4.830009  
    1201A      4.845857  1202A      4.935210  1203A      5.050339  
    1204A      5.056162  1205A      5.065437  1206A      5.110015  
    1207A      5.133113  1208A      5.391423  1209A      5.421540  
    1210A      5.731557  1211A      5.756163  1212A      6.066620  
    1213A     18.197663  1214A     18.453904  1215A     18.470880  
    1216A     18.558993  1217A     18.830330  1218A     25.338275  
    1219A     25.374199  

    Final Occupation by Irrep:
              A 
    DOCC [   171 ]
    NA   [   171 ]
    NB   [   171 ]

  @DF-RHF Final Energy: -2055.89185954220329

   => Energetics <=

    Nuclear Repulsion Energy =           6452.5568002797781446
    One-Electron Energy =              -15636.4331677489044523
    Two-Electron Energy =                7127.9845079269225607
    Total Energy =                      -2055.8918595422028375

Computation Completed


Properties will be evaluated at   0.000000,   0.000000,   0.000000 [a0]

Properties computed using the SCF density matrix


 Multipole Moments:

 ------------------------------------------------------------------------------------
     Multipole            Electronic (a.u.)      Nuclear  (a.u.)        Total (a.u.)
 ------------------------------------------------------------------------------------

 L = 1.  Multiply by 2.5417464519 to convert [e a0] to [Debye]
 Dipole X            :          0.0001055           -0.0000085            0.0000970
 Dipole Y            :         -0.0000342            0.0000167           -0.0000175
 Dipole Z            :       -624.7412037          624.7448780            0.0036743
 Magnitude           :                                                    0.0036756

 ------------------------------------------------------------------------------------

*** tstop() called on d-17-1-1 at Mon Jan 22 20:04:20 2024
Module time:
	user time   =    2770.17 seconds =      46.17 minutes
	system time =      91.23 seconds =       1.52 minutes
	total time  =        476 seconds =       7.93 minutes
Total time:
	user time   =    8577.29 seconds =     142.95 minutes
	system time =     241.81 seconds =       4.03 minutes
	total time  =       1147 seconds =      19.12 minutes
  Constructing Basis Sets for SAPT...

   => Loading Basis Set <=

    Name: (JUN-CC-PVDZ AUX)
    Role: RIFIT
    Keyword: DF_BASIS_SAPT
    atoms 1-2, 4-5, 10, 17-70 entry C          line   100 file /home/gridsan/tfroembgen/.conda/envs/psi4test/share/psi4/basis/jun-cc-pvdz-ri.gbs 
    atoms 3, 6                entry N          line   144 file /home/gridsan/tfroembgen/.conda/envs/psi4test/share/psi4/basis/jun-cc-pvdz-ri.gbs 
    atoms 7-9, 11-16, 71-88   entry H          line    30 file /home/gridsan/tfroembgen/.conda/envs/psi4test/share/psi4/basis/jun-cc-pvdz-ri.gbs 

   => Loading Basis Set <=

    Name: (JUN-CC-PVDZ AUX)
    Role: JKFIT
    Keyword: DF_BASIS_ELST
    atoms 1-2, 4-5, 10, 17-70 entry C          line   146 file /home/gridsan/tfroembgen/.conda/envs/psi4test/share/psi4/basis/jun-cc-pvdz-jkfit.gbs 
    atoms 3, 6                entry N          line   202 file /home/gridsan/tfroembgen/.conda/envs/psi4test/share/psi4/basis/jun-cc-pvdz-jkfit.gbs 
    atoms 7-9, 11-16, 71-88   entry H          line    70 file /home/gridsan/tfroembgen/.conda/envs/psi4test/share/psi4/basis/jun-cc-pvdz-jkfit.gbs 


  //>>>>>>>>>>>>>>>>>>>>>>>>>>>>>>>>>>>//
  //               SSAPT0              //
  //<<<<<<<<<<<<<<<<<<<<<<<<<<<<<<<<<<<//


*** tstart() called on d-17-1-1
*** at Mon Jan 22 20:04:21 2024

        SAPT0  
    Ed Hohenstein
     6 June 2009

      Orbital Information
  --------------------------
    NSO        =      1233
    NMO        =      1219
    NRI        =      4343
    NRI (Elst) =      5440
    NOCC A     =        26
    NOCC B     =       171
    FOCC A     =         7
    FOCC B     =        54
    NVIR A     =      1193
    NVIR B     =      1048

    Elst10,r            =    -0.006930372483 [Eh]
    Exch10              =    -0.000000223265 [Eh]
    Exch10 (S^2)        =    -0.000000223265 [Eh]

    Iter     Energy [mEh]          dE [mEh]         Residual      Time [s]
       1      -0.01803302       0.018033015       1.268628975           248
       2      -0.01711605      -0.000916966       0.333536261           469
       3      -0.01885966       0.001743612       0.091316248           683
       4      -0.01895941       0.000099750       0.042408632           773
       5      -0.01887601      -0.000083399       0.011556877          1049
       6      -0.01887900       0.000002988       0.004062205          1224
       7      -0.01888507       0.000006065       0.001040292          1297
       8      -0.01888538       0.000000312       0.000338918          1384
       9      -0.01888514      -0.000000240       0.000100807          1476
      10      -0.01888507      -0.000000068       0.000030643          1571
      11      -0.01888508       0.000000007       0.000008526          1677
      12      -0.01888508       0.000000008       0.000002470          1848
      13      -0.01888508      -0.000000000       0.000000966          1920

    CHF Iterations converged


    Iter     Energy [mEh]          dE [mEh]         Residual      Time [s]
       1      -2.87807292       2.878072917      28.076178067           243
       2      -1.95677399      -0.921298929       3.511705730           516
       3      -1.95898043       0.002206440       1.268171314           718
       4      -2.00574857       0.046768145       0.285573192           748
       5      -2.00784683       0.002098255       0.081281878           880
       6      -2.00691488      -0.000931948       0.039646997           908
       7      -2.00659125      -0.000323634       0.018633147           930
       8      -2.00676442       0.000173178       0.012606373           953
       9      -2.00683162       0.000067199       0.007339576          1009
      10      -2.00679194      -0.000039685       0.004867842          1057
      11      -2.00677260      -0.000019337       0.002195737          1081
      12      -2.00677867       0.000006071       0.001016512          1113
      13      -2.00678322       0.000004550       0.000442627          1345
      14      -2.00678229      -0.000000935       0.000250549          1375
      15      -2.00678115      -0.000001134       0.000108997          1485
      16      -2.00678130       0.000000151       0.000051332          1778
      17      -2.00678159       0.000000291       0.000014543          1836
      18      -2.00678157      -0.000000020       0.000005005          1862
      19      -2.00678156      -0.000000018       0.000002638          2289
      20      -2.00678155      -0.000000004       0.000001080          2332
      21      -2.00678156       0.000000005       0.000000510          2359

    CHF Iterations converged

    Ind20,r (A<-B)      =    -0.000018885084 [Eh]
    Ind20,r (B<-A)      =    -0.002006781558 [Eh]
    Ind20,r             =    -0.002025666641 [Eh]
    Exch-Ind20,r (A<-B) =     0.000000021877 [Eh]
    Exch-Ind20,r (B<-A) =     0.000000220687 [Eh]
    Exch-Ind20,r        =     0.000000242564 [Eh]
    Disp20              =    -0.001016217089 [Eh]
    Disp20 (SS)         =    -0.000508108544 [Eh]
    Disp20 (OS)         =    -0.000508108544 [Eh]
    Exch-Disp20         =     0.000000094226 [Eh]
    Exch-Disp20 (SS)    =     0.000000071490 [Eh]
    Exch-Disp20 (OS)    =     0.000000022736 [Eh]

    SAPT Results 
  --------------------------------------------------------------------------------------------------------
    Electrostatics                 -6.93037248 [mEh]      -4.34887439 [kcal/mol]     -18.19569045 [kJ/mol]
      Elst10,r                     -6.93037248 [mEh]      -4.34887439 [kcal/mol]     -18.19569045 [kJ/mol]

    Exchange                       -0.00022327 [mEh]      -0.00014010 [kcal/mol]      -0.00058618 [kJ/mol]
      Exch10                       -0.00022327 [mEh]      -0.00014010 [kcal/mol]      -0.00058618 [kJ/mol]
      Exch10(S^2)                  -0.00022327 [mEh]      -0.00014010 [kcal/mol]      -0.00058618 [kJ/mol]

    Induction                      -2.06206850 [mEh]      -1.29396752 [kcal/mol]      -5.41396009 [kJ/mol]
      Ind20,r                      -2.02566664 [mEh]      -1.27112501 [kcal/mol]      -5.31838703 [kJ/mol]
      Exch-Ind20,r                  0.00024256 [mEh]       0.00015221 [kcal/mol]       0.00063685 [kJ/mol]
      delta HF,r (2)               -0.03664442 [mEh]      -0.02299472 [kcal/mol]      -0.09620991 [kJ/mol]

    Dispersion                     -1.01612286 [mEh]      -0.63762672 [kcal/mol]      -2.66783021 [kJ/mol]
      Disp20                       -1.01621709 [mEh]      -0.63768585 [kcal/mol]      -2.66807760 [kJ/mol]
      Exch-Disp20                   0.00009423 [mEh]       0.00005913 [kcal/mol]       0.00024739 [kJ/mol]
      Disp20 (SS)                  -0.50810854 [mEh]      -0.31884293 [kcal/mol]      -1.33403880 [kJ/mol]
      Disp20 (OS)                  -0.50810854 [mEh]      -0.31884293 [kcal/mol]      -1.33403880 [kJ/mol]
      Exch-Disp20 (SS)              0.00007149 [mEh]       0.00004486 [kcal/mol]       0.00018770 [kJ/mol]
      Exch-Disp20 (OS)              0.00002274 [mEh]       0.00001427 [kcal/mol]       0.00005969 [kJ/mol]

  Total HF                         -8.99266424 [mEh]      -5.64298201 [kcal/mol]     -23.61023672 [kJ/mol]
  Total SAPT0                     -10.00878711 [mEh]      -6.28060873 [kcal/mol]     -26.27806693 [kJ/mol]

  Special recipe for scaled SAPT0 (see Manual):
    Electrostatics sSAPT0          -6.93037248 [mEh]      -4.34887439 [kcal/mol]     -18.19569045 [kJ/mol]
    Exchange sSAPT0                -0.00022327 [mEh]      -0.00014010 [kcal/mol]      -0.00058618 [kJ/mol]
    Induction sSAPT0               -2.06206850 [mEh]      -1.29396752 [kcal/mol]      -5.41396009 [kJ/mol]
    Dispersion sSAPT0              -1.01612286 [mEh]      -0.63762672 [kcal/mol]      -2.66783021 [kJ/mol]
  Total sSAPT0                    -10.00878711 [mEh]      -6.28060873 [kcal/mol]     -26.27806693 [kJ/mol]
  --------------------------------------------------------------------------------------------------------

*** tstop() called on d-17-1-1 at Mon Jan 22 22:15:19 2024
Module time:
	user time   =    9032.36 seconds =     150.54 minutes
	system time =    1078.21 seconds =      17.97 minutes
	total time  =       7858 seconds =     130.97 minutes
Total time:
	user time   =   17610.81 seconds =     293.51 minutes
	system time =    1320.04 seconds =      22.00 minutes
	total time  =       9006 seconds =     150.10 minutes

    Psi4 stopped on: Monday, 22 January 2024 10:15PM
    Psi4 wall time for execution: 2:30:08.19

*** Psi4 exiting successfully. Buy a developer a beer!
