
    -----------------------------------------------------------------------
          Psi4: An Open-Source Ab Initio Electronic Structure Package
                               Psi4 1.9 release

                         Git: Rev {} zzzzzzz 


    D. G. A. Smith, L. A. Burns, A. C. Simmonett, R. M. Parrish,
    M. C. Schieber, R. Galvelis, P. Kraus, H. Kruse, R. Di Remigio,
    A. Alenaizan, A. M. James, S. Lehtola, J. P. Misiewicz, M. Scheurer,
    R. A. Shaw, J. B. Schriber, Y. Xie, Z. L. Glick, D. A. Sirianni,
    J. S. O'Brien, J. M. Waldrop, A. Kumar, E. G. Hohenstein,
    B. P. Pritchard, B. R. Brooks, H. F. Schaefer III, A. Yu. Sokolov,
    K. Patkowski, A. E. DePrince III, U. Bozkaya, R. A. King,
    F. A. Evangelista, J. M. Turney, T. D. Crawford, C. D. Sherrill,
    J. Chem. Phys. 152(18) 184108 (2020). https://doi.org/10.1063/5.0006002

                            Additional Code Authors
    E. T. Seidl, C. L. Janssen, E. F. Valeev, M. L. Leininger,
    J. F. Gonthier, R. M. Richard, H. R. McAlexander, M. Saitow, X. Wang,
    P. Verma, M. H. Lechner, A. Jiang, S. Behnle, A. G. Heide,
    M. F. Herbst, and D. L. Poole

             Previous Authors, Complete List of Code Contributors,
                       and Citations for Specific Modules
    https://github.com/psi4/psi4/blob/master/codemeta.json
    https://github.com/psi4/psi4/graphs/contributors
    http://psicode.org/psi4manual/master/introduction.html#citing-psifour

    -----------------------------------------------------------------------


    Psi4 started on: Monday, 22 January 2024 12:06PM

    Process ID: 1096432
    Host:       d-3-8-3
    PSIDATADIR: /home/gridsan/tfroembgen/.conda/envs/psi4test/share/psi4
    Memory:     500.0 MiB
    Threads:    12
    
  ==> Input File <==

--------------------------------------------------------------------------
memory 32 GB # how much memory is available ! Depends on the nodes/cores !

molecule dimer {
# monomer A
-1 1    # Charge and multiplicity
B -0.000046  0.000337 7.199994
F -1.153597  0.000048 8.015641
F  1.153661 -0.000581 8.015641
F -0.000019 -1.153637 6.384360
F -0.000019  1.153978 6.384360
--
# monomer B
0 1     # Charge and multiplicity
C   1.22531237526482      0.70753866091955      0.00613762728373
C   1.22532433589282     -0.70753852257020     -0.00619318228664
C   -0.00000567409046      1.41496628609039     -0.00672680580738
C   2.45644923379077      1.41832825917820      0.00902448468363
C   0.00001130712078     -1.41497612663474      0.00347275151708
C   -1.22530046906674      0.70754574598412      0.00838914760619
C   2.45643823516184     -1.41832293188077     -0.00843833914343
C   -0.00000085313587      2.83680140328112     -0.00913035594137
C   3.68182717731192      0.70931832800114     -0.00808954934571
C   2.45512052870677      2.83422403348893     -0.00819210630633
C   3.68182158506039     -0.70933346742900      0.00798293467272
C   -1.22531311884624     -0.70752714354401     -0.00512042085974
C   1.22670006104402      3.54346985599427      0.00816696660346
C   0.00000526469929     -2.83678176723568      0.00832091913869
C   -2.45643555300670      1.41831729028492      0.00842454345199
C   2.45512389762097     -2.83422965658853      0.00783102630520
C   -1.22671388474763      3.54346943575023      0.00827029982280
C   4.91451777504333      1.42717324448953     -0.00160886631602
C   3.69315067131765      3.54279566454522     -0.00155906667985
C   -2.45643712022637     -1.41831290883911     -0.00846337726810
C   1.22670532178455     -3.54347386990643     -0.00780316414624
C   -2.45512491866593      2.83421703463423     -0.00818572995999
C   4.91452486062398     -1.42718653794377      0.00136387641845
C   1.22142509354026      4.97013443726031      0.00150231067809
C   4.89300870916237      2.82518837202648     -0.00039219795739
C   -1.22669652864725     -3.54347062507680     -0.00753595973677
C   -3.68181849668397      0.70932533873199     -0.00807686886569
C   3.69314758099218     -3.54280096939050      0.00148176697923
C   -1.22143177215231      4.97012866986289      0.00168580605083
C   6.13477145276790      0.68054831910577     -0.00083909176631
C   3.65678936045204      4.97295361556775     -0.00065042889723
C   -2.45512642789169     -2.83421472106065      0.00758666850712
C   -3.68181869921921     -0.70932533146830      0.00810055625144
C   4.89301309775526     -2.82519973363176      0.00021895393805
C   -0.00000059327114      5.65044773803267      0.00045449734393
C   6.13477559217374     -0.68055448207492      0.00042622874941
C   2.47813196269732      5.65357712333155      0.00063835075260
C   1.22142288457925     -4.97012668293268     -0.00129718634452
C   -3.69316190412301      3.54279732619245     -0.00139355922051
C   -1.22142804110313     -4.97011793159564     -0.00140994817719
C   -4.91452132810043      1.42717581899491     -0.00153192130862
C   3.65678749952045     -4.97295485423912      0.00080007163680
C   -2.47813805026426      5.65357479452875      0.00092287576113
C   -3.69314125872231     -3.54278984697859      0.00136564082345
C   -4.91451200321153     -1.42718062802730      0.00139857359209
C   -0.00000552908399     -5.65043791501335      0.00005899322272
C   -4.89302000425900      2.82518897091939     -0.00040227981744
C   2.47812647313991     -5.65357317188818     -0.00029052915548
C   -3.65679823041642      4.97295655404175     -0.00047374852278
C   -4.89299899901461     -2.82519139505969      0.00006491824035
C   -2.47812801824129     -5.65356579800621     -0.00056571680280
C   -6.13477002348955      0.68054913825639     -0.00086464346868
C   -3.65678835334731     -4.97294365097028      0.00058578382008
C   -6.13476456307132     -0.68055354348201      0.00040575295444
H   5.83528897565761      3.36927626695423      0.00396712770529
H   7.07385965258860      1.22821762089947     -0.00037744837300
H   4.60066374401555      5.51238117445323     -0.00014522814529
H   5.83528386714679     -3.36930568472863     -0.00423551337640
H   -0.00001167146422      6.73853104613662     -0.00389474766392
H   7.07386165167227     -1.22822657074368     -0.00008250934481
H   2.47331421164041      6.74068466339473      0.00017162982210
H   4.60066897122302     -5.51237575717576      0.00039007446835
H   -2.47331820069565      6.74068209160650      0.00047297644710
H   -0.00000978838621     -6.73852780445195      0.00458867820736
H   -5.83530143450167      3.36927132229595      0.00410314985360
H   2.47330840367253     -6.74068500242887      0.00027980126949
H   -4.60067436136587      5.51237839860371      0.00002010017831
H   -5.83527902699321     -3.36928859177951     -0.00451481925734
H   -2.47329986759855     -6.74067870613986     -0.00016951527498
H   -7.07385728692578      1.22822084484047     -0.00046143985387
H   -4.60067330624313     -5.51236229778631      0.00021776644566
H   -7.07385645456741     -1.22822025997701     -0.00017736581114

    units angstrom      # Angstroms are the default
    no_reorient         # Geometry fixed, default
    symmetry c1         # C1 symmetry, default
}

set {
    scf_type DF         # Density fitting, faster than exact integrals
    freeze_core True    # Freeze core electrons
    basis jun-cc-pVDZ   # Jun-cc-pVDZ basis set, recommended for sSAPT0 in https://doi.org/10.1063/1.4867135
}

energy('ssapt0')        # Compute sSAPT0 energy, includes also SAPT0
--------------------------------------------------------------------------

  Memory set to  29.802 GiB by Python driver.

Scratch directory: /state/partition1/slurm_tmp/24792935.4294967291.0/
   => Loading Basis Set <=

    Name: JUN-CC-PVDZ
    Role: ORBITAL
    Keyword: BASIS
    atoms 1     entry B          line   130 file /home/gridsan/tfroembgen/.conda/envs/psi4test/share/psi4/basis/jun-cc-pvdz.gbs 
    atoms 2-5   entry F          line   266 file /home/gridsan/tfroembgen/.conda/envs/psi4test/share/psi4/basis/jun-cc-pvdz.gbs 
    atoms 6-59  entry C          line   164 file /home/gridsan/tfroembgen/.conda/envs/psi4test/share/psi4/basis/jun-cc-pvdz.gbs 
    atoms 60-77 entry H          line    36 file /home/gridsan/tfroembgen/.conda/envs/psi4test/share/psi4/basis/jun-cc-pvdz.gbs 

   => Loading Basis Set <=

    Name: JUN-CC-PVDZ
    Role: ORBITAL
    Keyword: BASIS
    atoms 1     entry B          line   130 file /home/gridsan/tfroembgen/.conda/envs/psi4test/share/psi4/basis/jun-cc-pvdz.gbs 
    atoms 2-5   entry F          line   266 file /home/gridsan/tfroembgen/.conda/envs/psi4test/share/psi4/basis/jun-cc-pvdz.gbs 
    atoms 6-59  entry C          line   164 file /home/gridsan/tfroembgen/.conda/envs/psi4test/share/psi4/basis/jun-cc-pvdz.gbs 
    atoms 60-77 entry H          line    36 file /home/gridsan/tfroembgen/.conda/envs/psi4test/share/psi4/basis/jun-cc-pvdz.gbs 


  //>>>>>>>>>>>>>>>>>>>>>>>>>>>>>>>>>>>//
  //              Dimer HF             //
  //<<<<<<<<<<<<<<<<<<<<<<<<<<<<<<<<<<<//

   => Libint2 <=

    Primary   basis highest AM E, G, H:  7, 7, 4
    Auxiliary basis highest AM E, G, H:  7, 7, 5
    Onebody   basis highest AM E, G, H:  7, 7, 5
    Solid Harmonics ordering:            gaussian

*** tstart() called on d-3-8-3
*** at Mon Jan 22 12:07:00 2024

   => Loading Basis Set <=

    Name: JUN-CC-PVDZ
    Role: ORBITAL
    Keyword: BASIS
    atoms 1     entry B          line   130 file /home/gridsan/tfroembgen/.conda/envs/psi4test/share/psi4/basis/jun-cc-pvdz.gbs 
    atoms 2-5   entry F          line   266 file /home/gridsan/tfroembgen/.conda/envs/psi4test/share/psi4/basis/jun-cc-pvdz.gbs 
    atoms 6-59  entry C          line   164 file /home/gridsan/tfroembgen/.conda/envs/psi4test/share/psi4/basis/jun-cc-pvdz.gbs 
    atoms 60-77 entry H          line    36 file /home/gridsan/tfroembgen/.conda/envs/psi4test/share/psi4/basis/jun-cc-pvdz.gbs 


         ---------------------------------------------------------
                                   SCF
               by Justin Turney, Rob Parrish, Andy Simmonett
                          and Daniel G. A. Smith
                              RHF Reference
                       12 Threads,  30517 MiB Core
         ---------------------------------------------------------

  ==> Geometry <==

    Molecular point group: c1
    Full point group: C1

    Geometry (in Angstrom), charge = -1, multiplicity = 1:

       Center              X                  Y                   Z               Mass       
    ------------   -----------------  -----------------  -----------------  -----------------
         B           -0.000046449334     0.000336519434     6.368254657462    11.009305360000
         F           -1.153597449334     0.000047519434     7.183901657462    18.998403162730
         F            1.153660550666    -0.000581480566     7.183901657462    18.998403162730
         F           -0.000019449334    -1.153637480566     5.552620657462    18.998403162730
         F           -0.000019449334     1.153977519434     5.552620657462    18.998403162730
         C            1.225311925931     0.707538180353    -0.825601715254    12.000000000000
         C            1.225323886559    -0.707539003137    -0.837932524824    12.000000000000
         C           -0.000006123424     1.414965805524    -0.838466148345    12.000000000000
         C            2.456448784457     1.418327778612    -0.822714857854    12.000000000000
         C            0.000010857787    -1.414976607201    -0.828266591021    12.000000000000
         C           -1.225300918401     0.707545265418    -0.823350194932    12.000000000000
         C            2.456437785828    -1.418323412447    -0.840177681681    12.000000000000
         C           -0.000001302470     2.836800922715    -0.840869698479    12.000000000000
         C            3.681826727978     0.709317847435    -0.839828891883    12.000000000000
         C            2.455120079373     2.834223552923    -0.839931448844    12.000000000000
         C            3.681821135726    -0.709333947995    -0.823756407865    12.000000000000
         C           -1.225313568180    -0.707527624110    -0.836859763398    12.000000000000
         C            1.226699611710     3.543469375428    -0.823572375934    12.000000000000
         C            0.000004815365    -2.836782247802    -0.823418423399    12.000000000000
         C           -2.456436002341     1.418316809719    -0.823314799086    12.000000000000
         C            2.455123448287    -2.834230137155    -0.823908316233    12.000000000000
         C           -1.226714334082     3.543468955184    -0.823469042715    12.000000000000
         C            4.914517325709     1.427172763923    -0.833348208854    12.000000000000
         C            3.693150221984     3.542795183979    -0.833298409218    12.000000000000
         C           -2.456437569560    -1.418313389406    -0.840202719806    12.000000000000
         C            1.226704872451    -3.543474350473    -0.839542506684    12.000000000000
         C           -2.455125368000     2.834216554068    -0.839925072498    12.000000000000
         C            4.914524411290    -1.427187018510    -0.830375466119    12.000000000000
         C            1.221424644206     4.970133956694    -0.830237031860    12.000000000000
         C            4.893008259828     2.825187891460    -0.832131540495    12.000000000000
         C           -1.226696977981    -3.543471105643    -0.839275302275    12.000000000000
         C           -3.681818946018     0.709324858166    -0.839816211403    12.000000000000
         C            3.693147131658    -3.542801449957    -0.830257575559    12.000000000000
         C           -1.221432221486     4.970128189296    -0.830053536487    12.000000000000
         C            6.134771003434     0.680547838539    -0.832578434304    12.000000000000
         C            3.656788911118     4.972953135001    -0.832389771435    12.000000000000
         C           -2.455126877226    -2.834215201627    -0.824152674031    12.000000000000
         C           -3.681819148553    -0.709325812035    -0.823638786286    12.000000000000
         C            4.893012648421    -2.825200214198    -0.831520388600    12.000000000000
         C           -0.000001042605     5.650447257466    -0.831284845194    12.000000000000
         C            6.134775142840    -0.680554962641    -0.831313113788    12.000000000000
         C            2.478131513363     5.653576642765    -0.831100991785    12.000000000000
         C            1.221422435245    -4.970127163499    -0.833036528882    12.000000000000
         C           -3.693162353457     3.542796845626    -0.833132901758    12.000000000000
         C           -1.221428490437    -4.970118412162    -0.833149290715    12.000000000000
         C           -4.914521777434     1.427175338429    -0.833271263846    12.000000000000
         C            3.656787050187    -4.972955334806    -0.830939270901    12.000000000000
         C           -2.478138499598     5.653574313962    -0.830816466777    12.000000000000
         C           -3.693141708056    -3.542790327545    -0.830373701714    12.000000000000
         C           -4.914512452545    -1.427181108594    -0.830340768946    12.000000000000
         C           -0.000005978418    -5.650438395580    -0.831680349315    12.000000000000
         C           -4.893020453593     2.825188490353    -0.832141622355    12.000000000000
         C            2.478126023806    -5.653573652455    -0.832029871693    12.000000000000
         C           -3.656798679750     4.972956073475    -0.832213091061    12.000000000000
         C           -4.892999448349    -2.825191875626    -0.831674424297    12.000000000000
         C           -2.478128467575    -5.653566278573    -0.832305059341    12.000000000000
         C           -6.134770472823     0.680548657690    -0.832603986006    12.000000000000
         C           -3.656788802681    -4.972944131537    -0.831153558718    12.000000000000
         C           -6.134765012405    -0.680554024048    -0.831333589583    12.000000000000
         H            5.835288526324     3.369275786388    -0.827772214832     1.007825032230
         H            7.073859203255     1.228217140333    -0.832116790911     1.007825032230
         H            4.600663294682     5.512380693887    -0.831884570683     1.007825032230
         H            5.835283417813    -3.369306165295    -0.835974855914     1.007825032230
         H           -0.000012120798     6.738530565570    -0.835634090202     1.007825032230
         H            7.073861202338    -1.228227051310    -0.831821851883     1.007825032230
         H            2.473313762307     6.740684182828    -0.831567712716     1.007825032230
         H            4.600668521889    -5.512376237742    -0.831349268069     1.007825032230
         H           -2.473318650030     6.740681611040    -0.831266366091     1.007825032230
         H           -0.000010237720    -6.738528285018    -0.827150664330     1.007825032230
         H           -5.835301883836     3.369270841730    -0.827636192684     1.007825032230
         H            2.473307954339    -6.740685482995    -0.831459541268     1.007825032230
         H           -4.600674810700     5.512377918037    -0.831719242359     1.007825032230
         H           -5.835279476327    -3.369289072346    -0.836254161795     1.007825032230
         H           -2.473300316932    -6.740679186706    -0.831908857813     1.007825032230
         H           -7.073857736260     1.228220364274    -0.832200782392     1.007825032230
         H           -4.600673755577    -5.512362778353    -0.831521576092     1.007825032230
         H           -7.073856903901    -1.228220740543    -0.831916708349     1.007825032230

  Running in c1 symmetry.

  Rotational constants: A =      0.00144  B =      0.00144  C =      0.00110 [cm^-1]
  Rotational constants: A =     43.22721  B =     43.22275  C =     33.02250 [MHz]
  Nuclear repulsion = 7496.903832515517934

  Charge       = -1
  Multiplicity = 1
  Electrons    = 384
  Nalpha       = 192
  Nbeta        = 192

  ==> Algorithm <==

  SCF Algorithm Type is DF.
  DIIS enabled.
  MOM disabled.
  Fractional occupation disabled.
  Guess Type is SAD.
  Energy threshold   = 1.00e-08
  Density threshold  = 1.00e-08
  Integral threshold = 1.00e-12

  ==> Primary Basis <==

  Basis Set: JUN-CC-PVDZ
    Blend: JUN-CC-PVDZ
    Number of shells: 526
    Number of basis functions: 1152
    Number of Cartesian functions: 1211
    Spherical Harmonics?: true
    Max angular momentum: 2

   => Loading Basis Set <=

    Name: (JUN-CC-PVDZ AUX)
    Role: JKFIT
    Keyword: DF_BASIS_SCF
    atoms 1     entry B          line    90 file /home/gridsan/tfroembgen/.conda/envs/psi4test/share/psi4/basis/jun-cc-pvdz-jkfit.gbs 
    atoms 2-5   entry F          line   314 file /home/gridsan/tfroembgen/.conda/envs/psi4test/share/psi4/basis/jun-cc-pvdz-jkfit.gbs 
    atoms 6-59  entry C          line   146 file /home/gridsan/tfroembgen/.conda/envs/psi4test/share/psi4/basis/jun-cc-pvdz-jkfit.gbs 
    atoms 60-77 entry H          line    70 file /home/gridsan/tfroembgen/.conda/envs/psi4test/share/psi4/basis/jun-cc-pvdz-jkfit.gbs 

  ==> Integral Setup <==

  ==> DiskDFJK: Density-Fitted J/K Matrices <==

    J tasked:                  Yes
    K tasked:                  Yes
    wK tasked:                  No
    OpenMP threads:             12
    Integrals threads:          12
    Memory [MiB]:            22888
    Algorithm:                Core
    Integral Cache:           SAVE
    Schwarz Cutoff:          1E-12
    Fitting Condition:       1E-10

   => Auxiliary Basis Set <=

  Basis Set: (JUN-CC-PVDZ AUX)
    Blend: JUN-CC-PVDZ-JKFIT
    Number of shells: 1755
    Number of basis functions: 5075
    Number of Cartesian functions: 5819
    Spherical Harmonics?: true
    Max angular momentum: 3

  Minimum eigenvalue in the overlap matrix is 8.3969057266E-10.
  Reciprocal condition number of the overlap matrix is 3.7532205559E-11.
    Using canonical orthogonalization.
  Overall, 14 of 1152 possible MOs eliminated.


  ==> Pre-Iterations <==

  SCF Guess: Superposition of Atomic Densities via on-the-fly atomic UHF (no occupation information).

   -------------------------
    Irrep   Nso     Nmo    
   -------------------------
     A       1152    1138 
   -------------------------
    Total    1152    1138
   -------------------------

  ==> Iterations <==

                           Total Energy        Delta E     RMS |[F,P]|

   @DF-RHF iter SAD: -2483.25937787771818   -2.48326e+03   0.00000e+00 
   @DF-RHF iter   1: -2477.62580521377822    5.63357e+00   1.09752e-03 DIIS/ADIIS
   @DF-RHF iter   2: -2478.51193770344253   -8.86132e-01   4.73270e-04 DIIS/ADIIS
   @DF-RHF iter   3: -2478.64251918361606   -1.30581e-01   1.30195e-04 DIIS/ADIIS
   @DF-RHF iter   4: -2478.65543265912675   -1.29135e-02   5.18265e-05 DIIS
   @DF-RHF iter   5: -2478.65767736377393   -2.24470e-03   1.56721e-05 DIIS
   @DF-RHF iter   6: -2478.65794944240315   -2.72079e-04   5.36878e-06 DIIS
   @DF-RHF iter   7: -2478.65802954675883   -8.01044e-05   2.64076e-06 DIIS
   @DF-RHF iter   8: -2478.65805156861097   -2.20219e-05   1.21696e-06 DIIS
   @DF-RHF iter   9: -2478.65805811845667   -6.54985e-06   2.47488e-07 DIIS
   @DF-RHF iter  10: -2478.65805833375998   -2.15303e-07   8.72910e-08 DIIS
   @DF-RHF iter  11: -2478.65805835007268   -1.63127e-08   3.38565e-08 DIIS
   @DF-RHF iter  12: -2478.65805835339506   -3.32238e-09   1.15914e-08 DIIS
   @DF-RHF iter  13: -2478.65805835378069   -3.85626e-10   4.57426e-09 DIIS
  Energy and wave function converged.


  ==> Post-Iterations <==

    Orbital Energies [Eh]
    ---------------------

    Doubly Occupied:                                                      

       1A    -26.064421     2A    -26.064386     3A    -26.063850  
       4A    -26.063669     5A    -11.201291     6A    -11.201289  
       7A    -11.201250     8A    -11.201245     9A    -11.201215  
      10A    -11.201198    11A    -11.201184    12A    -11.201167  
      13A    -11.201150    14A    -11.201140    15A    -11.201112  
      16A    -11.201087    17A    -11.200575    18A    -11.200375  
      19A    -11.200345    20A    -11.200158    21A    -11.200127  
      22A    -11.200072    23A    -11.199789    24A    -11.199506  
      25A    -11.199483    26A    -11.199100    27A    -11.199046  
      28A    -11.199009    29A    -11.198681    30A    -11.198665  
      31A    -11.198531    32A    -11.198466    33A    -11.198452  
      34A    -11.198101    35A    -11.198069    36A    -11.197985  
      37A    -11.197965    38A    -11.197816    39A    -11.197777  
      40A    -11.197660    41A    -11.196744    42A    -11.196744  
      43A    -11.196664    44A    -11.196663    45A    -11.196662  
      46A    -11.196660    47A    -11.195320    48A    -11.195320  
      49A    -11.195241    50A    -11.195239    51A    -11.195237  
      52A    -11.195235    53A    -11.194513    54A    -11.194513  
      55A    -11.194478    56A    -11.194476    57A    -11.194444  
      58A    -11.194406    59A     -7.536369    60A     -1.408036  
      61A     -1.348584    62A     -1.348250    63A     -1.347887  
      64A     -1.184887    65A     -1.161534    66A     -1.161478  
      67A     -1.131773    68A     -1.131769    69A     -1.122450  
      70A     -1.100384    71A     -1.091336    72A     -1.077329  
      73A     -1.077289    74A     -1.056099    75A     -1.056098  
      76A     -1.024507    77A     -1.024506    78A     -1.020677  
      79A     -1.009050    80A     -1.009043    81A     -0.982095  
      82A     -0.965919    83A     -0.963421    84A     -0.963410  
      85A     -0.960702    86A     -0.956041    87A     -0.929283  
      88A     -0.929256    89A     -0.904753    90A     -0.904716  
      91A     -0.837255    92A     -0.837222    93A     -0.829712  
      94A     -0.827896    95A     -0.827812    96A     -0.823639  
      97A     -0.823585    98A     -0.804882    99A     -0.781149  
     100A     -0.761041   101A     -0.758695   102A     -0.754538  
     103A     -0.754505   104A     -0.737996   105A     -0.737989  
     106A     -0.688709   107A     -0.687174   108A     -0.675788  
     109A     -0.675750   110A     -0.675448   111A     -0.675415  
     112A     -0.659180   113A     -0.641978   114A     -0.641954  
     115A     -0.636324   116A     -0.636304   117A     -0.604616  
     118A     -0.599315   119A     -0.595830   120A     -0.593744  
     121A     -0.593739   122A     -0.593434   123A     -0.582487  
     124A     -0.582473   125A     -0.572315   126A     -0.570189  
     127A     -0.570171   128A     -0.550388   129A     -0.546389  
     130A     -0.544021   131A     -0.542963   132A     -0.542951  
     133A     -0.536117   134A     -0.533298   135A     -0.533279  
     136A     -0.529288   137A     -0.525608   138A     -0.525482  
     139A     -0.525358   140A     -0.517586   141A     -0.517507  
     142A     -0.510869   143A     -0.510865   144A     -0.508508  
     145A     -0.508466   146A     -0.501268   147A     -0.498389  
     148A     -0.498356   149A     -0.482024   150A     -0.482022  
     151A     -0.480163   152A     -0.480162   153A     -0.472657  
     154A     -0.469045   155A     -0.465832   156A     -0.465804  
     157A     -0.444380   158A     -0.444337   159A     -0.444057  
     160A     -0.438402   161A     -0.436552   162A     -0.430072  
     163A     -0.427549   164A     -0.424618   165A     -0.424605  
     166A     -0.411708   167A     -0.411659   168A     -0.405551  
     169A     -0.405516   170A     -0.405417   171A     -0.393055  
     172A     -0.392957   173A     -0.382203   174A     -0.382034  
     175A     -0.382028   176A     -0.382007   177A     -0.381849  
     178A     -0.346429   179A     -0.346416   180A     -0.344968  
     181A     -0.318640   182A     -0.318634   183A     -0.291536  
     184A     -0.278217   185A     -0.277191   186A     -0.277174  
     187A     -0.253825   188A     -0.241749   189A     -0.225870  
     190A     -0.225830   191A     -0.167369   192A     -0.167329  

    Virtual:                                                              

     193A      0.071339   194A      0.071429   195A      0.097605  
     196A      0.097672   197A      0.099615   198A      0.100175  
     199A      0.100184   200A      0.107264   201A      0.111273  
     202A      0.122221   203A      0.122226   204A      0.122692  
     205A      0.122760   206A      0.133078   207A      0.137007  
     208A      0.137008   209A      0.139155   210A      0.139802  
     211A      0.139886   212A      0.142145   213A      0.142256  
     214A      0.143979   215A      0.146138   216A      0.148165  
     217A      0.148726   218A      0.156776   219A      0.157140  
     220A      0.161793   221A      0.161796   222A      0.166039  
     223A      0.168357   224A      0.171451   225A      0.171461  
     226A      0.172884   227A      0.179721   228A      0.180730  
     229A      0.180747   230A      0.181877   231A      0.184344  
     232A      0.184590   233A      0.185087   234A      0.186561  
     235A      0.186571   236A      0.189098   237A      0.193626  
     238A      0.198066   239A      0.198232   240A      0.198802  
     241A      0.203748   242A      0.203752   243A      0.206122  
     244A      0.206231   245A      0.211153   246A      0.211156  
     247A      0.224221   248A      0.224936   249A      0.225125  
     250A      0.225155   251A      0.226938   252A      0.233344  
     253A      0.233527   254A      0.233632   255A      0.234899  
     256A      0.240122   257A      0.240173   258A      0.242041  
     259A      0.242965   260A      0.243221   261A      0.244910  
     262A      0.250168   263A      0.250189   264A      0.252358  
     265A      0.256949   266A      0.256964   267A      0.258703  
     268A      0.260664   269A      0.261913   270A      0.262143  
     271A      0.264637   272A      0.265133   273A      0.265150  
     274A      0.266728   275A      0.267542   276A      0.267726  
     277A      0.276566   278A      0.278604   279A      0.278769  
     280A      0.279199   281A      0.280258   282A      0.280715  
     283A      0.281008   284A      0.283439   285A      0.283683  
     286A      0.283775   287A      0.288839   288A      0.288966  
     289A      0.295449   290A      0.295612   291A      0.297192  
     292A      0.297385   293A      0.297404   294A      0.300632  
     295A      0.309644   296A      0.309833   297A      0.310941  
     298A      0.310988   299A      0.312650   300A      0.312678  
     301A      0.318142   302A      0.318288   303A      0.324056  
     304A      0.324094   305A      0.326203   306A      0.327773  
     307A      0.328359   308A      0.329243   309A      0.330719  
     310A      0.332174   311A      0.332868   312A      0.334323  
     313A      0.345498   314A      0.346935   315A      0.347541  
     316A      0.348081   317A      0.352045   318A      0.354600  
     319A      0.354807   320A      0.356311   321A      0.357231  
     322A      0.357368   323A      0.360208   324A      0.360507  
     325A      0.361614   326A      0.362763   327A      0.365766  
     328A      0.365802   329A      0.369390   330A      0.369502  
     331A      0.370338   332A      0.374694   333A      0.374746  
     334A      0.374936   335A      0.375964   336A      0.378379  
     337A      0.379350   338A      0.380544   339A      0.381522  
     340A      0.383200   341A      0.385384   342A      0.389923  
     343A      0.390821   344A      0.393707   345A      0.395377  
     346A      0.399205   347A      0.400819   348A      0.401092  
     349A      0.402461   350A      0.403710   351A      0.404331  
     352A      0.406355   353A      0.406464   354A      0.407903  
     355A      0.409620   356A      0.413333   357A      0.418745  
     358A      0.419602   359A      0.420316   360A      0.420347  
     361A      0.426564   362A      0.427146   363A      0.427644  
     364A      0.430421   365A      0.433538   366A      0.436738  
     367A      0.440899   368A      0.441553   369A      0.442725  
     370A      0.443005   371A      0.444824   372A      0.446582  
     373A      0.447384   374A      0.449693   375A      0.450431  
     376A      0.450521   377A      0.451826   378A      0.452065  
     379A      0.453384   380A      0.453441   381A      0.456650  
     382A      0.456695   383A      0.458175   384A      0.461992  
     385A      0.463145   386A      0.464754   387A      0.465577  
     388A      0.465756   389A      0.466822   390A      0.466861  
     391A      0.468766   392A      0.469922   393A      0.470074  
     394A      0.472280   395A      0.474997   396A      0.475680  
     397A      0.477579   398A      0.480247   399A      0.480325  
     400A      0.480690   401A      0.482381   402A      0.482802  
     403A      0.487269   404A      0.491167   405A      0.494794  
     406A      0.495543   407A      0.495926   408A      0.496377  
     409A      0.498099   410A      0.501710   411A      0.502237  
     412A      0.504406   413A      0.504435   414A      0.508195  
     415A      0.508310   416A      0.509334   417A      0.510935  
     418A      0.518655   419A      0.518865   420A      0.519283  
     421A      0.524186   422A      0.524280   423A      0.526279  
     424A      0.527487   425A      0.529995   426A      0.530882  
     427A      0.531928   428A      0.532640   429A      0.533816  
     430A      0.537309   431A      0.537811   432A      0.543123  
     433A      0.543965   434A      0.544138   435A      0.544299  
     436A      0.544996   437A      0.547308   438A      0.548844  
     439A      0.549000   440A      0.552694   441A      0.554044  
     442A      0.555506   443A      0.561087   444A      0.561665  
     445A      0.562151   446A      0.562379   447A      0.563806  
     448A      0.572182   449A      0.572272   450A      0.574351  
     451A      0.577544   452A      0.578209   453A      0.585791  
     454A      0.585941   455A      0.586407   456A      0.586743  
     457A      0.590774   458A      0.596559   459A      0.599649  
     460A      0.603207   461A      0.603262   462A      0.606221  
     463A      0.608238   464A      0.608303   465A      0.608458  
     466A      0.609105   467A      0.609961   468A      0.615779  
     469A      0.617423   470A      0.617703   471A      0.617822  
     472A      0.617986   473A      0.621418   474A      0.626383  
     475A      0.626973   476A      0.627389   477A      0.649886  
     478A      0.650142   479A      0.652909   480A      0.656592  
     481A      0.656682   482A      0.669575   483A      0.675087  
     484A      0.675221   485A      0.683316   486A      0.683465  
     487A      0.683590   488A      0.683983   489A      0.699961  
     490A      0.700218   491A      0.704467   492A      0.705094  
     493A      0.709438   494A      0.709542   495A      0.713525  
     496A      0.726199   497A      0.726404   498A      0.726663  
     499A      0.734662   500A      0.734673   501A      0.737053  
     502A      0.740666   503A      0.745976   504A      0.750287  
     505A      0.773191   506A      0.773361   507A      0.790753  
     508A      0.797382   509A      0.800485   510A      0.800717  
     511A      0.800897   512A      0.801050   513A      0.813788  
     514A      0.813826   515A      0.820769   516A      0.823724  
     517A      0.832643   518A      0.847915   519A      0.853865  
     520A      0.854161   521A      0.862343   522A      0.864862  
     523A      0.866875   524A      0.866994   525A      0.870792  
     526A      0.873540   527A      0.880341   528A      0.880700  
     529A      0.883964   530A      0.884313   531A      0.884489  
     532A      0.892541   533A      0.899259   534A      0.900637  
     535A      0.906961   536A      0.911646   537A      0.911975  
     538A      0.917329   539A      0.921812   540A      0.921980  
     541A      0.926278   542A      0.926932   543A      0.929078  
     544A      0.932383   545A      0.932785   546A      0.932836  
     547A      0.935493   548A      0.938615   549A      0.941583  
     550A      0.945238   551A      0.945660   552A      0.945854  
     553A      0.952571   554A      0.954044   555A      0.954976  
     556A      0.956175   557A      0.956422   558A      0.964458  
     559A      0.965094   560A      0.967496   561A      0.968742  
     562A      0.969610   563A      0.971068   564A      0.974666  
     565A      0.977720   566A      0.978512   567A      0.979201  
     568A      0.983386   569A      0.989570   570A      0.989893  
     571A      0.990428   572A      0.992597   573A      0.992765  
     574A      1.001143   575A      1.001290   576A      1.002287  
     577A      1.002796   578A      1.013942   579A      1.014242  
     580A      1.015538   581A      1.025022   582A      1.025235  
     583A      1.028955   584A      1.029306   585A      1.030391  
     586A      1.030502   587A      1.034757   588A      1.035753  
     589A      1.039519   590A      1.045286   591A      1.045344  
     592A      1.049045   593A      1.056564   594A      1.056728  
     595A      1.062809   596A      1.070530   597A      1.070675  
     598A      1.071432   599A      1.073761   600A      1.073831  
     601A      1.089106   602A      1.089320   603A      1.093756  
     604A      1.094074   605A      1.095210   606A      1.095808  
     607A      1.096144   608A      1.100066   609A      1.100277  
     610A      1.102200   611A      1.102397   612A      1.103278  
     613A      1.105078   614A      1.106728   615A      1.107169  
     616A      1.110434   617A      1.110644   618A      1.117204  
     619A      1.119728   620A      1.121384   621A      1.122112  
     622A      1.126901   623A      1.127536   624A      1.132894  
     625A      1.133750   626A      1.134186   627A      1.137625  
     628A      1.141433   629A      1.141575   630A      1.144669  
     631A      1.144777   632A      1.145380   633A      1.147756  
     634A      1.148398   635A      1.152253   636A      1.160845  
     637A      1.161237   638A      1.161260   639A      1.164163  
     640A      1.172729   641A      1.172782   642A      1.177713  
     643A      1.179481   644A      1.181519   645A      1.182711  
     646A      1.185017   647A      1.185054   648A      1.191479  
     649A      1.195398   650A      1.195536   651A      1.199743  
     652A      1.201275   653A      1.201301   654A      1.203216  
     655A      1.203629   656A      1.212026   657A      1.221657  
     658A      1.231942   659A      1.233130   660A      1.236622  
     661A      1.236735   662A      1.240627   663A      1.242950  
     664A      1.243243   665A      1.251730   666A      1.252845  
     667A      1.257757   668A      1.257896   669A      1.267686  
     670A      1.274959   671A      1.275042   672A      1.278425  
     673A      1.280004   674A      1.280055   675A      1.292355  
     676A      1.293875   677A      1.294198   678A      1.313747  
     679A      1.314458   680A      1.318468   681A      1.318563  
     682A      1.320356   683A      1.320473   684A      1.321449  
     685A      1.321560   686A      1.329828   687A      1.333416  
     688A      1.338001   689A      1.347366   690A      1.350063  
     691A      1.351051   692A      1.351336   693A      1.354388  
     694A      1.355413   695A      1.356620   696A      1.359748  
     697A      1.362424   698A      1.365573   699A      1.366012  
     700A      1.367157   701A      1.373984   702A      1.375982  
     703A      1.376472   704A      1.379338   705A      1.384924  
     706A      1.387594   707A      1.387710   708A      1.391492  
     709A      1.397249   710A      1.399147   711A      1.400949  
     712A      1.402844   713A      1.409264   714A      1.413018  
     715A      1.413045   716A      1.416136   717A      1.417352  
     718A      1.418200   719A      1.418508   720A      1.425487  
     721A      1.425613   722A      1.436002   723A      1.448806  
     724A      1.456242   725A      1.461330   726A      1.461433  
     727A      1.466478   728A      1.466593   729A      1.468853  
     730A      1.469169   731A      1.477869   732A      1.478327  
     733A      1.483061   734A      1.484190   735A      1.487744  
     736A      1.488253   737A      1.493199   738A      1.493277  
     739A      1.495277   740A      1.496652   741A      1.496689  
     742A      1.497237   743A      1.505168   744A      1.505777  
     745A      1.507930   746A      1.522447   747A      1.522972  
     748A      1.531805   749A      1.532620   750A      1.573669  
     751A      1.573794   752A      1.579377   753A      1.579443  
     754A      1.585894   755A      1.610516   756A      1.633873  
     757A      1.635704   758A      1.639963   759A      1.641097  
     760A      1.657835   761A      1.658404   762A      1.659054  
     763A      1.667571   764A      1.667621   765A      1.667733  
     766A      1.672875   767A      1.673096   768A      1.677462  
     769A      1.680539   770A      1.680908   771A      1.689788  
     772A      1.690077   773A      1.697730   774A      1.697876  
     775A      1.701982   776A      1.702038   777A      1.702115  
     778A      1.702736   779A      1.707687   780A      1.718649  
     781A      1.718714   782A      1.724977   783A      1.733762  
     784A      1.733866   785A      1.735322   786A      1.735398  
     787A      1.735515   788A      1.739728   789A      1.744715  
     790A      1.744780   791A      1.753443   792A      1.754497  
     793A      1.756444   794A      1.756525   795A      1.759355  
     796A      1.763749   797A      1.763837   798A      1.772791  
     799A      1.772839   800A      1.799411   801A      1.809703  
     802A      1.816641   803A      1.816663   804A      1.816810  
     805A      1.819047   806A      1.834207   807A      1.834218  
     808A      1.848895   809A      1.848914   810A      1.873265  
     811A      1.873427   812A      1.873463   813A      1.876030  
     814A      1.883056   815A      1.883139   816A      1.888399  
     817A      1.888472   818A      1.893659   819A      1.900652  
     820A      1.901067   821A      1.917319   822A      1.917382  
     823A      1.918164   824A      1.918833   825A      1.920999  
     826A      1.926207   827A      1.929730   828A      1.935303  
     829A      1.938285   830A      1.938318   831A      1.953878  
     832A      1.953963   833A      1.955635   834A      1.959157  
     835A      1.959249   836A      1.962932   837A      1.966633  
     838A      1.966778   839A      1.970914   840A      1.971355  
     841A      1.975393   842A      1.975533   843A      1.977076  
     844A      1.979734   845A      1.979806   846A      1.996032  
     847A      1.998722   848A      1.998921   849A      1.999207  
     850A      2.001493   851A      2.001960   852A      2.002080  
     853A      2.004392   854A      2.006954   855A      2.012091  
     856A      2.012558   857A      2.012620   858A      2.013989  
     859A      2.015672   860A      2.026912   861A      2.033916  
     862A      2.034503   863A      2.041623   864A      2.043093  
     865A      2.043202   866A      2.047663   867A      2.054531  
     868A      2.055507   869A      2.055632   870A      2.060309  
     871A      2.064247   872A      2.069581   873A      2.069774  
     874A      2.085751   875A      2.086004   876A      2.087567  
     877A      2.087657   878A      2.088141   879A      2.088759  
     880A      2.088839   881A      2.105447   882A      2.109087  
     883A      2.109484   884A      2.115520   885A      2.116102  
     886A      2.117455   887A      2.117951   888A      2.126401  
     889A      2.126541   890A      2.128753   891A      2.129367  
     892A      2.129696   893A      2.133573   894A      2.134366  
     895A      2.137193   896A      2.140546   897A      2.142137  
     898A      2.143550   899A      2.149543   900A      2.150036  
     901A      2.151163   902A      2.153724   903A      2.154352  
     904A      2.157939   905A      2.158057   906A      2.160325  
     907A      2.164699   908A      2.165709   909A      2.165860  
     910A      2.168677   911A      2.169108   912A      2.170212  
     913A      2.172678   914A      2.176282   915A      2.176485  
     916A      2.178656   917A      2.178792   918A      2.183288  
     919A      2.183995   920A      2.191869   921A      2.191966  
     922A      2.192633   923A      2.192739   924A      2.200134  
     925A      2.200151   926A      2.212929   927A      2.218220  
     928A      2.218335   929A      2.220528   930A      2.220619  
     931A      2.229922   932A      2.235549   933A      2.235639  
     934A      2.246519   935A      2.246828   936A      2.249605  
     937A      2.250566   938A      2.255009   939A      2.255078  
     940A      2.257193   941A      2.277057   942A      2.278841  
     943A      2.278892   944A      2.284683   945A      2.286779  
     946A      2.286836   947A      2.288343   948A      2.298816  
     949A      2.299120   950A      2.300194   951A      2.300628  
     952A      2.303204   953A      2.316188   954A      2.316327  
     955A      2.327235   956A      2.327262   957A      2.328591  
     958A      2.328655   959A      2.336704   960A      2.356900  
     961A      2.363556   962A      2.368427   963A      2.370174  
     964A      2.378726   965A      2.380500   966A      2.389163  
     967A      2.390003   968A      2.390080   969A      2.392358  
     970A      2.408790   971A      2.409377   972A      2.409885  
     973A      2.410101   974A      2.424457   975A      2.424583  
     976A      2.433796   977A      2.436781   978A      2.472502  
     979A      2.481625   980A      2.481805   981A      2.481817  
     982A      2.493253   983A      2.499110   984A      2.499209  
     985A      2.527718   986A      2.529743   987A      2.530021  
     988A      2.542485   989A      2.542619   990A      2.559747  
     991A      2.575883   992A      2.587111   993A      2.587610  
     994A      2.600012   995A      2.602115   996A      2.602307  
     997A      2.610224   998A      2.610248   999A      2.613404  
    1000A      2.617186  1001A      2.617193  1002A      2.630591  
    1003A      2.630627  1004A      2.630689  1005A      2.631231  
    1006A      2.643149  1007A      2.643320  1008A      2.645079  
    1009A      2.647079  1010A      2.647196  1011A      2.662860  
    1012A      2.680061  1013A      2.680158  1014A      2.682754  
    1015A      2.689320  1016A      2.689889  1017A      2.697727  
    1018A      2.697788  1019A      2.707146  1020A      2.707480  
    1021A      2.713713  1022A      2.739887  1023A      2.740880  
    1024A      2.741128  1025A      2.742659  1026A      2.760812  
    1027A      2.761122  1028A      2.771095  1029A      2.771153  
    1030A      2.776502  1031A      2.776554  1032A      2.780114  
    1033A      2.780364  1034A      2.795679  1035A      2.808927  
    1036A      2.809518  1037A      2.835395  1038A      2.852609  
    1039A      2.852707  1040A      2.873292  1041A      2.884976  
    1042A      2.885478  1043A      2.908707  1044A      2.909011  
    1045A      2.915052  1046A      2.917238  1047A      2.917568  
    1048A      2.917632  1049A      2.923823  1050A      2.948418  
    1051A      2.952571  1052A      2.955684  1053A      2.973305  
    1054A      2.973466  1055A      2.980873  1056A      2.990235  
    1057A      2.990457  1058A      3.006672  1059A      3.006777  
    1060A      3.019539  1061A      3.064631  1062A      3.065194  
    1063A      3.067821  1064A      3.085715  1065A      3.122488  
    1066A      3.122586  1067A      3.128206  1068A      3.128466  
    1069A      3.166198  1070A      3.166947  1071A      3.184060  
    1072A      3.186528  1073A      3.186940  1074A      3.194358  
    1075A      3.203188  1076A      3.203258  1077A      3.203327  
    1078A      3.205728  1079A      3.205756  1080A      3.214500  
    1081A      3.215004  1082A      3.222603  1083A      3.223021  
    1084A      3.247951  1085A      3.267420  1086A      3.271400  
    1087A      3.276475  1088A      3.294501  1089A      3.331143  
    1090A      3.334550  1091A      3.334675  1092A      3.339463  
    1093A      3.339801  1094A      3.474662  1095A      3.475072  
    1096A      3.504287  1097A      3.540125  1098A      3.542822  
    1099A      3.608191  1100A      3.636203  1101A      3.638120  
    1102A      3.652750  1103A      3.684197  1104A      3.686231  
    1105A      3.720521  1106A      3.725466  1107A      3.827287  
    1108A      3.841345  1109A      3.842271  1110A      3.927695  
    1111A      3.927719  1112A      3.970483  1113A      3.970650  
    1114A      4.035321  1115A      4.069352  1116A      4.092769  
    1117A      4.104776  1118A      4.141102  1119A      4.175285  
    1120A      4.175488  1121A      4.175803  1122A      4.203092  
    1123A      4.203415  1124A      4.203612  1125A      4.203928  
    1126A      4.204285  1127A      4.236126  1128A      4.236646  
    1129A      4.236999  1130A      4.450494  1131A      4.450778  
    1132A      4.451017  1133A      4.650435  1134A      4.651546  
    1135A      4.652286  1136A      4.752017  1137A      4.787466  
    1138A      4.788516  

    Final Occupation by Irrep:
              A 
    DOCC [   192 ]
    NA   [   192 ]
    NB   [   192 ]

  @DF-RHF Final Energy: -2478.65805835378069

   => Energetics <=

    Nuclear Repulsion Energy =           7496.9038325155179336
    One-Electron Energy =              -18345.0426680740092706
    Two-Electron Energy =                8369.4807772047097387
    Total Energy =                      -2478.6580583537815983

Computation Completed


Properties will be evaluated at   0.000000,   0.000000,   0.000000 [a0]

Properties computed using the SCF density matrix


 Multipole Moments:

 ------------------------------------------------------------------------------------
     Multipole            Electronic (a.u.)      Nuclear  (a.u.)        Total (a.u.)
 ------------------------------------------------------------------------------------

 L = 1.  Multiply by 2.5417464519 to convert [e a0] to [Debye]
 Dipole X            :         -0.0001809           -0.0000160           -0.0001970
 Dipole Y            :          0.0012767           -0.0001716            0.0011051
 Dipole Z            :         32.8435332          -44.1382269          -11.2946937
 Magnitude           :                                                   11.2946937

 ------------------------------------------------------------------------------------

*** tstop() called on d-3-8-3 at Mon Jan 22 12:12:40 2024
Module time:
	user time   =    3233.48 seconds =      53.89 minutes
	system time =      65.84 seconds =       1.10 minutes
	total time  =        340 seconds =       5.67 minutes
Total time:
	user time   =    3233.48 seconds =      53.89 minutes
	system time =      65.84 seconds =       1.10 minutes
	total time  =        340 seconds =       5.67 minutes

  //>>>>>>>>>>>>>>>>>>>>>>>>>>>>>>>>>>>//
  //            Monomer A HF           //
  //<<<<<<<<<<<<<<<<<<<<<<<<<<<<<<<<<<<//

   => Libint2 <=

    Primary   basis highest AM E, G, H:  7, 7, 4
    Auxiliary basis highest AM E, G, H:  7, 7, 5
    Onebody   basis highest AM E, G, H:  7, 7, 5
    Solid Harmonics ordering:            gaussian

*** tstart() called on d-3-8-3
*** at Mon Jan 22 12:12:40 2024

   => Loading Basis Set <=

    Name: JUN-CC-PVDZ
    Role: ORBITAL
    Keyword: BASIS
    atoms 1     entry B          line   130 file /home/gridsan/tfroembgen/.conda/envs/psi4test/share/psi4/basis/jun-cc-pvdz.gbs 
    atoms 2-5   entry F          line   266 file /home/gridsan/tfroembgen/.conda/envs/psi4test/share/psi4/basis/jun-cc-pvdz.gbs 
    atoms 6-59  entry C          line   164 file /home/gridsan/tfroembgen/.conda/envs/psi4test/share/psi4/basis/jun-cc-pvdz.gbs 
    atoms 60-77 entry H          line    36 file /home/gridsan/tfroembgen/.conda/envs/psi4test/share/psi4/basis/jun-cc-pvdz.gbs 


         ---------------------------------------------------------
                                   SCF
               by Justin Turney, Rob Parrish, Andy Simmonett
                          and Daniel G. A. Smith
                              RHF Reference
                       12 Threads,  30517 MiB Core
         ---------------------------------------------------------

  ==> Geometry <==

    Molecular point group: c1
    Full point group: C1

    Geometry (in Angstrom), charge = -1, multiplicity = 1:

       Center              X                  Y                   Z               Mass       
    ------------   -----------------  -----------------  -----------------  -----------------
         B           -0.000046449334     0.000336519434     6.368254657462    11.009305360000
         F           -1.153597449334     0.000047519434     7.183901657462    18.998403162730
         F            1.153660550666    -0.000581480566     7.183901657462    18.998403162730
         F           -0.000019449334    -1.153637480566     5.552620657462    18.998403162730
         F           -0.000019449334     1.153977519434     5.552620657462    18.998403162730
      Gh(C)           1.225311925931     0.707538180353    -0.825601715254    12.000000000000
      Gh(C)           1.225323886559    -0.707539003137    -0.837932524824    12.000000000000
      Gh(C)          -0.000006123424     1.414965805524    -0.838466148345    12.000000000000
      Gh(C)           2.456448784457     1.418327778612    -0.822714857854    12.000000000000
      Gh(C)           0.000010857787    -1.414976607201    -0.828266591021    12.000000000000
      Gh(C)          -1.225300918401     0.707545265418    -0.823350194932    12.000000000000
      Gh(C)           2.456437785828    -1.418323412447    -0.840177681681    12.000000000000
      Gh(C)          -0.000001302470     2.836800922715    -0.840869698479    12.000000000000
      Gh(C)           3.681826727978     0.709317847435    -0.839828891883    12.000000000000
      Gh(C)           2.455120079373     2.834223552923    -0.839931448844    12.000000000000
      Gh(C)           3.681821135726    -0.709333947995    -0.823756407865    12.000000000000
      Gh(C)          -1.225313568180    -0.707527624110    -0.836859763398    12.000000000000
      Gh(C)           1.226699611710     3.543469375428    -0.823572375934    12.000000000000
      Gh(C)           0.000004815365    -2.836782247802    -0.823418423399    12.000000000000
      Gh(C)          -2.456436002341     1.418316809719    -0.823314799086    12.000000000000
      Gh(C)           2.455123448287    -2.834230137155    -0.823908316233    12.000000000000
      Gh(C)          -1.226714334082     3.543468955184    -0.823469042715    12.000000000000
      Gh(C)           4.914517325709     1.427172763923    -0.833348208854    12.000000000000
      Gh(C)           3.693150221984     3.542795183979    -0.833298409218    12.000000000000
      Gh(C)          -2.456437569560    -1.418313389406    -0.840202719806    12.000000000000
      Gh(C)           1.226704872451    -3.543474350473    -0.839542506684    12.000000000000
      Gh(C)          -2.455125368000     2.834216554068    -0.839925072498    12.000000000000
      Gh(C)           4.914524411290    -1.427187018510    -0.830375466119    12.000000000000
      Gh(C)           1.221424644206     4.970133956694    -0.830237031860    12.000000000000
      Gh(C)           4.893008259828     2.825187891460    -0.832131540495    12.000000000000
      Gh(C)          -1.226696977981    -3.543471105643    -0.839275302275    12.000000000000
      Gh(C)          -3.681818946018     0.709324858166    -0.839816211403    12.000000000000
      Gh(C)           3.693147131658    -3.542801449957    -0.830257575559    12.000000000000
      Gh(C)          -1.221432221486     4.970128189296    -0.830053536487    12.000000000000
      Gh(C)           6.134771003434     0.680547838539    -0.832578434304    12.000000000000
      Gh(C)           3.656788911118     4.972953135001    -0.832389771435    12.000000000000
      Gh(C)          -2.455126877226    -2.834215201627    -0.824152674031    12.000000000000
      Gh(C)          -3.681819148553    -0.709325812035    -0.823638786286    12.000000000000
      Gh(C)           4.893012648421    -2.825200214198    -0.831520388600    12.000000000000
      Gh(C)          -0.000001042605     5.650447257466    -0.831284845194    12.000000000000
      Gh(C)           6.134775142840    -0.680554962641    -0.831313113788    12.000000000000
      Gh(C)           2.478131513363     5.653576642765    -0.831100991785    12.000000000000
      Gh(C)           1.221422435245    -4.970127163499    -0.833036528882    12.000000000000
      Gh(C)          -3.693162353457     3.542796845626    -0.833132901758    12.000000000000
      Gh(C)          -1.221428490437    -4.970118412162    -0.833149290715    12.000000000000
      Gh(C)          -4.914521777434     1.427175338429    -0.833271263846    12.000000000000
      Gh(C)           3.656787050187    -4.972955334806    -0.830939270901    12.000000000000
      Gh(C)          -2.478138499598     5.653574313962    -0.830816466777    12.000000000000
      Gh(C)          -3.693141708056    -3.542790327545    -0.830373701714    12.000000000000
      Gh(C)          -4.914512452545    -1.427181108594    -0.830340768946    12.000000000000
      Gh(C)          -0.000005978418    -5.650438395580    -0.831680349315    12.000000000000
      Gh(C)          -4.893020453593     2.825188490353    -0.832141622355    12.000000000000
      Gh(C)           2.478126023806    -5.653573652455    -0.832029871693    12.000000000000
      Gh(C)          -3.656798679750     4.972956073475    -0.832213091061    12.000000000000
      Gh(C)          -4.892999448349    -2.825191875626    -0.831674424297    12.000000000000
      Gh(C)          -2.478128467575    -5.653566278573    -0.832305059341    12.000000000000
      Gh(C)          -6.134770472823     0.680548657690    -0.832603986006    12.000000000000
      Gh(C)          -3.656788802681    -4.972944131537    -0.831153558718    12.000000000000
      Gh(C)          -6.134765012405    -0.680554024048    -0.831333589583    12.000000000000
      Gh(H)           5.835288526324     3.369275786388    -0.827772214832     1.007825032230
      Gh(H)           7.073859203255     1.228217140333    -0.832116790911     1.007825032230
      Gh(H)           4.600663294682     5.512380693887    -0.831884570683     1.007825032230
      Gh(H)           5.835283417813    -3.369306165295    -0.835974855914     1.007825032230
      Gh(H)          -0.000012120798     6.738530565570    -0.835634090202     1.007825032230
      Gh(H)           7.073861202338    -1.228227051310    -0.831821851883     1.007825032230
      Gh(H)           2.473313762307     6.740684182828    -0.831567712716     1.007825032230
      Gh(H)           4.600668521889    -5.512376237742    -0.831349268069     1.007825032230
      Gh(H)          -2.473318650030     6.740681611040    -0.831266366091     1.007825032230
      Gh(H)          -0.000010237720    -6.738528285018    -0.827150664330     1.007825032230
      Gh(H)          -5.835301883836     3.369270841730    -0.827636192684     1.007825032230
      Gh(H)           2.473307954339    -6.740685482995    -0.831459541268     1.007825032230
      Gh(H)          -4.600674810700     5.512377918037    -0.831719242359     1.007825032230
      Gh(H)          -5.835279476327    -3.369289072346    -0.836254161795     1.007825032230
      Gh(H)          -2.473300316932    -6.740679186706    -0.831908857813     1.007825032230
      Gh(H)          -7.073857736260     1.228220364274    -0.832200782392     1.007825032230
      Gh(H)          -4.600673755577    -5.512362778353    -0.831521576092     1.007825032230
      Gh(H)          -7.073856903901    -1.228220740543    -0.831916708349     1.007825032230

  Running in c1 symmetry.

  Rotational constants: A =      0.00144  B =      0.00144  C =      0.00110 [cm^-1]
  Rotational constants: A =     43.22721  B =     43.22275  C =     33.02250 [MHz]
  Nuclear repulsion =  178.879482610381274

  Charge       = -1
  Multiplicity = 1
  Electrons    = 42
  Nalpha       = 21
  Nbeta        = 21

  ==> Algorithm <==

  SCF Algorithm Type is DF.
  DIIS enabled.
  MOM disabled.
  Fractional occupation disabled.
  Guess Type is SAD.
  Energy threshold   = 1.00e-08
  Density threshold  = 1.00e-08
  Integral threshold = 1.00e-12

  ==> Primary Basis <==

  Basis Set: JUN-CC-PVDZ
    Blend: JUN-CC-PVDZ
    Number of shells: 526
    Number of basis functions: 1152
    Number of Cartesian functions: 1211
    Spherical Harmonics?: true
    Max angular momentum: 2

   => Loading Basis Set <=

    Name: (JUN-CC-PVDZ AUX)
    Role: JKFIT
    Keyword: DF_BASIS_SCF
    atoms 1     entry B          line    90 file /home/gridsan/tfroembgen/.conda/envs/psi4test/share/psi4/basis/jun-cc-pvdz-jkfit.gbs 
    atoms 2-5   entry F          line   314 file /home/gridsan/tfroembgen/.conda/envs/psi4test/share/psi4/basis/jun-cc-pvdz-jkfit.gbs 
    atoms 6-59  entry C          line   146 file /home/gridsan/tfroembgen/.conda/envs/psi4test/share/psi4/basis/jun-cc-pvdz-jkfit.gbs 
    atoms 60-77 entry H          line    70 file /home/gridsan/tfroembgen/.conda/envs/psi4test/share/psi4/basis/jun-cc-pvdz-jkfit.gbs 

  ==> Integral Setup <==

  ==> DiskDFJK: Density-Fitted J/K Matrices <==

    J tasked:                  Yes
    K tasked:                  Yes
    wK tasked:                  No
    OpenMP threads:             12
    Integrals threads:          12
    Memory [MiB]:            22888
    Algorithm:                Core
    Integral Cache:           LOAD
    Schwarz Cutoff:          1E-12
    Fitting Condition:       1E-10

   => Auxiliary Basis Set <=

  Basis Set: (JUN-CC-PVDZ AUX)
    Blend: JUN-CC-PVDZ-JKFIT
    Number of shells: 1755
    Number of basis functions: 5075
    Number of Cartesian functions: 5819
    Spherical Harmonics?: true
    Max angular momentum: 3

  Minimum eigenvalue in the overlap matrix is 8.3969057266E-10.
  Reciprocal condition number of the overlap matrix is 3.7532205559E-11.
    Using canonical orthogonalization.
  Overall, 14 of 1152 possible MOs eliminated.


  ==> Pre-Iterations <==

  SCF Guess: Superposition of Atomic Densities via on-the-fly atomic UHF (no occupation information).

   -------------------------
    Irrep   Nso     Nmo    
   -------------------------
     A       1152    1138 
   -------------------------
    Total    1152    1138
   -------------------------

  ==> Iterations <==

                           Total Energy        Delta E     RMS |[F,P]|

   @DF-RHF iter SAD:  -421.23044426916010   -4.21230e+02   0.00000e+00 
   @DF-RHF iter   1:  -422.64972796839083   -1.41928e+00   5.29806e-04 DIIS/ADIIS
   @DF-RHF iter   2:  -422.73250162641421   -8.27737e-02   3.22889e-04 DIIS/ADIIS
   @DF-RHF iter   3:  -422.77107404489419   -3.85724e-02   1.73800e-05 DIIS
   @DF-RHF iter   4:  -422.77143440091322   -3.60356e-04   2.75055e-06 DIIS
   @DF-RHF iter   5:  -422.77144303692847   -8.63602e-06   7.00841e-07 DIIS
   @DF-RHF iter   6:  -422.77144359301849   -5.56090e-07   1.44575e-07 DIIS
   @DF-RHF iter   7:  -422.77144361391424   -2.08958e-08   1.44033e-08 DIIS
   @DF-RHF iter   8:  -422.77144361412445   -2.10207e-10   4.83600e-09 DIIS
  Energy and wave function converged.


  ==> Post-Iterations <==

    Orbital Energies [Eh]
    ---------------------

    Doubly Occupied:                                                      

       1A    -26.067094     2A    -26.067025     3A    -26.066991  
       4A    -26.066913     5A     -7.539296     6A     -1.410958  
       7A     -1.351246     8A     -1.351191     9A     -1.351060  
      10A     -0.602239    11A     -0.528448    12A     -0.528416  
      13A     -0.528359    14A     -0.447301    15A     -0.447259  
      16A     -0.408464    17A     -0.408427    18A     -0.408369  
      19A     -0.384989    20A     -0.384948    21A     -0.384902  

    Virtual:                                                              

      22A      0.076821    23A      0.078978    24A      0.079137  
      25A      0.087374    26A      0.087378    27A      0.098730  
      28A      0.100277    29A      0.100720    30A      0.116380  
      31A      0.116403    32A      0.116730    33A      0.116833  
      34A      0.124917    35A      0.132152    36A      0.132598  
      37A      0.134547    38A      0.134553    39A      0.135089  
      40A      0.135103    41A      0.142355    42A      0.145340  
      43A      0.145347    44A      0.155192    45A      0.156328  
      46A      0.156536    47A      0.157758    48A      0.162869  
      49A      0.165883    50A      0.168222    51A      0.168552  
      52A      0.168807    53A      0.174621    54A      0.175093  
      55A      0.177728    56A      0.177729    57A      0.180278  
      58A      0.180771    59A      0.185477    60A      0.185563  
      61A      0.186580    62A      0.188132    63A      0.188164  
      64A      0.191762    65A      0.191780    66A      0.195638  
      67A      0.197787    68A      0.197863    69A      0.201864  
      70A      0.202929    71A      0.203678    72A      0.204535  
      73A      0.206680    74A      0.207870    75A      0.209873  
      76A      0.209926    77A      0.211759    78A      0.212774  
      79A      0.215030    80A      0.215052    81A      0.221130  
      82A      0.221204    83A      0.224510    84A      0.224826  
      85A      0.232627    86A      0.233951    87A      0.233976  
      88A      0.234069    89A      0.235840    90A      0.235982  
      91A      0.236471    92A      0.244785    93A      0.245596  
      94A      0.246674    95A      0.248109    96A      0.248645  
      97A      0.251829    98A      0.251939    99A      0.258148  
     100A      0.258511   101A      0.258523   102A      0.260284  
     103A      0.260489   104A      0.263898   105A      0.263912  
     106A      0.264350   107A      0.264435   108A      0.273249  
     109A      0.273320   110A      0.275820   111A      0.278448  
     112A      0.278504   113A      0.283271   114A      0.283757  
     115A      0.283921   116A      0.284339   117A      0.289903  
     118A      0.289971   119A      0.290699   120A      0.290731  
     121A      0.294574   122A      0.300831   123A      0.301128  
     124A      0.304556   125A      0.304565   126A      0.307465  
     127A      0.310574   128A      0.310603   129A      0.314691  
     130A      0.315248   131A      0.318611   132A      0.318692  
     133A      0.318978   134A      0.319103   135A      0.320973  
     136A      0.332515   137A      0.332545   138A      0.335825  
     139A      0.336624   140A      0.337008   141A      0.337022  
     142A      0.340376   143A      0.340433   144A      0.341682  
     145A      0.341702   146A      0.341850   147A      0.346419  
     148A      0.349441   149A      0.353276   150A      0.356407  
     151A      0.356541   152A      0.358139   153A      0.361393  
     154A      0.362093   155A      0.368191   156A      0.377076  
     157A      0.377250   158A      0.379224   159A      0.379296  
     160A      0.379884   161A      0.384036   162A      0.384126  
     163A      0.385648   164A      0.388511   165A      0.388653  
     166A      0.389659   167A      0.390684   168A      0.393568  
     169A      0.397081   170A      0.397173   171A      0.400282  
     172A      0.400679   173A      0.401866   174A      0.413239  
     175A      0.413419   176A      0.414711   177A      0.415164  
     178A      0.415896   179A      0.419471   180A      0.422661  
     181A      0.423547   182A      0.424961   183A      0.425212  
     184A      0.425326   185A      0.429443   186A      0.429684  
     187A      0.429863   188A      0.431210   189A      0.431543  
     190A      0.438375   191A      0.438666   192A      0.439076  
     193A      0.439705   194A      0.440973   195A      0.441712  
     196A      0.443344   197A      0.445117   198A      0.453325  
     199A      0.454150   200A      0.460877   201A      0.461274  
     202A      0.462065   203A      0.463075   204A      0.466087  
     205A      0.469776   206A      0.472944   207A      0.473138  
     208A      0.475393   209A      0.476345   210A      0.476577  
     211A      0.476943   212A      0.481459   213A      0.486200  
     214A      0.487467   215A      0.489258   216A      0.489363  
     217A      0.489540   218A      0.493212   219A      0.493510  
     220A      0.496026   221A      0.497704   222A      0.499231  
     223A      0.499653   224A      0.503426   225A      0.504462  
     226A      0.504559   227A      0.505166   228A      0.505911  
     229A      0.509888   230A      0.512759   231A      0.513350  
     232A      0.513510   233A      0.515547   234A      0.518042  
     235A      0.518655   236A      0.519363   237A      0.523900  
     238A      0.526137   239A      0.530904   240A      0.530994  
     241A      0.532028   242A      0.536584   243A      0.537518  
     244A      0.539910   245A      0.540005   246A      0.544229  
     247A      0.544638   248A      0.547307   249A      0.547469  
     250A      0.548298   251A      0.549724   252A      0.553634  
     253A      0.556081   254A      0.557121   255A      0.559621  
     256A      0.559727   257A      0.561193   258A      0.562383  
     259A      0.564818   260A      0.573082   261A      0.574983  
     262A      0.577093   263A      0.579702   264A      0.581785  
     265A      0.582389   266A      0.584179   267A      0.586221  
     268A      0.586319   269A      0.588292   270A      0.589276  
     271A      0.591136   272A      0.591396   273A      0.592369  
     274A      0.593298   275A      0.593834   276A      0.607312  
     277A      0.607994   278A      0.608279   279A      0.609003  
     280A      0.613639   281A      0.613958   282A      0.620457  
     283A      0.628163   284A      0.628943   285A      0.628966  
     286A      0.629634   287A      0.630462   288A      0.634579  
     289A      0.637484   290A      0.639705   291A      0.639794  
     292A      0.640561   293A      0.644747   294A      0.647474  
     295A      0.653109   296A      0.656229   297A      0.656502  
     298A      0.667171   299A      0.667249   300A      0.669457  
     301A      0.669512   302A      0.670156   303A      0.671607  
     304A      0.672833   305A      0.673647   306A      0.676291  
     307A      0.678706   308A      0.680733   309A      0.687850  
     310A      0.692577   311A      0.696721   312A      0.697423  
     313A      0.698716   314A      0.701036   315A      0.703703  
     316A      0.703943   317A      0.704040   318A      0.706625  
     319A      0.707939   320A      0.708703   321A      0.711375  
     322A      0.719812   323A      0.722519   324A      0.725856  
     325A      0.731533   326A      0.737003   327A      0.737624  
     328A      0.737686   329A      0.737987   330A      0.739221  
     331A      0.744789   332A      0.745937   333A      0.749360  
     334A      0.751043   335A      0.753477   336A      0.753569  
     337A      0.759550   338A      0.759718   339A      0.766508  
     340A      0.768693   341A      0.769380   342A      0.773502  
     343A      0.773773   344A      0.774228   345A      0.775451  
     346A      0.776015   347A      0.783601   348A      0.787118  
     349A      0.787143   350A      0.791106   351A      0.791738  
     352A      0.801255   353A      0.803882   354A      0.804019  
     355A      0.818129   356A      0.818148   357A      0.819509  
     358A      0.825325   359A      0.828121   360A      0.829645  
     361A      0.829700   362A      0.831880   363A      0.832841  
     364A      0.833389   365A      0.838393   366A      0.838453  
     367A      0.839099   368A      0.843735   369A      0.843922  
     370A      0.848182   371A      0.849569   372A      0.853980  
     373A      0.854145   374A      0.855415   375A      0.858947  
     376A      0.859008   377A      0.862618   378A      0.862774  
     379A      0.864553   380A      0.867316   381A      0.874208  
     382A      0.895948   383A      0.895998   384A      0.907310  
     385A      0.907370   386A      0.925721   387A      0.926537  
     388A      0.930120   389A      0.931300   390A      0.934492  
     391A      0.934641   392A      0.940864   393A      0.940967  
     394A      0.941746   395A      0.949114   396A      0.949522  
     397A      0.957419   398A      0.957443   399A      0.957620  
     400A      0.962908   401A      0.989122   402A      0.992064  
     403A      0.992074   404A      1.008313   405A      1.017666  
     406A      1.017703   407A      1.027899   408A      1.027930  
     409A      1.035917   410A      1.043791   411A      1.052209  
     412A      1.052257   413A      1.066824   414A      1.070921  
     415A      1.093377   416A      1.093456   417A      1.112917  
     418A      1.113007   419A      1.119566   420A      1.122064  
     421A      1.122072   422A      1.131121   423A      1.131137  
     424A      1.156311   425A      1.159204   426A      1.159283  
     427A      1.166323   428A      1.218495   429A      1.218556  
     430A      1.223023   431A      1.223174   432A      1.228954  
     433A      1.237085   434A      1.240276   435A      1.240356  
     436A      1.258457   437A      1.258511   438A      1.274793  
     439A      1.280873   440A      1.280927   441A      1.287004  
     442A      1.294140   443A      1.344583   444A      1.344827  
     445A      1.351907   446A      1.358933   447A      1.358941  
     448A      1.363412   449A      1.367874   450A      1.367901  
     451A      1.374967   452A      1.381891   453A      1.381981  
     454A      1.390555   455A      1.393265   456A      1.422656  
     457A      1.433508   458A      1.433511   459A      1.480890  
     460A      1.507884   461A      1.508330   462A      1.525928  
     463A      1.525970   464A      1.530865   465A      1.532505  
     466A      1.532638   467A      1.535772   468A      1.546047  
     469A      1.546976   470A      1.610158   471A      1.618801  
     472A      1.618890   473A      1.622022   474A      1.623165  
     475A      1.631882   476A      1.632198   477A      1.635607  
     478A      1.637939   479A      1.688306   480A      1.700477  
     481A      1.702932   482A      1.713549   483A      1.716200  
     484A      1.724179   485A      1.729175   486A      1.730248  
     487A      1.748607   488A      1.749369   489A      1.751501  
     490A      1.752307   491A      1.764685   492A      1.804573  
     493A      1.805908   494A      1.806067   495A      1.806927  
     496A      1.808109   497A      1.814830   498A      1.818296  
     499A      1.819237   500A      1.821268   501A      1.829763  
     502A      1.833218   503A      1.841869   504A      1.851865  
     505A      1.852519   506A      1.857395   507A      1.857983  
     508A      1.864012   509A      1.876191   510A      1.876465  
     511A      1.887398   512A      1.888332   513A      1.890742  
     514A      1.890993   515A      1.891087   516A      1.892471  
     517A      1.895470   518A      1.896335   519A      1.900057  
     520A      1.902122   521A      1.904347   522A      1.908250  
     523A      1.913203   524A      1.920971   525A      1.921503  
     526A      1.931154   527A      1.936109   528A      1.936272  
     529A      1.939936   530A      1.940361   531A      1.945079  
     532A      1.949876   533A      1.950978   534A      1.952908  
     535A      1.953712   536A      1.957410   537A      1.968637  
     538A      1.969513   539A      1.969758   540A      1.971381  
     541A      1.971510   542A      1.976191   543A      1.981697  
     544A      1.982007   545A      1.989505   546A      1.990234  
     547A      1.992282   548A      1.994369   549A      1.995974  
     550A      1.996885   551A      1.999088   552A      2.000994  
     553A      2.007148   554A      2.008047   555A      2.008819  
     556A      2.015044   557A      2.030444   558A      2.031299  
     559A      2.031484   560A      2.032825   561A      2.034880  
     562A      2.038535   563A      2.039181   564A      2.041842  
     565A      2.049487   566A      2.049630   567A      2.054973  
     568A      2.057818   569A      2.059804   570A      2.059860  
     571A      2.063987   572A      2.064310   573A      2.064461  
     574A      2.070090   575A      2.082632   576A      2.083426  
     577A      2.092009   578A      2.092316   579A      2.121444  
     580A      2.128866   581A      2.129306   582A      2.134056  
     583A      2.138818   584A      2.139359   585A      2.141975  
     586A      2.143214   587A      2.144433   588A      2.145058  
     589A      2.152906   590A      2.156608   591A      2.157237  
     592A      2.161326   593A      2.161683   594A      2.177306  
     595A      2.177399   596A      2.181782   597A      2.183015  
     598A      2.183820   599A      2.190763   600A      2.190895  
     601A      2.200869   602A      2.201325   603A      2.201696  
     604A      2.203538   605A      2.203756   606A      2.208946  
     607A      2.209155   608A      2.210470   609A      2.211160  
     610A      2.211335   611A      2.211724   612A      2.212193  
     613A      2.216541   614A      2.216603   615A      2.222624  
     616A      2.222855   617A      2.223694   618A      2.226636  
     619A      2.226758   620A      2.229276   621A      2.231442  
     622A      2.231563   623A      2.232561   624A      2.233396  
     625A      2.234724   626A      2.237309   627A      2.237512  
     628A      2.238233   629A      2.239437   630A      2.241038  
     631A      2.241358   632A      2.244859   633A      2.245386  
     634A      2.246863   635A      2.249612   636A      2.250162  
     637A      2.253820   638A      2.255159   639A      2.256291  
     640A      2.256523   641A      2.256735   642A      2.278505  
     643A      2.278614   644A      2.299947   645A      2.300992  
     646A      2.305229   647A      2.305302   648A      2.309935  
     649A      2.310140   650A      2.311937   651A      2.314011  
     652A      2.314093   653A      2.329240   654A      2.329965  
     655A      2.330299   656A      2.336426   657A      2.336556  
     658A      2.337536   659A      2.348337   660A      2.348376  
     661A      2.354597   662A      2.354815   663A      2.360002  
     664A      2.371954   665A      2.372098   666A      2.379583  
     667A      2.388620   668A      2.388858   669A      2.391162  
     670A      2.391351   671A      2.396243   672A      2.403055  
     673A      2.406863   674A      2.406960   675A      2.407107  
     676A      2.421148   677A      2.422406   678A      2.426699  
     679A      2.427976   680A      2.429943   681A      2.430251  
     682A      2.432414   683A      2.432497   684A      2.433407  
     685A      2.434748   686A      2.441615   687A      2.442205  
     688A      2.442365   689A      2.443757   690A      2.447187  
     691A      2.450971   692A      2.456920   693A      2.457943  
     694A      2.471087   695A      2.471371   696A      2.472731  
     697A      2.472973   698A      2.474250   699A      2.479943  
     700A      2.481118   701A      2.481953   702A      2.485190  
     703A      2.485279   704A      2.494276   705A      2.498836  
     706A      2.499630   707A      2.504315   708A      2.510524  
     709A      2.510549   710A      2.517641   711A      2.517767  
     712A      2.527296   713A      2.529608   714A      2.532998  
     715A      2.533081   716A      2.538417   717A      2.548055  
     718A      2.548812   719A      2.548980   720A      2.564202  
     721A      2.564400   722A      2.568293   723A      2.568333  
     724A      2.577239   725A      2.587002   726A      2.589723  
     727A      2.597982   728A      2.598045   729A      2.603256  
     730A      2.605204   731A      2.610269   732A      2.610455  
     733A      2.610638   734A      2.610741   735A      2.617590  
     736A      2.622958   737A      2.623023   738A      2.627714  
     739A      2.635837   740A      2.641845   741A      2.642760  
     742A      2.643033   743A      2.667758   744A      2.667790  
     745A      2.684059   746A      2.687516   747A      2.687576  
     748A      2.694400   749A      2.694505   750A      2.695409  
     751A      2.695461   752A      2.696413   753A      2.710666  
     754A      2.711051   755A      2.711180   756A      2.715837  
     757A      2.719850   758A      2.720266   759A      2.720862  
     760A      2.721033   761A      2.739026   762A      2.739153  
     763A      2.755190   764A      2.755393   765A      2.763677  
     766A      2.764005   767A      2.771224   768A      2.771567  
     769A      2.774708   770A      2.776396   771A      2.776601  
     772A      2.782080   773A      2.782187   774A      2.787231  
     775A      2.787381   776A      2.805537   777A      2.805822  
     778A      2.807460   779A      2.807542   780A      2.808944  
     781A      2.813164   782A      2.820474   783A      2.820589  
     784A      2.822448   785A      2.824634   786A      2.829224  
     787A      2.830963   788A      2.831367   789A      2.847284  
[...]
     709A      1.367099   710A      1.380071   711A      1.391429  
     712A      1.398412   713A      1.404135   714A      1.404303  
     715A      1.408072   716A      1.408212   717A      1.412370  
     718A      1.412534   719A      1.420052   720A      1.421952  
     721A      1.425611   722A      1.426553   723A      1.429567  
     724A      1.430271   725A      1.435095   726A      1.436370  
     727A      1.436441   728A      1.439513   729A      1.439707  
     730A      1.440076   731A      1.448098   732A      1.448572  
     733A      1.450504   734A      1.463673   735A      1.463978  
     736A      1.473171   737A      1.473505   738A      1.516506  
     739A      1.516590   740A      1.521243   741A      1.521278  
     742A      1.529469   743A      1.552343   744A      1.572896  
     745A      1.593454   746A      1.599520   747A      1.599921  
     748A      1.600922   749A      1.608597   750A      1.608703  
     751A      1.609211   752A      1.612908   753A      1.613109  
     754A      1.617714   755A      1.621614   756A      1.621795  
     757A      1.630067   758A      1.630599   759A      1.634319  
     760A      1.634476   761A      1.639475   762A      1.640192  
     763A      1.643520   764A      1.643597   765A      1.643736  
     766A      1.643877   767A      1.645593   768A      1.650253  
     769A      1.661070   770A      1.661298   771A      1.667460  
     772A      1.676283   773A      1.676351   774A      1.676754  
     775A      1.676767   776A      1.677017   777A      1.682671  
     778A      1.686609   779A      1.686675   780A      1.696047  
     781A      1.697519   782A      1.699346   783A      1.699390  
     784A      1.700745   785A      1.704752   786A      1.704813  
     787A      1.715712   788A      1.715764   789A      1.739330  
     790A      1.741672   791A      1.745038   792A      1.751390  
     793A      1.760285   794A      1.760325   795A      1.761063  
     796A      1.761745   797A      1.776740   798A      1.776753  
     799A      1.791500   800A      1.791515   801A      1.816501  
     802A      1.816555   803A      1.816679   804A      1.818107  
     805A      1.824642   806A      1.824751   807A      1.826944  
     808A      1.830839   809A      1.831151   810A      1.836934  
     811A      1.842398   812A      1.842763   813A      1.860781  
     814A      1.860799   815A      1.861018   816A      1.861565  
     817A      1.864044   818A      1.868886   819A      1.872237  
     820A      1.880158   821A      1.880203   822A      1.896172  
     823A      1.896252   824A      1.899426   825A      1.902957  
     826A      1.903072   827A      1.908560   828A      1.908711  
     829A      1.913902   830A      1.914576   831A      1.917654  
     832A      1.917793   833A      1.919223   834A      1.921977  
     835A      1.922050   836A      1.940437   837A      1.941216  
     838A      1.941926   839A      1.942096   840A      1.946419  
     841A      1.946463   842A      1.954189   843A      1.954297  
     844A      1.954367   845A      1.954846   846A      1.957990  
     847A      1.970571   848A      1.983086   849A      1.983398  
     850A      1.990060   851A      1.997093   852A      1.998530  
     853A      1.998558   854A      2.004402   855A      2.008069  
     856A      2.012262   857A      2.012583   858A      2.027780  
     859A      2.027849   860A      2.029993   861A      2.030128  
     862A      2.030603   863A      2.031245   864A      2.031351  
     865A      2.047854   866A      2.051823   867A      2.052348  
     868A      2.057528   869A      2.058120   870A      2.059752  
     871A      2.061142   872A      2.068261   873A      2.070195  
     874A      2.071298   875A      2.071854   876A      2.075593  
     877A      2.076271   878A      2.081697   879A      2.084466  
     880A      2.085228   881A      2.092877   882A      2.094733  
     883A      2.095675   884A      2.096847   885A      2.100534  
     886A      2.100612   887A      2.106808   888A      2.108237  
     889A      2.108354   890A      2.109839   891A      2.109881  
     892A      2.111423   893A      2.114613   894A      2.119256  
     895A      2.119348   896A      2.120480   897A      2.120680  
     898A      2.126117   899A      2.126457   900A      2.133685  
     901A      2.134560   902A      2.135797   903A      2.135867  
     904A      2.143165   905A      2.143182   906A      2.155585  
     907A      2.159692   908A      2.159732   909A      2.162761  
     910A      2.162888   911A      2.171265   912A      2.178248  
     913A      2.178329   914A      2.190363   915A      2.190734  
     916A      2.192486   917A      2.193773   918A      2.195774  
     919A      2.195873   920A      2.198388   921A      2.219654  
     922A      2.220272   923A      2.220295   924A      2.227953  
     925A      2.228143   926A      2.228516   927A      2.229115  
     928A      2.243230   929A      2.243597   930A      2.243813  
     931A      2.244217   932A      2.247102   933A      2.260055  
     934A      2.260207   935A      2.270124   936A      2.270154  
     937A      2.272009   938A      2.272069   939A      2.281041  
     940A      2.300172   941A      2.306660   942A      2.310306  
     943A      2.312138   944A      2.320232   945A      2.322301  
     946A      2.330932   947A      2.330989   948A      2.331081  
     949A      2.333838   950A      2.350675   951A      2.351402  
     952A      2.352345   953A      2.352461   954A      2.366262  
     955A      2.366377   956A      2.374576   957A      2.379509  
     958A      2.415837   959A      2.423991   960A      2.424366  
     961A      2.424386   962A      2.436441   963A      2.441095  
     964A      2.441165   965A      2.469884   966A      2.472706  
     967A      2.472975   968A      2.485364   969A      2.485482  
     970A      2.502286   971A      2.519220   972A      2.529762  
     973A      2.529879   974A      2.543458   975A      2.545337  
     976A      2.545550   977A      2.554232   978A      2.554255  
     979A      2.554785   980A      2.559814   981A      2.559830  
     982A      2.572957   983A      2.572997   984A      2.574644  
     985A      2.575197   986A      2.586216   987A      2.586342  
     988A      2.587238   989A      2.589697   990A      2.591381  
     991A      2.606037   992A      2.623437   993A      2.623511  
     994A      2.625168   995A      2.631304   996A      2.631900  
     997A      2.641163   998A      2.641224   999A      2.650763  
    1000A      2.651114  1001A      2.656834  1002A      2.681891  
    1003A      2.683111  1004A      2.683963  1005A      2.686739  
    1006A      2.701966  1007A      2.702254  1008A      2.712995  
    1009A      2.713005  1010A      2.718662  1011A      2.718676  
    1012A      2.722590  1013A      2.722884  1014A      2.737619  
    1015A      2.752081  1016A      2.752633  1017A      2.776920  
    1018A      2.794506  1019A      2.794578  1020A      2.810484  
    1021A      2.810953  1022A      2.812200  1023A      2.816062  
    1024A      2.827077  1025A      2.827544  1026A      2.851687  
    1027A      2.851950  1028A      2.856006  1029A      2.858296  
    1030A      2.859362  1031A      2.859411  1032A      2.867122  
    1033A      2.916648  1034A      2.916794  1035A      2.923806  
    1036A      2.933508  1037A      2.933573  1038A      2.949550  
    1039A      2.949604  1040A      2.962740  1041A      3.006772  
    1042A      3.007165  1043A      3.011851  1044A      3.029327  
    1045A      3.064044  1046A      3.064162  1047A      3.070382  
    1048A      3.070621  1049A      3.109363  1050A      3.110136  
    1051A      3.127716  1052A      3.129421  1053A      3.129878  
    1054A      3.137438  1055A      3.146280  1056A      3.146284  
    1057A      3.146347  1058A      3.148984  1059A      3.149008  
    1060A      3.157602  1061A      3.158102  1062A      3.165645  
    1063A      3.166067  1064A      3.191610  1065A      3.211129  
    1066A      3.218402  1067A      3.237359  1068A      3.272588  
    1069A      3.276890  1070A      3.277026  1071A      3.281711  
    1072A      3.281997  1073A      3.416256  1074A      3.416693  
    1075A      3.442840  1076A      3.481323  1077A      3.484057  
    1078A      3.549075  1079A      3.577011  1080A      3.578992  
    1081A      3.593799  1082A      3.626459  1083A      3.628461  
    1084A      3.662846  1085A      3.667796  1086A      3.769206  
    1087A      3.782642  1088A      3.783593  1089A      3.870692  
    1090A      3.870744  1091A      3.913074  1092A      3.913203  
    1093A      3.976891  1094A      4.010849  1095A      4.032674  
    1096A      4.044632  1097A      4.080790  1098A      4.181460  
    1099A      4.186751  1100A      4.188532  1101A      4.322236  
    1102A      5.746633  1103A      5.746866  1104A      5.747926  
    1105A      5.751176  1106A      5.751373  1107A      5.756709  
    1108A      5.757398  1109A      5.758459  1110A      5.776862  
    1111A      5.777170  1112A      5.777884  1113A      6.017759  
    1114A      6.018405  1115A      6.018904  1116A      6.190793  
    1117A      6.324894  1118A      6.325204  1119A      6.370722  
    1120A      6.372586  1121A      6.373248  1122A      7.140792  
    1123A      7.165802  1124A      7.220386  1125A      7.223728  
    1126A      7.226340  1127A      7.242406  1128A      7.244273  
    1129A      7.251730  1130A      7.452270  1131A      7.454072  
    1132A      7.459312  1133A      7.590822  1134A     12.591621  
    1135A     42.905506  1136A     42.907628  1137A     42.908732  
    1138A     42.935759  

    Final Occupation by Irrep:
              A 
    DOCC [   171 ]
    NA   [   171 ]
    NB   [   171 ]

  @DF-RHF Final Energy: -2055.89165912993303

   => Energetics <=

    Nuclear Repulsion Energy =           6452.5568002797781446
    One-Electron Energy =              -15636.4257690059421293
    Two-Electron Energy =                7127.9773095962318621
    Total Energy =                      -2055.8916591299330321

Computation Completed


Properties will be evaluated at   0.000000,   0.000000,   0.000000 [a0]

Properties computed using the SCF density matrix


 Multipole Moments:

 ------------------------------------------------------------------------------------
     Multipole            Electronic (a.u.)      Nuclear  (a.u.)        Total (a.u.)
 ------------------------------------------------------------------------------------

 L = 1.  Multiply by 2.5417464519 to convert [e a0] to [Debye]
 Dipole X            :          0.0000813            0.0000112            0.0000925
 Dipole Y            :          0.0000262           -0.0000531           -0.0000269
 Dipole Z            :        537.5421475         -537.5432143           -0.0010668
 Magnitude           :                                                    0.0010711

 ------------------------------------------------------------------------------------

*** tstop() called on d-3-8-3 at Mon Jan 22 12:17:44 2024
Module time:
	user time   =    1928.25 seconds =      32.14 minutes
	system time =      35.94 seconds =       0.60 minutes
	total time  =        203 seconds =       3.38 minutes
Total time:
	user time   =    6071.39 seconds =     101.19 minutes
	system time =     116.25 seconds =       1.94 minutes
	total time  =        644 seconds =      10.73 minutes
  Constructing Basis Sets for SAPT...

   => Loading Basis Set <=

    Name: (JUN-CC-PVDZ AUX)
    Role: RIFIT
    Keyword: DF_BASIS_SAPT
    atoms 1     entry B          line    56 file /home/gridsan/tfroembgen/.conda/envs/psi4test/share/psi4/basis/jun-cc-pvdz-ri.gbs 
    atoms 2-5   entry F          line   232 file /home/gridsan/tfroembgen/.conda/envs/psi4test/share/psi4/basis/jun-cc-pvdz-ri.gbs 
    atoms 6-59  entry C          line   100 file /home/gridsan/tfroembgen/.conda/envs/psi4test/share/psi4/basis/jun-cc-pvdz-ri.gbs 
    atoms 60-77 entry H          line    30 file /home/gridsan/tfroembgen/.conda/envs/psi4test/share/psi4/basis/jun-cc-pvdz-ri.gbs 

   => Loading Basis Set <=

    Name: (JUN-CC-PVDZ AUX)
    Role: JKFIT
    Keyword: DF_BASIS_ELST
    atoms 1     entry B          line    90 file /home/gridsan/tfroembgen/.conda/envs/psi4test/share/psi4/basis/jun-cc-pvdz-jkfit.gbs 
    atoms 2-5   entry F          line   314 file /home/gridsan/tfroembgen/.conda/envs/psi4test/share/psi4/basis/jun-cc-pvdz-jkfit.gbs 
    atoms 6-59  entry C          line   146 file /home/gridsan/tfroembgen/.conda/envs/psi4test/share/psi4/basis/jun-cc-pvdz-jkfit.gbs 
    atoms 60-77 entry H          line    70 file /home/gridsan/tfroembgen/.conda/envs/psi4test/share/psi4/basis/jun-cc-pvdz-jkfit.gbs 


  //>>>>>>>>>>>>>>>>>>>>>>>>>>>>>>>>>>>//
  //               SSAPT0              //
  //<<<<<<<<<<<<<<<<<<<<<<<<<<<<<<<<<<<//


*** tstart() called on d-3-8-3
*** at Mon Jan 22 12:17:45 2024

        SAPT0  
    Ed Hohenstein
     6 June 2009

      Orbital Information
  --------------------------
    NSO        =      1152
    NMO        =      1138
    NRI        =      4087
    NRI (Elst) =      5075
    NOCC A     =        21
    NOCC B     =       171
    FOCC A     =         5
    FOCC B     =        54
    NVIR A     =      1117
    NVIR B     =       967

    Elst10,r            =     0.007175293867 [Eh]
    Exch10              =    -0.000000167073 [Eh]
    Exch10 (S^2)        =    -0.000000167073 [Eh]

    Iter     Energy [mEh]          dE [mEh]         Residual      Time [s]
       1      -0.00440504       0.004405039       0.486314233           612
       2      -0.00518463       0.000779587       0.254157055          1034
       3      -0.00550226       0.000317636       0.048248900          1225
       4      -0.00550896       0.000006696       0.010091866          1247
       5      -0.00549978      -0.000009182       0.001363109          1261
       6      -0.00550087       0.000001096       0.000259591          1274
       7      -0.00550083      -0.000000039       0.000059743          1308
       8      -0.00550082      -0.000000016       0.000012019          1324
       9      -0.00550082      -0.000000000       0.000003131          1336
      10      -0.00550082       0.000000001       0.000000469          1350

    CHF Iterations converged


    Iter     Energy [mEh]          dE [mEh]         Residual      Time [s]
       1      -3.07173313       3.071733131      29.027751307           231
       2      -2.08644017      -0.985292965       3.633648884           466
       3      -2.08813261       0.001692448       1.302335914           491
       4      -2.13759613       0.049463517       0.292651538           510
       5      -2.13982260       0.002226472       0.082051905           530
       6      -2.13885739      -0.000965211       0.038769606           548
       7      -2.13852781      -0.000329579       0.018071489           567
       8      -2.13871171       0.000183897       0.012261118           586
       9      -2.13877284       0.000061126       0.007658845           611
      10      -2.13871786      -0.000054971       0.004075256           629
      11      -2.13870957      -0.000008299       0.001867058           646
      12      -2.13871491       0.000005343       0.000790760           662
      13      -2.13871843       0.000003518       0.000294929           685
      14      -2.13871813      -0.000000301       0.000103330           702
      15      -2.13871745      -0.000000675       0.000039624           718
      16      -2.13871759       0.000000139       0.000026104           735
      17      -2.13871769       0.000000096       0.000011142           752
      18      -2.13871767      -0.000000019       0.000004009           770
      19      -2.13871765      -0.000000015       0.000002082           788
      20      -2.13871765      -0.000000002       0.000000914           802

    CHF Iterations converged

    Ind20,r (A<-B)      =    -0.000005500817 [Eh]
    Ind20,r (B<-A)      =    -0.002138717651 [Eh]
    Ind20,r             =    -0.002144218468 [Eh]
    Exch-Ind20,r (A<-B) =     0.000000025920 [Eh]
    Exch-Ind20,r (B<-A) =     0.000000060604 [Eh]
    Exch-Ind20,r        =     0.000000086524 [Eh]
    Disp20              =    -0.000342721598 [Eh]
    Disp20 (SS)         =    -0.000171360799 [Eh]
    Disp20 (OS)         =    -0.000171360799 [Eh]
    Exch-Disp20         =     0.000000066929 [Eh]
    Exch-Disp20 (SS)    =     0.000000051837 [Eh]
    Exch-Disp20 (OS)    =     0.000000015092 [Eh]

    SAPT Results 
  --------------------------------------------------------------------------------------------------------
    Electrostatics                  7.17529387 [mEh]       4.50256488 [kcal/mol]      18.83873145 [kJ/mol]
      Elst10,r                      7.17529387 [mEh]       4.50256488 [kcal/mol]      18.83873145 [kJ/mol]

    Exchange                       -0.00016707 [mEh]      -0.00010484 [kcal/mol]      -0.00043865 [kJ/mol]
      Exch10                       -0.00016707 [mEh]      -0.00010484 [kcal/mol]      -0.00043865 [kJ/mol]
      Exch10(S^2)                  -0.00016707 [mEh]      -0.00010484 [kcal/mol]      -0.00043865 [kJ/mol]

    Induction                      -2.13073652 [mEh]      -1.33705735 [kcal/mol]      -5.59424796 [kJ/mol]
      Ind20,r                      -2.14421847 [mEh]      -1.34551740 [kcal/mol]      -5.62964481 [kJ/mol]
      Exch-Ind20,r                  0.00008652 [mEh]       0.00005429 [kcal/mol]       0.00022717 [kJ/mol]
      delta HF,r (2)                0.01339543 [mEh]       0.00840576 [kcal/mol]       0.03516969 [kJ/mol]

    Dispersion                     -0.34265467 [mEh]      -0.21501905 [kcal/mol]      -0.89963971 [kJ/mol]
      Disp20                       -0.34272160 [mEh]      -0.21506105 [kcal/mol]      -0.89981543 [kJ/mol]
      Exch-Disp20                   0.00006693 [mEh]       0.00004200 [kcal/mol]       0.00017572 [kJ/mol]
      Disp20 (SS)                  -0.17136080 [mEh]      -0.10753052 [kcal/mol]      -0.44990772 [kJ/mol]
      Disp20 (OS)                  -0.17136080 [mEh]      -0.10753052 [kcal/mol]      -0.44990772 [kJ/mol]
      Exch-Disp20 (SS)              0.00005184 [mEh]       0.00003253 [kcal/mol]       0.00013610 [kJ/mol]
      Exch-Disp20 (OS)              0.00001509 [mEh]       0.00000947 [kcal/mol]       0.00003962 [kJ/mol]

  Total HF                          5.04439028 [mEh]       3.16540269 [kcal/mol]      13.24404485 [kJ/mol]
  Total SAPT0                       4.70173561 [mEh]       2.95038364 [kcal/mol]      12.34440514 [kJ/mol]

  Special recipe for scaled SAPT0 (see Manual):
    Electrostatics sSAPT0           7.17529387 [mEh]       4.50256488 [kcal/mol]      18.83873145 [kJ/mol]
    Exchange sSAPT0                -0.00016707 [mEh]      -0.00010484 [kcal/mol]      -0.00043865 [kJ/mol]
    Induction sSAPT0               -2.13073652 [mEh]      -1.33705735 [kcal/mol]      -5.59424796 [kJ/mol]
    Dispersion sSAPT0              -0.34265467 [mEh]      -0.21501905 [kcal/mol]      -0.89963971 [kJ/mol]
  Total sSAPT0                      4.70173561 [mEh]       2.95038364 [kcal/mol]      12.34440514 [kJ/mol]
  --------------------------------------------------------------------------------------------------------

*** tstop() called on d-3-8-3 at Mon Jan 22 13:27:32 2024
Module time:
	user time   =    6646.13 seconds =     110.77 minutes
	system time =     759.12 seconds =      12.65 minutes
	total time  =       4187 seconds =      69.78 minutes
Total time:
	user time   =   12718.29 seconds =     211.97 minutes
	system time =     875.37 seconds =      14.59 minutes
	total time  =       4832 seconds =      80.53 minutes

    Psi4 stopped on: Monday, 22 January 2024 01:27PM
    Psi4 wall time for execution: 1:20:34.52

*** Psi4 exiting successfully. Buy a developer a beer!
