
    -----------------------------------------------------------------------
          Psi4: An Open-Source Ab Initio Electronic Structure Package
                               Psi4 1.9 release

                         Git: Rev {} zzzzzzz 


    D. G. A. Smith, L. A. Burns, A. C. Simmonett, R. M. Parrish,
    M. C. Schieber, R. Galvelis, P. Kraus, H. Kruse, R. Di Remigio,
    A. Alenaizan, A. M. James, S. Lehtola, J. P. Misiewicz, M. Scheurer,
    R. A. Shaw, J. B. Schriber, Y. Xie, Z. L. Glick, D. A. Sirianni,
    J. S. O'Brien, J. M. Waldrop, A. Kumar, E. G. Hohenstein,
    B. P. Pritchard, B. R. Brooks, H. F. Schaefer III, A. Yu. Sokolov,
    K. Patkowski, A. E. DePrince III, U. Bozkaya, R. A. King,
    F. A. Evangelista, J. M. Turney, T. D. Crawford, C. D. Sherrill,
    J. Chem. Phys. 152(18) 184108 (2020). https://doi.org/10.1063/5.0006002

                            Additional Code Authors
    E. T. Seidl, C. L. Janssen, E. F. Valeev, M. L. Leininger,
    J. F. Gonthier, R. M. Richard, H. R. McAlexander, M. Saitow, X. Wang,
    P. Verma, M. H. Lechner, A. Jiang, S. Behnle, A. G. Heide,
    M. F. Herbst, and D. L. Poole

             Previous Authors, Complete List of Code Contributors,
                       and Citations for Specific Modules
    https://github.com/psi4/psi4/blob/master/codemeta.json
    https://github.com/psi4/psi4/graphs/contributors
    http://psicode.org/psi4manual/master/introduction.html#citing-psifour

    -----------------------------------------------------------------------


    Psi4 started on: Saturday, 10 February 2024 12:02PM

    Process ID: 2747835
    Host:       n2cn0366
    PSIDATADIR: /opt/software/pc2/EB-SW/software/PSI4/1.9-foss-2022a/share/psi4
    Memory:     500.0 MiB
    Threads:    16
    
  ==> Input File <==

--------------------------------------------------------------------------
memory 48 GB # how much memory is available ! Depends on the nodes/cores !

molecule dimer {
# monomer A
+1 1    # Charge and multiplicity
C  0.680067 -1.215929 2.708042
C -0.680504 -1.215545 2.706014
N -1.085635  0.102779 2.705016
C  0.000108  0.884180 2.701740
C -2.477365  0.570758 2.655610
N  1.085222  0.102779 2.705016
H  1.385146 -2.033368 2.715870
H -1.385302 -2.033214 2.706204
H -0.000009  1.965269 2.699993
C  2.478117  0.567877 2.721908
H  2.490592  1.658130 2.694563
H  2.967028  0.220701 3.635354
H  3.001428  0.176405 1.846425
H -2.857359  0.490799 1.633539
H -3.082679 -0.042306 3.325694
H -2.518128  1.610706 2.982594
--
# monomer B
0 1     # Charge and multiplicity
C   1.22531237526482      0.70753866091955      0.00613762728373
C   1.22532433589282     -0.70753852257020     -0.00619318228664
C   -0.00000567409046      1.41496628609039     -0.00672680580738
C   2.45644923379077      1.41832825917820      0.00902448468363
C   0.00001130712078     -1.41497612663474      0.00347275151708
C   -1.22530046906674      0.70754574598412      0.00838914760619
C   2.45643823516184     -1.41832293188077     -0.00843833914343
C   -0.00000085313587      2.83680140328112     -0.00913035594137
C   3.68182717731192      0.70931832800114     -0.00808954934571
C   2.45512052870677      2.83422403348893     -0.00819210630633
C   3.68182158506039     -0.70933346742900      0.00798293467272
C   -1.22531311884624     -0.70752714354401     -0.00512042085974
C   1.22670006104402      3.54346985599427      0.00816696660346
C   0.00000526469929     -2.83678176723568      0.00832091913869
C   -2.45643555300670      1.41831729028492      0.00842454345199
C   2.45512389762097     -2.83422965658853      0.00783102630520
C   -1.22671388474763      3.54346943575023      0.00827029982280
C   4.91451777504333      1.42717324448953     -0.00160886631602
C   3.69315067131765      3.54279566454522     -0.00155906667985
C   -2.45643712022637     -1.41831290883911     -0.00846337726810
C   1.22670532178455     -3.54347386990643     -0.00780316414624
C   -2.45512491866593      2.83421703463423     -0.00818572995999
C   4.91452486062398     -1.42718653794377      0.00136387641845
C   1.22142509354026      4.97013443726031      0.00150231067809
C   4.89300870916237      2.82518837202648     -0.00039219795739
C   -1.22669652864725     -3.54347062507680     -0.00753595973677
C   -3.68181849668397      0.70932533873199     -0.00807686886569
C   3.69314758099218     -3.54280096939050      0.00148176697923
C   -1.22143177215231      4.97012866986289      0.00168580605083
C   6.13477145276790      0.68054831910577     -0.00083909176631
C   3.65678936045204      4.97295361556775     -0.00065042889723
C   -2.45512642789169     -2.83421472106065      0.00758666850712
C   -3.68181869921921     -0.70932533146830      0.00810055625144
C   4.89301309775526     -2.82519973363176      0.00021895393805
C   -0.00000059327114      5.65044773803267      0.00045449734393
C   6.13477559217374     -0.68055448207492      0.00042622874941
C   2.47813196269732      5.65357712333155      0.00063835075260
C   1.22142288457925     -4.97012668293268     -0.00129718634452
C   -3.69316190412301      3.54279732619245     -0.00139355922051
C   -1.22142804110313     -4.97011793159564     -0.00140994817719
C   -4.91452132810043      1.42717581899491     -0.00153192130862
C   3.65678749952045     -4.97295485423912      0.00080007163680
C   -2.47813805026426      5.65357479452875      0.00092287576113
C   -3.69314125872231     -3.54278984697859      0.00136564082345
C   -4.91451200321153     -1.42718062802730      0.00139857359209
C   -0.00000552908399     -5.65043791501335      0.00005899322272
C   -4.89302000425900      2.82518897091939     -0.00040227981744
C   2.47812647313991     -5.65357317188818     -0.00029052915548
C   -3.65679823041642      4.97295655404175     -0.00047374852278
C   -4.89299899901461     -2.82519139505969      0.00006491824035
C   -2.47812801824129     -5.65356579800621     -0.00056571680280
C   -6.13477002348955      0.68054913825639     -0.00086464346868
C   -3.65678835334731     -4.97294365097028      0.00058578382008
C   -6.13476456307132     -0.68055354348201      0.00040575295444
H   5.83528897565761      3.36927626695423      0.00396712770529
H   7.07385965258860      1.22821762089947     -0.00037744837300
H   4.60066374401555      5.51238117445323     -0.00014522814529
H   5.83528386714679     -3.36930568472863     -0.00423551337640
H   -0.00001167146422      6.73853104613662     -0.00389474766392
H   7.07386165167227     -1.22822657074368     -0.00008250934481
H   2.47331421164041      6.74068466339473      0.00017162982210
H   4.60066897122302     -5.51237575717576      0.00039007446835
H   -2.47331820069565      6.74068209160650      0.00047297644710
H   -0.00000978838621     -6.73852780445195      0.00458867820736
H   -5.83530143450167      3.36927132229595      0.00410314985360
H   2.47330840367253     -6.74068500242887      0.00027980126949
H   -4.60067436136587      5.51237839860371      0.00002010017831
H   -5.83527902699321     -3.36928859177951     -0.00451481925734
H   -2.47329986759855     -6.74067870613986     -0.00016951527498
H   -7.07385728692578      1.22822084484047     -0.00046143985387
H   -4.60067330624313     -5.51236229778631      0.00021776644566
H   -7.07385645456741     -1.22822025997701     -0.00017736581114

    units angstrom      # Angstroms are the default
    no_reorient         # Geometry fixed, default
    symmetry c1         # C1 symmetry, default
}

set {
    scf_type DF         # Density fitting, faster than exact integrals
    freeze_core True    # Freeze core electrons
    basis jun-cc-pVDZ   # Jun-cc-pVDZ basis set, recommended for sSAPT0 in https://doi.org/10.1063/1.4867135
}

energy('ssapt0')        # Compute sSAPT0 energy, includes also SAPT0
--------------------------------------------------------------------------

  Memory set to  44.703 GiB by Python driver.

Scratch directory: /tmp/
   => Loading Basis Set <=

    Name: JUN-CC-PVDZ
    Role: ORBITAL
    Keyword: BASIS
    atoms 1-2, 4-5, 10, 17-70 entry C          line   164 file /opt/software/pc2/EB-SW/software/PSI4/1.9-foss-2022a/share/psi4/basis/jun-cc-pvdz.gbs 
    atoms 3, 6                entry N          line   198 file /opt/software/pc2/EB-SW/software/PSI4/1.9-foss-2022a/share/psi4/basis/jun-cc-pvdz.gbs 
    atoms 7-9, 11-16, 71-88   entry H          line    36 file /opt/software/pc2/EB-SW/software/PSI4/1.9-foss-2022a/share/psi4/basis/jun-cc-pvdz.gbs 

   => Loading Basis Set <=

    Name: JUN-CC-PVDZ
    Role: ORBITAL
    Keyword: BASIS
    atoms 1-2, 4-5, 10, 17-70 entry C          line   164 file /opt/software/pc2/EB-SW/software/PSI4/1.9-foss-2022a/share/psi4/basis/jun-cc-pvdz.gbs 
    atoms 3, 6                entry N          line   198 file /opt/software/pc2/EB-SW/software/PSI4/1.9-foss-2022a/share/psi4/basis/jun-cc-pvdz.gbs 
    atoms 7-9, 11-16, 71-88   entry H          line    36 file /opt/software/pc2/EB-SW/software/PSI4/1.9-foss-2022a/share/psi4/basis/jun-cc-pvdz.gbs 


  //>>>>>>>>>>>>>>>>>>>>>>>>>>>>>>>>>>>//
  //              Dimer HF             //
  //<<<<<<<<<<<<<<<<<<<<<<<<<<<<<<<<<<<//

   => Libint2 <=

    Primary   basis highest AM E, G, H:  5, 4, 3
    Auxiliary basis highest AM E, G, H:  6, 5, 4
    Onebody   basis highest AM E, G, H:  6, 5, 4
    Solid Harmonics ordering:            gaussian

*** tstart() called on n2cn0366
*** at Sat Feb 10 12:02:16 2024

   => Loading Basis Set <=

    Name: JUN-CC-PVDZ
    Role: ORBITAL
    Keyword: BASIS
    atoms 1-2, 4-5, 10, 17-70 entry C          line   164 file /opt/software/pc2/EB-SW/software/PSI4/1.9-foss-2022a/share/psi4/basis/jun-cc-pvdz.gbs 
    atoms 3, 6                entry N          line   198 file /opt/software/pc2/EB-SW/software/PSI4/1.9-foss-2022a/share/psi4/basis/jun-cc-pvdz.gbs 
    atoms 7-9, 11-16, 71-88   entry H          line    36 file /opt/software/pc2/EB-SW/software/PSI4/1.9-foss-2022a/share/psi4/basis/jun-cc-pvdz.gbs 


         ---------------------------------------------------------
                                   SCF
               by Justin Turney, Rob Parrish, Andy Simmonett
                          and Daniel G. A. Smith
                              RHF Reference
                       16 Threads,  45776 MiB Core
         ---------------------------------------------------------

  ==> Geometry <==

    Molecular point group: c1
    Full point group: C1

    Geometry (in Angstrom), charge = 1, multiplicity = 1:

       Center              X                  Y                   Z               Mass       
    ------------   -----------------  -----------------  -----------------  -----------------
         C            0.680066520158    -1.215933861162     2.364620746509    12.000000000000
         C           -0.680504479842    -1.215549861162     2.362592746509    12.000000000000
         N           -1.085635479842     0.102774138838     2.361594746509    14.003074004430
         C            0.000107520158     0.884175138838     2.358318746509    12.000000000000
         C           -2.477365479842     0.570753138838     2.312188746509    12.000000000000
         N            1.085221520158     0.102774138838     2.361594746509    14.003074004430
         H            1.385145520158    -2.033372861162     2.372448746509     1.007825032230
         H           -1.385302479842    -2.033218861162     2.362782746509     1.007825032230
         H           -0.000009479842     1.965264138838     2.356571746509     1.007825032230
         C            2.478116520158     0.567872138838     2.378486746509    12.000000000000
         H            2.490591520158     1.658125138838     2.351141746509     1.007825032230
         H            2.967027520158     0.220696138838     3.291932746509     1.007825032230
         H            3.001427520158     0.176400138838     1.503003746509     1.007825032230
         H           -2.857359479842     0.490794138838     1.290117746509     1.007825032230
         H           -3.082679479842    -0.042310861162     2.982272746509     1.007825032230
         H           -2.518128479842     1.610701138838     2.639172746509     1.007825032230
         C            1.225311895423     0.707533799757    -0.337283626208    12.000000000000
         C            1.225323856051    -0.707543383733    -0.349614435778    12.000000000000
         C           -0.000006153932     1.414961424928    -0.350148059299    12.000000000000
         C            2.456448753949     1.418323398016    -0.334396768808    12.000000000000
         C            0.000010827279    -1.414980987797    -0.339948501974    12.000000000000
         C           -1.225300948908     0.707540884822    -0.335032105885    12.000000000000
         C            2.456437755320    -1.418327793043    -0.351859592635    12.000000000000
         C           -0.000001332978     2.836796542119    -0.352551609433    12.000000000000
         C            3.681826697470     0.709313466839    -0.351510802837    12.000000000000
         C            2.455120048865     2.834219172327    -0.351613359798    12.000000000000
         C            3.681821105219    -0.709338328591    -0.335438318819    12.000000000000
         C           -1.225313598688    -0.707532004706    -0.348541674351    12.000000000000
         C            1.226699581202     3.543464994832    -0.335254286888    12.000000000000
         C            0.000004784858    -2.836786628398    -0.335100334353    12.000000000000
         C           -2.456436032848     1.418312429123    -0.334996710039    12.000000000000
         C            2.455123417779    -2.834234517751    -0.335590227186    12.000000000000
         C           -1.226714364589     3.543464574588    -0.335150953669    12.000000000000
         C            4.914517295202     1.427168383327    -0.345030119807    12.000000000000
         C            3.693150191476     3.542790803383    -0.344980320171    12.000000000000
         C           -2.456437600068    -1.418317770001    -0.351884630760    12.000000000000
         C            1.226704841943    -3.543478731069    -0.351224417638    12.000000000000
         C           -2.455125398508     2.834212173472    -0.351606983451    12.000000000000
         C            4.914524380782    -1.427191399106    -0.342057377073    12.000000000000
         C            1.221424613699     4.970129576098    -0.341918942813    12.000000000000
         C            4.893008229321     2.825183510864    -0.343813451449    12.000000000000
         C           -1.226697008489    -3.543475486239    -0.350957213228    12.000000000000
         C           -3.681818976526     0.709320477570    -0.351498122357    12.000000000000
         C            3.693147101150    -3.542805830553    -0.341939486512    12.000000000000
         C           -1.221432251994     4.970123808701    -0.341735447441    12.000000000000
         C            6.134770972926     0.680543457943    -0.344260345258    12.000000000000
         C            3.656788880610     4.972948754405    -0.344071682389    12.000000000000
         C           -2.455126907733    -2.834219582223    -0.335834584984    12.000000000000
         C           -3.681819179061    -0.709330192631    -0.335320697240    12.000000000000
         C            4.893012617914    -2.825204594794    -0.343202299553    12.000000000000
         C           -0.000001073113     5.650442876870    -0.342966756148    12.000000000000
         C            6.134775112332    -0.680559343237    -0.342995024742    12.000000000000
         C            2.478131482856     5.653572262169    -0.342782902739    12.000000000000
         C            1.221422404738    -4.970131544095    -0.344718439836    12.000000000000
         C           -3.693162383965     3.542792465030    -0.344814812712    12.000000000000
         C           -1.221428520945    -4.970122792758    -0.344831201669    12.000000000000
         C           -4.914521807942     1.427170957833    -0.344953174800    12.000000000000
         C            3.656787019679    -4.972959715401    -0.342621181855    12.000000000000
         C           -2.478138530106     5.653569933366    -0.342498377730    12.000000000000
         C           -3.693141738564    -3.542794708141    -0.342055612668    12.000000000000
         C           -4.914512483053    -1.427185489190    -0.342022679899    12.000000000000
         C           -0.000006008926    -5.650442776176    -0.343362260269    12.000000000000
         C           -4.893020484101     2.825184109757    -0.343823533309    12.000000000000
         C            2.478125993298    -5.653578033051    -0.343711782647    12.000000000000
         C           -3.656798710258     4.972951692879    -0.343895002014    12.000000000000
         C           -4.892999478856    -2.825196256222    -0.343356335251    12.000000000000
         C           -2.478128498083    -5.653570659169    -0.343986970294    12.000000000000
         C           -6.134770503331     0.680544277094    -0.344285896960    12.000000000000
         C           -3.656788833189    -4.972948512133    -0.342835469671    12.000000000000
         C           -6.134765042913    -0.680558404644    -0.343015500537    12.000000000000
         H            5.835288495816     3.369271405792    -0.339454125786     1.007825032230
         H            7.073859172747     1.228212759737    -0.343798701864     1.007825032230
         H            4.600663264174     5.512376313291    -0.343566481637     1.007825032230
         H            5.835283387305    -3.369310545891    -0.347656766868     1.007825032230
         H           -0.000012151306     6.738526184974    -0.347316001155     1.007825032230
         H            7.073861171831    -1.228231431906    -0.343503762836     1.007825032230
         H            2.473313731799     6.740679802232    -0.343249623669     1.007825032230
         H            4.600668491381    -5.512380618338    -0.343031179023     1.007825032230
         H           -2.473318680537     6.740677230444    -0.342948277044     1.007825032230
         H           -0.000010268228    -6.738532665614    -0.338832575284     1.007825032230
         H           -5.835301914343     3.369266461134    -0.339318103638     1.007825032230
         H            2.473307923831    -6.740689863591    -0.343141452222     1.007825032230
         H           -4.600674841208     5.512373537441    -0.343401153313     1.007825032230
         H           -5.835279506835    -3.369293452942    -0.347936072749     1.007825032230
         H           -2.473300347440    -6.740683567302    -0.343590768766     1.007825032230
         H           -7.073857766768     1.228215983678    -0.343882693345     1.007825032230
         H           -4.600673786085    -5.512367158949    -0.343203487046     1.007825032230
         H           -7.073856934409    -1.228225121139    -0.343598619303     1.007825032230

  Running in c1 symmetry.

  Rotational constants: A =      0.00203  B =      0.00199  C =      0.00109 [cm^-1]
  Rotational constants: A =     60.93392  B =     59.69837  C =     32.56832 [MHz]
  Nuclear repulsion = 8620.915187934624555

  Charge       = 1
  Multiplicity = 1
  Electrons    = 394
  Nalpha       = 197
  Nbeta        = 197

  ==> Algorithm <==

  SCF Algorithm Type is DF.
  DIIS enabled.
  MOM disabled.
  Fractional occupation disabled.
  Guess Type is SAD.
  Energy threshold   = 1.00e-08
  Density threshold  = 1.00e-08
  Integral threshold = 1.00e-12

  ==> Primary Basis <==

  Basis Set: JUN-CC-PVDZ
    Blend: JUN-CC-PVDZ
    Number of shells: 569
    Number of basis functions: 1233
    Number of Cartesian functions: 1294
    Spherical Harmonics?: true
    Max angular momentum: 2

   => Loading Basis Set <=

    Name: (JUN-CC-PVDZ AUX)
    Role: JKFIT
    Keyword: DF_BASIS_SCF
    atoms 1-2, 4-5, 10, 17-70 entry C          line   146 file /opt/software/pc2/EB-SW/software/PSI4/1.9-foss-2022a/share/psi4/basis/jun-cc-pvdz-jkfit.gbs 
    atoms 3, 6                entry N          line   202 file /opt/software/pc2/EB-SW/software/PSI4/1.9-foss-2022a/share/psi4/basis/jun-cc-pvdz-jkfit.gbs 
    atoms 7-9, 11-16, 71-88   entry H          line    70 file /opt/software/pc2/EB-SW/software/PSI4/1.9-foss-2022a/share/psi4/basis/jun-cc-pvdz-jkfit.gbs 

  ==> Integral Setup <==

  ==> DiskDFJK: Density-Fitted J/K Matrices <==

    J tasked:                  Yes
    K tasked:                  Yes
    wK tasked:                  No
    OpenMP threads:             16
    Integrals threads:          16
    Memory [MiB]:            34332
    Algorithm:                Core
    Integral Cache:           SAVE
    Schwarz Cutoff:          1E-12
    Fitting Condition:       1E-10

   => Auxiliary Basis Set <=

  Basis Set: (JUN-CC-PVDZ AUX)
    Blend: JUN-CC-PVDZ-JKFIT
    Number of shells: 1890
    Number of basis functions: 5440
    Number of Cartesian functions: 6226
    Spherical Harmonics?: true
    Max angular momentum: 3

  Minimum eigenvalue in the overlap matrix is 3.1145919068E-10.
  Reciprocal condition number of the overlap matrix is 1.1341092986E-11.
    Using canonical orthogonalization.
  Overall, 14 of 1233 possible MOs eliminated.


  ==> Pre-Iterations <==

  SCF Guess: Superposition of Atomic Densities via on-the-fly atomic UHF (no occupation information).

   -------------------------
    Irrep   Nso     Nmo    
   -------------------------
     A       1233    1219 
   -------------------------
    Total    1233    1219
   -------------------------

  ==> Iterations <==

                           Total Energy        Delta E     RMS |[F,P]|

   @DF-RHF iter SAD: -2367.32145886798889   -2.36732e+03   0.00000e+00 
   @DF-RHF iter   1: -2358.10053958650360    9.22092e+00   9.46735e-04 ADIIS/DIIS
   @DF-RHF iter   2: -2358.99290305487284   -8.92363e-01   3.24917e-04 ADIIS/DIIS
   @DF-RHF iter   3: -2359.08304502083547   -9.01420e-02   1.31020e-04 ADIIS/DIIS
   @DF-RHF iter   4: -2359.09741830991697   -1.43733e-02   5.85721e-05 DIIS
   @DF-RHF iter   5: -2359.10052902001416   -3.11071e-03   1.65061e-05 DIIS
   @DF-RHF iter   6: -2359.10084930929725   -3.20289e-04   5.83126e-06 DIIS
   @DF-RHF iter   7: -2359.10094363203052   -9.43227e-05   2.62603e-06 DIIS
   @DF-RHF iter   8: -2359.10097115899907   -2.75270e-05   1.28609e-06 DIIS
   @DF-RHF iter   9: -2359.10097883983417   -7.68084e-06   4.12680e-07 DIIS
   @DF-RHF iter  10: -2359.10097932581812   -4.85984e-07   2.07088e-07 DIIS
   @DF-RHF iter  11: -2359.10097939400566   -6.81875e-08   8.02073e-08 DIIS
   @DF-RHF iter  12: -2359.10097941292224   -1.89166e-08   4.49245e-08 DIIS
   @DF-RHF iter  13: -2359.10097942359516   -1.06729e-08   2.56625e-08 DIIS
   @DF-RHF iter  14: -2359.10097942803259   -4.43742e-09   1.86856e-08 DIIS
   @DF-RHF iter  15: -2359.10097943061783   -2.58524e-09   1.10931e-08 DIIS
   @DF-RHF iter  16: -2359.10097943166420   -1.04637e-09   6.35534e-09 DIIS
  Energy and wave function converged.


  ==> Post-Iterations <==

    Orbital Energies [Eh]
    ---------------------

    Doubly Occupied:                                                      

       1A    -15.775688     2A    -15.775218     3A    -11.476430  
       4A    -11.403524     5A    -11.401993     6A    -11.391173  
       7A    -11.384218     8A    -11.356246     9A    -11.355752  
      10A    -11.355306    11A    -11.354319    12A    -11.353907  
      13A    -11.353595    14A    -11.353252    15A    -11.352935  
      16A    -11.352837    17A    -11.352281    18A    -11.351653  
      19A    -11.350242    20A    -11.349590    21A    -11.349485  
      22A    -11.349257    23A    -11.349133    24A    -11.348985  
      25A    -11.348864    26A    -11.348446    27A    -11.348249  
      28A    -11.348148    29A    -11.348113    30A    -11.347899  
      31A    -11.347549    32A    -11.347254    33A    -11.347099  
      34A    -11.347081    35A    -11.346604    36A    -11.346593  
      37A    -11.346500    38A    -11.346412    39A    -11.346320  
      40A    -11.345695    41A    -11.345579    42A    -11.344893  
      43A    -11.344800    44A    -11.339024    45A    -11.338885  
      46A    -11.338438    47A    -11.338424    48A    -11.338146  
      49A    -11.337948    50A    -11.336179    51A    -11.335940  
      52A    -11.335296    53A    -11.334937    54A    -11.334723  
      55A    -11.334500    56A    -11.334429    57A    -11.334387  
      58A    -11.333727    59A    -11.333459    60A    -11.332815  
      61A    -11.332799    62A     -1.524423    63A     -1.380326  
      64A     -1.341117    65A     -1.314447    66A     -1.311759  
      67A     -1.281143    68A     -1.279861    69A     -1.273761  
      70A     -1.246047    71A     -1.238773    72A     -1.228735  
      73A     -1.227978    74A     -1.201151    75A     -1.200905  
      76A     -1.186926    77A     -1.175002    78A     -1.173544  
      79A     -1.169794    80A     -1.153066    81A     -1.153003  
      82A     -1.135951    83A     -1.129594    84A     -1.116854  
      85A     -1.115311    86A     -1.112975    87A     -1.105049  
      88A     -1.099129    89A     -1.079356    90A     -1.077661  
      91A     -1.065099    92A     -1.049421    93A     -1.049327  
      94A     -0.984930    95A     -0.984016    96A     -0.980171  
      97A     -0.977571    98A     -0.977112    99A     -0.972189  
     100A     -0.971740   101A     -0.967885   102A     -0.949986  
     103A     -0.945733   104A     -0.922377   105A     -0.907645  
     106A     -0.906760   107A     -0.902608   108A     -0.901685  
     109A     -0.882328   110A     -0.881265   111A     -0.865709  
     112A     -0.837640   113A     -0.835493   114A     -0.823648  
     115A     -0.823132   116A     -0.819518   117A     -0.819414  
     118A     -0.817057   119A     -0.805276   120A     -0.787370  
     121A     -0.786724   122A     -0.782590   123A     -0.782042  
     124A     -0.766878   125A     -0.762244   126A     -0.759166  
     127A     -0.747355   128A     -0.741732   129A     -0.741399  
     130A     -0.737191   131A     -0.736356   132A     -0.735697  
     133A     -0.733574   134A     -0.726738   135A     -0.726223  
     136A     -0.718324   137A     -0.716759   138A     -0.716424  
     139A     -0.696152   140A     -0.691148   141A     -0.688247  
     142A     -0.687555   143A     -0.686309   144A     -0.683004  
     145A     -0.681971   146A     -0.681857   147A     -0.681655  
     148A     -0.678825   149A     -0.676722   150A     -0.669460  
     151A     -0.663555   152A     -0.655513   153A     -0.655109  
     154A     -0.652919   155A     -0.652504   156A     -0.649851  
     157A     -0.647458   158A     -0.640684   159A     -0.640382  
     160A     -0.627344   161A     -0.624736   162A     -0.624646  
     163A     -0.618525   164A     -0.616755   165A     -0.612070  
     166A     -0.610379   167A     -0.609831   168A     -0.586797  
     169A     -0.584963   170A     -0.579609   171A     -0.576696  
     172A     -0.574029   173A     -0.570218   174A     -0.569621  
     175A     -0.569480   176A     -0.557159   177A     -0.548425  
     178A     -0.541502   179A     -0.541124   180A     -0.526088  
     181A     -0.524658   182A     -0.495458   183A     -0.493968  
     184A     -0.486267   185A     -0.478651   186A     -0.460639  
     187A     -0.459821   188A     -0.436305   189A     -0.432975  
     190A     -0.425015   191A     -0.413567   192A     -0.398507  
     193A     -0.381512   194A     -0.378724   195A     -0.377033  
     196A     -0.311979   197A     -0.311743  

    Virtual:                                                              

     198A     -0.078551   199A     -0.077174   200A     -0.040455  
     201A     -0.028773   202A     -0.028515   203A     -0.025604  
     204A     -0.021950   205A     -0.016792   206A     -0.013376  
     207A     -0.012377   208A     -0.011978   209A     -0.008423  
     210A     -0.005925   211A     -0.005023   212A     -0.004043  
     213A     -0.002663   214A      0.001887   215A      0.003892  
     216A      0.004012   217A      0.005318   218A      0.007698  
     219A      0.008542   220A      0.013265   221A      0.013938  
     222A      0.013963   223A      0.018541   224A      0.020457  
     225A      0.026745   226A      0.028363   227A      0.029367  
     228A      0.029751   229A      0.029968   230A      0.032789  
     231A      0.035850   232A      0.037205   233A      0.039244  
     234A      0.040492   235A      0.043276   236A      0.045528  
     237A      0.049599   238A      0.051147   239A      0.054746  
     240A      0.055584   241A      0.056138   242A      0.058763  
     243A      0.059435   244A      0.059757   245A      0.061562  
     246A      0.064326   247A      0.070107   248A      0.071571  
     249A      0.071716   250A      0.075013   251A      0.075327  
     252A      0.077435   253A      0.079293   254A      0.080414  
     255A      0.083974   256A      0.084083   257A      0.088798  
     258A      0.090640   259A      0.094415   260A      0.095224  
     261A      0.096206   262A      0.096403   263A      0.097585  
     264A      0.100287   265A      0.101696   266A      0.106988  
     267A      0.108941   268A      0.109387   269A      0.111064  
     270A      0.112507   271A      0.113464   272A      0.114317  
     273A      0.115099   274A      0.115978   275A      0.120920  
     276A      0.121627   277A      0.121799   278A      0.127107  
     279A      0.130775   280A      0.135692   281A      0.137647  
     282A      0.138004   283A      0.141608   284A      0.143773  
     285A      0.144473   286A      0.145136   287A      0.145842  
     288A      0.146464   289A      0.146762   290A      0.147149  
     291A      0.148893   292A      0.150490   293A      0.150993  
     294A      0.153865   295A      0.154382   296A      0.155010  
     297A      0.157408   298A      0.160017   299A      0.160907  
     300A      0.161244   301A      0.163727   302A      0.164901  
     303A      0.166057   304A      0.166380   305A      0.170509  
     306A      0.171291   307A      0.171651   308A      0.174205  
     309A      0.177249   310A      0.179311   311A      0.181837  
     312A      0.182240   313A      0.183236   314A      0.183822  
     315A      0.185587   316A      0.185808   317A      0.188161  
     318A      0.189902   319A      0.190227   320A      0.190403  
     321A      0.192749   322A      0.196381   323A      0.197352  
     324A      0.198376   325A      0.201023   326A      0.201448  
     327A      0.202397   328A      0.202665   329A      0.206114  
     330A      0.207362   331A      0.211641   332A      0.212865  
     333A      0.214575   334A      0.215115   335A      0.220874  
     336A      0.222221   337A      0.223514   338A      0.224721  
     339A      0.226899   340A      0.228202   341A      0.230057  
     342A      0.230655   343A      0.231554   344A      0.232286  
     345A      0.234354   346A      0.235094   347A      0.235840  
     348A      0.237172   349A      0.237365   350A      0.239672  
     351A      0.240380   352A      0.241953   353A      0.242431  
     354A      0.243819   355A      0.244917   356A      0.246611  
     357A      0.247015   358A      0.249113   359A      0.250770  
     360A      0.253477   361A      0.254010   362A      0.255761  
     363A      0.256936   364A      0.258263   365A      0.258901  
     366A      0.263915   367A      0.265201   368A      0.265861  
     369A      0.268015   370A      0.268784   371A      0.270897  
     372A      0.271535   373A      0.274903   374A      0.277649  
     375A      0.278302   376A      0.279156   377A      0.280728  
     378A      0.282616   379A      0.283200   380A      0.283987  
     381A      0.285098   382A      0.288085   383A      0.288967  
     384A      0.290347   385A      0.290853   386A      0.291281  
     387A      0.292359   388A      0.293167   389A      0.296028  
     390A      0.297204   391A      0.299130   392A      0.301402  
     393A      0.303279   394A      0.306431   395A      0.308698  
     396A      0.310323   397A      0.310916   398A      0.313920  
     399A      0.314804   400A      0.316405   401A      0.317774  
     402A      0.319488   403A      0.319728   404A      0.321962  
     405A      0.323264   406A      0.323557   407A      0.324557  
     408A      0.325720   409A      0.326741   410A      0.328226  
     411A      0.330080   412A      0.330356   413A      0.330931  
     414A      0.331824   415A      0.332412   416A      0.334009  
     417A      0.334816   418A      0.335915   419A      0.336419  
     420A      0.339197   421A      0.339351   422A      0.340923  
     423A      0.343450   424A      0.344435   425A      0.346647  
     426A      0.348750   427A      0.353300   428A      0.356996  
     429A      0.358699   430A      0.359295   431A      0.360060  
     432A      0.360437   433A      0.363099   434A      0.364635  
     435A      0.364755   436A      0.370241   437A      0.370256  
     438A      0.373689   439A      0.375963   440A      0.377004  
     441A      0.377889   442A      0.378466   443A      0.379340  
     444A      0.379759   445A      0.380648   446A      0.381326  
     447A      0.382424   448A      0.387550   449A      0.388573  
     450A      0.389375   451A      0.389660   452A      0.394881  
     453A      0.396219   454A      0.399110   455A      0.402512  
     456A      0.403543   457A      0.403738   458A      0.406496  
     459A      0.407986   460A      0.408671   461A      0.411369  
     462A      0.413742   463A      0.414299   464A      0.415531  
     465A      0.415775   466A      0.416637   467A      0.418404  
     468A      0.420554   469A      0.420958   470A      0.423752  
     471A      0.425072   472A      0.427155   473A      0.427574  
     474A      0.429258   475A      0.433181   476A      0.434927  
     477A      0.435652   478A      0.440261   479A      0.445245  
     480A      0.447035   481A      0.449933   482A      0.450605  
     483A      0.452880   484A      0.455059   485A      0.457687  
     486A      0.461725   487A      0.462425   488A      0.464101  
     489A      0.464928   490A      0.466591   491A      0.468061  
     492A      0.468397   493A      0.469842   494A      0.472769  
     495A      0.474752   496A      0.476856   497A      0.477306  
     498A      0.479420   499A      0.480630   500A      0.487469  
     501A      0.488819   502A      0.490421   503A      0.493369  
     504A      0.500430   505A      0.502129   506A      0.504915  
     507A      0.509607   508A      0.513843   509A      0.516144  
     510A      0.517372   511A      0.518407   512A      0.521669  
     513A      0.527282   514A      0.533611   515A      0.536866  
     516A      0.542513   517A      0.544193   518A      0.544315  
     519A      0.547087   520A      0.552418   521A      0.566126  
     522A      0.569992   523A      0.572081   524A      0.581672  
     525A      0.584164   526A      0.585118   527A      0.588227  
     528A      0.589662   529A      0.591718   530A      0.593871  
     531A      0.603945   532A      0.616708   533A      0.630425  
     534A      0.630637   535A      0.656279   536A      0.657585  
     537A      0.659048   538A      0.659748   539A      0.660052  
     540A      0.660761   541A      0.670883   542A      0.671943  
     543A      0.680391   544A      0.691041   545A      0.703830  
     546A      0.711989   547A      0.715187   548A      0.717536  
     549A      0.728690   550A      0.733030   551A      0.735226  
     552A      0.742255   553A      0.744056   554A      0.750174  
     555A      0.751171   556A      0.760190   557A      0.768238  
     558A      0.768972   559A      0.772563   560A      0.777623  
     561A      0.778918   562A      0.780127   563A      0.788386  
     564A      0.789511   565A      0.792075   566A      0.793498  
     567A      0.794041   568A      0.797259   569A      0.799340  
     570A      0.802039   571A      0.803808   572A      0.803969  
     573A      0.808770   574A      0.810721   575A      0.813611  
     576A      0.814734   577A      0.815675   578A      0.816511  
     579A      0.818876   580A      0.824070   581A      0.827903  
     582A      0.832091   583A      0.832637   584A      0.832946  
     585A      0.835655   586A      0.836495   587A      0.837952  
     588A      0.838791   589A      0.841473   590A      0.843179  
     591A      0.845751   592A      0.848045   593A      0.850921  
     594A      0.854297   595A      0.856109   596A      0.856825  
     597A      0.860443   598A      0.861027   599A      0.864230  
     600A      0.867391   601A      0.869439   602A      0.872751  
     603A      0.875524   604A      0.878580   605A      0.879267  
     606A      0.882484   607A      0.882934   608A      0.884110  
     609A      0.885107   610A      0.888446   611A      0.889738  
     612A      0.893425   613A      0.894744   614A      0.898944  
     615A      0.899706   616A      0.903841   617A      0.904675  
     618A      0.906187   619A      0.909347   620A      0.910395  
     621A      0.915210   622A      0.921097   623A      0.921895  
     624A      0.924577   625A      0.926035   626A      0.928629  
     627A      0.929559   628A      0.933950   629A      0.935288  
     630A      0.937631   631A      0.937884   632A      0.942275  
     633A      0.944167   634A      0.945908   635A      0.946526  
     636A      0.950129   637A      0.950611   638A      0.952559  
     639A      0.956035   640A      0.958320   641A      0.960083  
     642A      0.961467   643A      0.962194   644A      0.964437  
     645A      0.965717   646A      0.967629   647A      0.968957  
     648A      0.969644   649A      0.973310   650A      0.974741  
     651A      0.976352   652A      0.979000   653A      0.979868  
     654A      0.980910   655A      0.983916   656A      0.984262  
     657A      0.990799   658A      0.991887   659A      0.992670  
     660A      0.993794   661A      0.997485   662A      0.998384  
     663A      1.002377   664A      1.003922   665A      1.007511  
     666A      1.009031   667A      1.009635   668A      1.011463  
     669A      1.014529   670A      1.016984   671A      1.020848  
     672A      1.022458   673A      1.022729   674A      1.024518  
     675A      1.025721   676A      1.027706   677A      1.029161  
     678A      1.029697   679A      1.032788   680A      1.035730  
     681A      1.038972   682A      1.042767   683A      1.044660  
     684A      1.045207   685A      1.049100   686A      1.054642  
     687A      1.055330   688A      1.059243   689A      1.062755  
     690A      1.065268   691A      1.068926   692A      1.070382  
     693A      1.071504   694A      1.076201   695A      1.078419  
     696A      1.082480   697A      1.084165   698A      1.088512  
     699A      1.089942   700A      1.097509   701A      1.102691  
     702A      1.108156   703A      1.112583   704A      1.114098  
     705A      1.114683   706A      1.116907   707A      1.124080  
     708A      1.127225   709A      1.130779   710A      1.134094  
     711A      1.135784   712A      1.140206   713A      1.140897  
     714A      1.142499   715A      1.146723   716A      1.154304  
     717A      1.156779   718A      1.157612   719A      1.160375  
     720A      1.161510   721A      1.164750   722A      1.166203  
     723A      1.168670   724A      1.171808   725A      1.174846  
     726A      1.176240   727A      1.177401   728A      1.179525  
     729A      1.181531   730A      1.183970   731A      1.187624  
     732A      1.190842   733A      1.192592   734A      1.201429  
     735A      1.202061   736A      1.203820   737A      1.204907  
     738A      1.211258   739A      1.212441   740A      1.214471  
     741A      1.218329   742A      1.221404   743A      1.226857  
     744A      1.229243   745A      1.233504   746A      1.237525  
     747A      1.240579   748A      1.242819   749A      1.245320  
     750A      1.247129   751A      1.251027   752A      1.251940  
     753A      1.255733   754A      1.256713   755A      1.257358  
     756A      1.261705   757A      1.263249   758A      1.266446  
     759A      1.272745   760A      1.274888   761A      1.278847  
     762A      1.280607   763A      1.283781   764A      1.289250  
     765A      1.293348   766A      1.294547   767A      1.301032  
     768A      1.304537   769A      1.305099   770A      1.312984  
     771A      1.314112   772A      1.319121   773A      1.322963  
     774A      1.324263   775A      1.325476   776A      1.329719  
     777A      1.331984   778A      1.333563   779A      1.337847  
     780A      1.340548   781A      1.344195   782A      1.349092  
     783A      1.350165   784A      1.354912   785A      1.356954  
     786A      1.360885   787A      1.362108   788A      1.364210  
     789A      1.365202   790A      1.368186   791A      1.369687  
     792A      1.371517   793A      1.377280   794A      1.380290  
     795A      1.387184   796A      1.387958   797A      1.394632  
     798A      1.397400   799A      1.409720   800A      1.411207  
     801A      1.421688   802A      1.428803   803A      1.430038  
     804A      1.432747   805A      1.443299   806A      1.444810  
     807A      1.450795   808A      1.457063   809A      1.467906  
     810A      1.474758   811A      1.478991   812A      1.497354  
     813A      1.501248   814A      1.506117   815A      1.512001  
     816A      1.515854   817A      1.518460   818A      1.525072  
     819A      1.535884   820A      1.538646   821A      1.543498  
     822A      1.547202   823A      1.550608   824A      1.552038  
     825A      1.553576   826A      1.555944   827A      1.557875  
     828A      1.558289   829A      1.564421   830A      1.571583  
     831A      1.572446   832A      1.575168   833A      1.580839  
     834A      1.582604   835A      1.585730   836A      1.588631  
     837A      1.590410   838A      1.592344   839A      1.597536  
     840A      1.598377   841A      1.600619   842A      1.604099  
     843A      1.605186   844A      1.606839   845A      1.609296  
     846A      1.612602   847A      1.615342   848A      1.620176  
     849A      1.624935   850A      1.633157   851A      1.637363  
     852A      1.642989   853A      1.649088   854A      1.651536  
     855A      1.658201   856A      1.666419   857A      1.672005  
     858A      1.675496   859A      1.678556   860A      1.680030  
     861A      1.681680   862A      1.685723   863A      1.687783  
     864A      1.691136   865A      1.697565   866A      1.704324  
     867A      1.707086   868A      1.712627   869A      1.723612  
     870A      1.725996   871A      1.731047   872A      1.735508  
     873A      1.735939   874A      1.738403   875A      1.744626  
     876A      1.747055   877A      1.749824   878A      1.757960  
     879A      1.761015   880A      1.762130   881A      1.767188  
     882A      1.771241   883A      1.776396   884A      1.780371  
     885A      1.784788   886A      1.786110   887A      1.788821  
     888A      1.790311   889A      1.793546   890A      1.798730  
     891A      1.800142   892A      1.805636   893A      1.810126  
     894A      1.813692   895A      1.815449   896A      1.817201  
     897A      1.822113   898A      1.822716   899A      1.825262  
     900A      1.828316   901A      1.829735   902A      1.832004  
     903A      1.832842   904A      1.836136   905A      1.840650  
     906A      1.845998   907A      1.847838   908A      1.851031  
     909A      1.856788   910A      1.858402   911A      1.861698  
     912A      1.865218   913A      1.866508   914A      1.868799  
     915A      1.871511   916A      1.873364   917A      1.874289  
     918A      1.876493   919A      1.880593   920A      1.891387  
     921A      1.894913   922A      1.898108   923A      1.903707  
     924A      1.905923   925A      1.909322   926A      1.913493  
     927A      1.918637   928A      1.921212   929A      1.922890  
     930A      1.927055   931A      1.929182   932A      1.931215  
     933A      1.932742   934A      1.937980   935A      1.940079  
     936A      1.945086   937A      1.945767   938A      1.947928  
     939A      1.951904   940A      1.955502   941A      1.958615  
     942A      1.960662   943A      1.964428   944A      1.966447  
     945A      1.969067   946A      1.972369   947A      1.973108  
     948A      1.974230   949A      1.979723   950A      1.981791  
     951A      1.983767   952A      1.985618   953A      1.990396  
     954A      1.995203   955A      2.000579   956A      2.003789  
     957A      2.003976   958A      2.008172   959A      2.010697  
     960A      2.013064   961A      2.014497   962A      2.015096  
     963A      2.017833   964A      2.019568   965A      2.022355  
     966A      2.022504   967A      2.024328   968A      2.027699  
     969A      2.028622   970A      2.030717   971A      2.031614  
     972A      2.035855   973A      2.037011   974A      2.039958  
     975A      2.041049   976A      2.043073   977A      2.043404  
     978A      2.047509   979A      2.049164   980A      2.050713  
     981A      2.051661   982A      2.055898   983A      2.056927  
     984A      2.062388   985A      2.065559   986A      2.066878  
     987A      2.068758   988A      2.076614   989A      2.078271  
     990A      2.081587   991A      2.086868   992A      2.088887  
     993A      2.089962   994A      2.095308   995A      2.096522  
     996A      2.102459   997A      2.104107   998A      2.106859  
     999A      2.110474  1000A      2.112325  1001A      2.115633  
    1002A      2.117460  1003A      2.122698  1004A      2.125097  
    1005A      2.128581  1006A      2.130660  1007A      2.131566  
    1008A      2.136003  1009A      2.137944  1010A      2.140704  
    1011A      2.150107  1012A      2.153906  1013A      2.162320  
    1014A      2.162924  1015A      2.164998  1016A      2.166808  
    1017A      2.168313  1018A      2.173198  1019A      2.173457  
    1020A      2.174878  1021A      2.176824  1022A      2.182509  
    1023A      2.183484  1024A      2.186075  1025A      2.187671  
    1026A      2.193202  1027A      2.196307  1028A      2.199532  
    1029A      2.200195  1030A      2.210812  1031A      2.218365  
    1032A      2.223098  1033A      2.226129  1034A      2.231887  
    1035A      2.239648  1036A      2.247093  1037A      2.255225  
    1038A      2.257233  1039A      2.259636  1040A      2.263684  
    1041A      2.265905  1042A      2.269478  1043A      2.272472  
    1044A      2.274683  1045A      2.275300  1046A      2.280787  
    1047A      2.288168  1048A      2.292411  1049A      2.301940  
    1050A      2.311940  1051A      2.316762  1052A      2.323858  
    1053A      2.324440  1054A      2.335618  1055A      2.335875  
    1056A      2.339476  1057A      2.344022  1058A      2.345183  
    1059A      2.351576  1060A      2.356011  1061A      2.374769  
    1062A      2.376741  1063A      2.388758  1064A      2.394921  
    1065A      2.399235  1066A      2.405295  1067A      2.408279  
    1068A      2.413137  1069A      2.425111  1070A      2.427286  
    1071A      2.434653  1072A      2.441076  1073A      2.445790  
    1074A      2.457355  1075A      2.461971  1076A      2.468032  
    1077A      2.469008  1078A      2.472085  1079A      2.474540  
    1080A      2.474781  1081A      2.475512  1082A      2.480571  
    1083A      2.481487  1084A      2.485175  1085A      2.491122  
    1086A      2.497630  1087A      2.500487  1088A      2.508801  
    1089A      2.510159  1090A      2.514980  1091A      2.517408  
    1092A      2.521381  1093A      2.526880  1094A      2.532508  
    1095A      2.539553  1096A      2.547212  1097A      2.550172  
    1098A      2.553622  1099A      2.560715  1100A      2.563260  
    1101A      2.571049  1102A      2.574201  1103A      2.575888  
    1104A      2.581967  1105A      2.583993  1106A      2.596255  
    1107A      2.599650  1108A      2.607821  1109A      2.614596  
    1110A      2.616783  1111A      2.621926  1112A      2.623930  
    1113A      2.624348  1114A      2.631195  1115A      2.632747  
    1116A      2.633557  1117A      2.636521  1118A      2.643297  
    1119A      2.672833  1120A      2.676006  1121A      2.681883  
    1122A      2.683887  1123A      2.685206  1124A      2.690267  
    1125A      2.715945  1126A      2.717683  1127A      2.729467  
    1128A      2.741779  1129A      2.744724  1130A      2.753947  
    1131A      2.759974  1132A      2.762591  1133A      2.767659  
    1134A      2.770493  1135A      2.775474  1136A      2.784692  
    1137A      2.791446  1138A      2.801580  1139A      2.816024  
    1140A      2.822454  1141A      2.825360  1142A      2.835815  
    1143A      2.839350  1144A      2.840389  1145A      2.847097  
    1146A      2.855365  1147A      2.869653  1148A      2.873443  
    1149A      2.877168  1150A      2.882085  1151A      2.893033  
    1152A      2.904431  1153A      2.914821  1154A      2.936336  
    1155A      2.946621  1156A      2.951595  1157A      2.965500  
    1158A      2.969366  1159A      2.975476  1160A      2.979601  
    1161A      2.991596  1162A      2.998057  1163A      3.021310  
    1164A      3.031648  1165A      3.040642  1166A      3.045014  
    1167A      3.058451  1168A      3.062043  1169A      3.063755  
    1170A      3.065007  1171A      3.066315  1172A      3.069462  
    1173A      3.073005  1174A      3.079945  1175A      3.081331  
    1176A      3.087890  1177A      3.098447  1178A      3.100075  
    1179A      3.108696  1180A      3.109993  1181A      3.130001  
    1182A      3.135641  1183A      3.148745  1184A      3.161888  
    1185A      3.167691  1186A      3.175027  1187A      3.184899  
    1188A      3.202234  1189A      3.215880  1190A      3.241243  
    1191A      3.250855  1192A      3.263495  1193A      3.339710  
    1194A      3.340672  1195A      3.410858  1196A      3.415770  
    1197A      3.477371  1198A      3.504442  1199A      3.540198  
    1200A      3.546724  1201A      3.563876  1202A      3.575995  
    1203A      3.583138  1204A      3.590116  1205A      3.624333  
    1206A      3.671483  1207A      3.676726  1208A      3.736742  
    1209A      3.786392  1210A      3.787614  1211A      3.820728  
    1212A      3.829591  1213A      3.835505  1214A      3.868756  
    1215A      3.921303  1216A      3.922242  1217A      4.059641  
    1218A      4.075108  1219A      4.146791  

    Final Occupation by Irrep:
              A 
    DOCC [   197 ]
    NA   [   197 ]
    NB   [   197 ]

  @DF-RHF Final Energy: -2359.10097943166420

   => Energetics <=

    Nuclear Repulsion Energy =           8620.9151879346245551
    One-Electron Energy =              -20338.6403534438177303
    Two-Electron Energy =                9358.6241860775298846
    Total Energy =                      -2359.1009794316632906

Computation Completed


Properties will be evaluated at   0.000000,   0.000000,   0.000000 [a0]

Properties computed using the SCF density matrix


 Multipole Moments:

 ------------------------------------------------------------------------------------
     Multipole            Electronic (a.u.)      Nuclear  (a.u.)        Total (a.u.)
 ------------------------------------------------------------------------------------

 L = 1.  Multiply by 2.5417464519 to convert [e a0] to [Debye]
 Dipole X            :          0.0055084            0.0006313            0.0061397
 Dipole Y            :         -1.6917909            1.8864948            0.1947039
 Dipole Z            :        -11.4027520           14.0183385            2.6155865
 Magnitude           :                                                    2.6228306

 ------------------------------------------------------------------------------------

*** tstop() called on n2cn0366 at Sat Feb 10 12:11:25 2024
Module time:
	user time   =    6932.06 seconds =     115.53 minutes
	system time =     234.11 seconds =       3.90 minutes
	total time  =        549 seconds =       9.15 minutes
Total time:
	user time   =    6932.06 seconds =     115.53 minutes
	system time =     234.11 seconds =       3.90 minutes
	total time  =        549 seconds =       9.15 minutes

  //>>>>>>>>>>>>>>>>>>>>>>>>>>>>>>>>>>>//
  //            Monomer A HF           //
  //<<<<<<<<<<<<<<<<<<<<<<<<<<<<<<<<<<<//

   => Libint2 <=

    Primary   basis highest AM E, G, H:  5, 4, 3
    Auxiliary basis highest AM E, G, H:  6, 5, 4
    Onebody   basis highest AM E, G, H:  6, 5, 4
    Solid Harmonics ordering:            gaussian

*** tstart() called on n2cn0366
*** at Sat Feb 10 12:11:25 2024

   => Loading Basis Set <=

    Name: JUN-CC-PVDZ
    Role: ORBITAL
    Keyword: BASIS
    atoms 1-2, 4-5, 10, 17-70 entry C          line   164 file /opt/software/pc2/EB-SW/software/PSI4/1.9-foss-2022a/share/psi4/basis/jun-cc-pvdz.gbs 
    atoms 3, 6                entry N          line   198 file /opt/software/pc2/EB-SW/software/PSI4/1.9-foss-2022a/share/psi4/basis/jun-cc-pvdz.gbs 
    atoms 7-9, 11-16, 71-88   entry H          line    36 file /opt/software/pc2/EB-SW/software/PSI4/1.9-foss-2022a/share/psi4/basis/jun-cc-pvdz.gbs 


         ---------------------------------------------------------
                                   SCF
               by Justin Turney, Rob Parrish, Andy Simmonett
                          and Daniel G. A. Smith
                              RHF Reference
                       16 Threads,  45776 MiB Core
         ---------------------------------------------------------

  ==> Geometry <==

    Molecular point group: c1
    Full point group: C1

    Geometry (in Angstrom), charge = 1, multiplicity = 1:

       Center              X                  Y                   Z               Mass       
    ------------   -----------------  -----------------  -----------------  -----------------
         C            0.680066520158    -1.215933861162     2.364620746509    12.000000000000
         C           -0.680504479842    -1.215549861162     2.362592746509    12.000000000000
         N           -1.085635479842     0.102774138838     2.361594746509    14.003074004430
         C            0.000107520158     0.884175138838     2.358318746509    12.000000000000
         C           -2.477365479842     0.570753138838     2.312188746509    12.000000000000
         N            1.085221520158     0.102774138838     2.361594746509    14.003074004430
         H            1.385145520158    -2.033372861162     2.372448746509     1.007825032230
         H           -1.385302479842    -2.033218861162     2.362782746509     1.007825032230
         H           -0.000009479842     1.965264138838     2.356571746509     1.007825032230
         C            2.478116520158     0.567872138838     2.378486746509    12.000000000000
         H            2.490591520158     1.658125138838     2.351141746509     1.007825032230
         H            2.967027520158     0.220696138838     3.291932746509     1.007825032230
         H            3.001427520158     0.176400138838     1.503003746509     1.007825032230
         H           -2.857359479842     0.490794138838     1.290117746509     1.007825032230
         H           -3.082679479842    -0.042310861162     2.982272746509     1.007825032230
         H           -2.518128479842     1.610701138838     2.639172746509     1.007825032230
      Gh(C)           1.225311895423     0.707533799757    -0.337283626208    12.000000000000
      Gh(C)           1.225323856051    -0.707543383733    -0.349614435778    12.000000000000
      Gh(C)          -0.000006153932     1.414961424928    -0.350148059299    12.000000000000
      Gh(C)           2.456448753949     1.418323398016    -0.334396768808    12.000000000000
      Gh(C)           0.000010827279    -1.414980987797    -0.339948501974    12.000000000000
      Gh(C)          -1.225300948908     0.707540884822    -0.335032105885    12.000000000000
      Gh(C)           2.456437755320    -1.418327793043    -0.351859592635    12.000000000000
      Gh(C)          -0.000001332978     2.836796542119    -0.352551609433    12.000000000000
      Gh(C)           3.681826697470     0.709313466839    -0.351510802837    12.000000000000
      Gh(C)           2.455120048865     2.834219172327    -0.351613359798    12.000000000000
      Gh(C)           3.681821105219    -0.709338328591    -0.335438318819    12.000000000000
      Gh(C)          -1.225313598688    -0.707532004706    -0.348541674351    12.000000000000
      Gh(C)           1.226699581202     3.543464994832    -0.335254286888    12.000000000000
      Gh(C)           0.000004784858    -2.836786628398    -0.335100334353    12.000000000000
      Gh(C)          -2.456436032848     1.418312429123    -0.334996710039    12.000000000000
      Gh(C)           2.455123417779    -2.834234517751    -0.335590227186    12.000000000000
      Gh(C)          -1.226714364589     3.543464574588    -0.335150953669    12.000000000000
      Gh(C)           4.914517295202     1.427168383327    -0.345030119807    12.000000000000
      Gh(C)           3.693150191476     3.542790803383    -0.344980320171    12.000000000000
      Gh(C)          -2.456437600068    -1.418317770001    -0.351884630760    12.000000000000
      Gh(C)           1.226704841943    -3.543478731069    -0.351224417638    12.000000000000
      Gh(C)          -2.455125398508     2.834212173472    -0.351606983451    12.000000000000
      Gh(C)           4.914524380782    -1.427191399106    -0.342057377073    12.000000000000
      Gh(C)           1.221424613699     4.970129576098    -0.341918942813    12.000000000000
      Gh(C)           4.893008229321     2.825183510864    -0.343813451449    12.000000000000
      Gh(C)          -1.226697008489    -3.543475486239    -0.350957213228    12.000000000000
      Gh(C)          -3.681818976526     0.709320477570    -0.351498122357    12.000000000000
      Gh(C)           3.693147101150    -3.542805830553    -0.341939486512    12.000000000000
      Gh(C)          -1.221432251994     4.970123808701    -0.341735447441    12.000000000000
      Gh(C)           6.134770972926     0.680543457943    -0.344260345258    12.000000000000
      Gh(C)           3.656788880610     4.972948754405    -0.344071682389    12.000000000000
      Gh(C)          -2.455126907733    -2.834219582223    -0.335834584984    12.000000000000
      Gh(C)          -3.681819179061    -0.709330192631    -0.335320697240    12.000000000000
      Gh(C)           4.893012617914    -2.825204594794    -0.343202299553    12.000000000000
      Gh(C)          -0.000001073113     5.650442876870    -0.342966756148    12.000000000000
      Gh(C)           6.134775112332    -0.680559343237    -0.342995024742    12.000000000000
      Gh(C)           2.478131482856     5.653572262169    -0.342782902739    12.000000000000
      Gh(C)           1.221422404738    -4.970131544095    -0.344718439836    12.000000000000
      Gh(C)          -3.693162383965     3.542792465030    -0.344814812712    12.000000000000
      Gh(C)          -1.221428520945    -4.970122792758    -0.344831201669    12.000000000000
      Gh(C)          -4.914521807942     1.427170957833    -0.344953174800    12.000000000000
      Gh(C)           3.656787019679    -4.972959715401    -0.342621181855    12.000000000000
      Gh(C)          -2.478138530106     5.653569933366    -0.342498377730    12.000000000000
      Gh(C)          -3.693141738564    -3.542794708141    -0.342055612668    12.000000000000
      Gh(C)          -4.914512483053    -1.427185489190    -0.342022679899    12.000000000000
      Gh(C)          -0.000006008926    -5.650442776176    -0.343362260269    12.000000000000
      Gh(C)          -4.893020484101     2.825184109757    -0.343823533309    12.000000000000
      Gh(C)           2.478125993298    -5.653578033051    -0.343711782647    12.000000000000
      Gh(C)          -3.656798710258     4.972951692879    -0.343895002014    12.000000000000
      Gh(C)          -4.892999478856    -2.825196256222    -0.343356335251    12.000000000000
      Gh(C)          -2.478128498083    -5.653570659169    -0.343986970294    12.000000000000
      Gh(C)          -6.134770503331     0.680544277094    -0.344285896960    12.000000000000
      Gh(C)          -3.656788833189    -4.972948512133    -0.342835469671    12.000000000000
      Gh(C)          -6.134765042913    -0.680558404644    -0.343015500537    12.000000000000
      Gh(H)           5.835288495816     3.369271405792    -0.339454125786     1.007825032230
      Gh(H)           7.073859172747     1.228212759737    -0.343798701864     1.007825032230
      Gh(H)           4.600663264174     5.512376313291    -0.343566481637     1.007825032230
      Gh(H)           5.835283387305    -3.369310545891    -0.347656766868     1.007825032230
      Gh(H)          -0.000012151306     6.738526184974    -0.347316001155     1.007825032230
      Gh(H)           7.073861171831    -1.228231431906    -0.343503762836     1.007825032230
      Gh(H)           2.473313731799     6.740679802232    -0.343249623669     1.007825032230
      Gh(H)           4.600668491381    -5.512380618338    -0.343031179023     1.007825032230
      Gh(H)          -2.473318680537     6.740677230444    -0.342948277044     1.007825032230
      Gh(H)          -0.000010268228    -6.738532665614    -0.338832575284     1.007825032230
      Gh(H)          -5.835301914343     3.369266461134    -0.339318103638     1.007825032230
      Gh(H)           2.473307923831    -6.740689863591    -0.343141452222     1.007825032230
      Gh(H)          -4.600674841208     5.512373537441    -0.343401153313     1.007825032230
      Gh(H)          -5.835279506835    -3.369293452942    -0.347936072749     1.007825032230
      Gh(H)          -2.473300347440    -6.740683567302    -0.343590768766     1.007825032230
      Gh(H)          -7.073857766768     1.228215983678    -0.343882693345     1.007825032230
      Gh(H)          -4.600673786085    -5.512367158949    -0.343203487046     1.007825032230
      Gh(H)          -7.073856934409    -1.228225121139    -0.343598619303     1.007825032230

  Running in c1 symmetry.

  Rotational constants: A =      0.00203  B =      0.00199  C =      0.00109 [cm^-1]
  Rotational constants: A =     60.93392  B =     59.69837  C =     32.56832 [MHz]
  Nuclear repulsion =  306.774908447733026

  Charge       = 1
  Multiplicity = 1
  Electrons    = 52
  Nalpha       = 26
  Nbeta        = 26

  ==> Algorithm <==

  SCF Algorithm Type is DF.
  DIIS enabled.
  MOM disabled.
  Fractional occupation disabled.
  Guess Type is SAD.
  Energy threshold   = 1.00e-08
  Density threshold  = 1.00e-08
  Integral threshold = 1.00e-12

  ==> Primary Basis <==

  Basis Set: JUN-CC-PVDZ
    Blend: JUN-CC-PVDZ
    Number of shells: 569
    Number of basis functions: 1233
    Number of Cartesian functions: 1294
    Spherical Harmonics?: true
    Max angular momentum: 2

   => Loading Basis Set <=

    Name: (JUN-CC-PVDZ AUX)
    Role: JKFIT
    Keyword: DF_BASIS_SCF
    atoms 1-2, 4-5, 10, 17-70 entry C          line   146 file /opt/software/pc2/EB-SW/software/PSI4/1.9-foss-2022a/share/psi4/basis/jun-cc-pvdz-jkfit.gbs 
    atoms 3, 6                entry N          line   202 file /opt/software/pc2/EB-SW/software/PSI4/1.9-foss-2022a/share/psi4/basis/jun-cc-pvdz-jkfit.gbs 
    atoms 7-9, 11-16, 71-88   entry H          line    70 file /opt/software/pc2/EB-SW/software/PSI4/1.9-foss-2022a/share/psi4/basis/jun-cc-pvdz-jkfit.gbs 

  ==> Integral Setup <==

  ==> DiskDFJK: Density-Fitted J/K Matrices <==

    J tasked:                  Yes
    K tasked:                  Yes
    wK tasked:                  No
    OpenMP threads:             16
    Integrals threads:          16
    Memory [MiB]:            34332
    Algorithm:                Core
    Integral Cache:           LOAD
    Schwarz Cutoff:          1E-12
    Fitting Condition:       1E-10

   => Auxiliary Basis Set <=

  Basis Set: (JUN-CC-PVDZ AUX)
    Blend: JUN-CC-PVDZ-JKFIT
    Number of shells: 1890
    Number of basis functions: 5440
    Number of Cartesian functions: 6226
    Spherical Harmonics?: true
    Max angular momentum: 3

  Minimum eigenvalue in the overlap matrix is 3.1145919068E-10.
  Reciprocal condition number of the overlap matrix is 1.1341092986E-11.
    Using canonical orthogonalization.
  Overall, 14 of 1233 possible MOs eliminated.


  ==> Pre-Iterations <==

  SCF Guess: Superposition of Atomic Densities via on-the-fly atomic UHF (no occupation information).

   -------------------------
    Irrep   Nso     Nmo    
   -------------------------
     A       1233    1219 
   -------------------------
    Total    1233    1219
   -------------------------

  ==> Iterations <==

                           Total Energy        Delta E     RMS |[F,P]|

   @DF-RHF iter SAD:  -303.36539416181574   -3.03365e+02   0.00000e+00 
   @DF-RHF iter   1:  -303.17217315640170    1.93221e-01   3.46040e-04 ADIIS/DIIS
   @DF-RHF iter   2:  -303.28665411085376   -1.14481e-01   1.16316e-04 ADIIS/DIIS
   @DF-RHF iter   3:  -303.29820761571949   -1.15535e-02   4.56745e-05 DIIS
   @DF-RHF iter   4:  -303.30014482944603   -1.93721e-03   1.00481e-05 DIIS
   @DF-RHF iter   5:  -303.30025476864694   -1.09939e-04   2.45922e-06 DIIS
   @DF-RHF iter   6:  -303.30026453862945   -9.76998e-06   6.66436e-07 DIIS
   @DF-RHF iter   7:  -303.30026566690560   -1.12828e-06   3.43651e-07 DIIS
   @DF-RHF iter   8:  -303.30026594207357   -2.75168e-07   1.39122e-07 DIIS
   @DF-RHF iter   9:  -303.30026599571039   -5.36368e-08   3.46615e-08 DIIS
   @DF-RHF iter  10:  -303.30026599866284   -2.95245e-09   1.30658e-08 DIIS
   @DF-RHF iter  11:  -303.30026599891414   -2.51305e-10   3.22609e-09 DIIS
  Energy and wave function converged.


  ==> Post-Iterations <==

    Orbital Energies [Eh]
    ---------------------

    Doubly Occupied:                                                      

       1A    -15.834518     2A    -15.833956     3A    -11.528967  
       4A    -11.459604     5A    -11.458037     6A    -11.449318  
       7A    -11.449151     8A     -1.577125     9A     -1.432834  
      10A     -1.237764    11A     -1.188568    12A     -1.118284  
      13A     -1.021600    14A     -0.996092    15A     -0.916299  
      16A     -0.849976    17A     -0.815531    18A     -0.812251  
      19A     -0.789339    20A     -0.785857    21A     -0.781054  
      22A     -0.729189    23A     -0.725293    24A     -0.716830  
      25A     -0.595540    26A     -0.523422  

    Virtual:                                                              

      27A     -0.080673    28A     -0.071436    29A     -0.063970  
      30A     -0.063817    31A     -0.045715    32A     -0.044341  
      33A     -0.043614    34A     -0.039928    35A     -0.035239  
      36A     -0.030779    37A     -0.023273    38A     -0.022884  
      39A     -0.020339    40A     -0.016904    41A     -0.016034  
      42A     -0.014351    43A     -0.010455    44A     -0.007148  
      45A      0.001020    46A      0.001564    47A      0.003075  
      48A      0.003464    49A      0.005945    50A      0.007860  
      51A      0.009921    52A      0.011815    53A      0.012717  
      54A      0.015678    55A      0.025527    56A      0.025576  
      57A      0.027301    58A      0.027948    59A      0.031875  
      60A      0.032253    61A      0.033649    62A      0.034641  
      63A      0.037453    64A      0.038379    65A      0.039532  
      66A      0.042888    67A      0.044481    68A      0.049864  
      69A      0.052330    70A      0.055251    71A      0.055443  
      72A      0.056624    73A      0.057968    74A      0.058775  
      75A      0.059934    76A      0.062583    77A      0.063552  
      78A      0.063656    79A      0.064532    80A      0.068909  
      81A      0.070549    82A      0.072372    83A      0.075635  
      84A      0.077063    85A      0.078697    86A      0.079584  
      87A      0.081003    88A      0.081458    89A      0.082401  
      90A      0.083076    91A      0.086766    92A      0.087489  
      93A      0.092508    94A      0.092678    95A      0.096261  
      96A      0.096568    97A      0.096700    98A      0.099849  
      99A      0.101775   100A      0.106101   101A      0.106728  
     102A      0.107526   103A      0.108140   104A      0.108701  
     105A      0.109515   106A      0.110610   107A      0.110729  
     108A      0.114468   109A      0.115390   110A      0.116506  
     111A      0.120340   112A      0.121770   113A      0.122936  
     114A      0.125119   115A      0.126059   116A      0.129060  
     117A      0.129533   118A      0.130625   119A      0.131323  
     120A      0.134116   121A      0.137442   122A      0.138704  
     123A      0.139408   124A      0.141035   125A      0.142739  
     126A      0.145003   127A      0.148032   128A      0.150359  
     129A      0.150692   130A      0.151245   131A      0.152646  
     132A      0.153557   133A      0.154393   134A      0.157312  
     135A      0.157626   136A      0.159497   137A      0.161260  
     138A      0.161738   139A      0.162858   140A      0.165347  
     141A      0.166650   142A      0.167616   143A      0.168403  
     144A      0.168953   145A      0.169255   146A      0.170797  
     147A      0.172630   148A      0.174468   149A      0.175760  
     150A      0.176793   151A      0.178645   152A      0.179656  
     153A      0.184266   154A      0.187390   155A      0.189590  
     156A      0.192633   157A      0.195074   158A      0.196677  
     159A      0.198051   160A      0.198473   161A      0.199140  
     162A      0.200665   163A      0.202128   164A      0.204193  
     165A      0.205686   166A      0.206500   167A      0.208615  
     168A      0.212366   169A      0.212884   170A      0.214022  
     171A      0.217429   172A      0.218199   173A      0.218838  
     174A      0.219844   175A      0.220913   176A      0.221155  
     177A      0.222723   178A      0.225396   179A      0.227527  
     180A      0.230484   181A      0.231275   182A      0.232099  
     183A      0.234057   184A      0.234776   185A      0.237064  
     186A      0.239578   187A      0.242322   188A      0.248870  
     189A      0.250473   190A      0.251210   191A      0.253787  
     192A      0.255868   193A      0.256964   194A      0.258319  
     195A      0.259361   196A      0.261729   197A      0.262052  
     198A      0.264380   199A      0.267311   200A      0.268454  
     201A      0.270261   202A      0.271940   203A      0.274459  
     204A      0.274939   205A      0.275615   206A      0.275982  
     207A      0.279590   208A      0.280619   209A      0.280888  
     210A      0.283925   211A      0.286611   212A      0.288111  
     213A      0.288770   214A      0.289430   215A      0.292459  
     216A      0.296712   217A      0.298273   218A      0.300693  
     219A      0.301153   220A      0.304255   221A      0.305205  
     222A      0.308369   223A      0.309546   224A      0.310594  
     225A      0.312804   226A      0.317024   227A      0.317501  
     228A      0.317926   229A      0.320929   230A      0.322165  
     231A      0.325826   232A      0.326869   233A      0.328711  
     234A      0.333057   235A      0.336598   236A      0.340081  
     237A      0.342153   238A      0.344439   239A      0.345302  
     240A      0.350046   241A      0.350947   242A      0.355136  
     243A      0.355422   244A      0.356165   245A      0.358998  
     246A      0.360896   247A      0.362039   248A      0.364410  
     249A      0.365467   250A      0.367522   251A      0.369499  
     252A      0.371527   253A      0.372841   254A      0.373664  
     255A      0.376243   256A      0.376838   257A      0.379626  
     258A      0.380125   259A      0.381865   260A      0.384685  
     261A      0.385658   262A      0.387333   263A      0.389384  
     264A      0.390588   265A      0.391808   266A      0.394382  
     267A      0.398049   268A      0.398641   269A      0.400355  
     270A      0.401698   271A      0.405168   272A      0.405685  
     273A      0.407268   274A      0.408953   275A      0.413523  
     276A      0.415088   277A      0.416860   278A      0.418071  
     279A      0.418868   280A      0.421522   281A      0.424823  
     282A      0.429014   283A      0.429930   284A      0.430569  
     285A      0.433393   286A      0.434928   287A      0.436941  
     288A      0.439848   289A      0.441196   290A      0.444544  
     291A      0.446700   292A      0.447960   293A      0.449215  
     294A      0.450321   295A      0.452279   296A      0.453943  
     297A      0.456978   298A      0.460106   299A      0.462071  
     300A      0.463741   301A      0.466302   302A      0.466944  
     303A      0.469371   304A      0.471424   305A      0.477440  
     306A      0.481721   307A      0.482734   308A      0.484661  
     309A      0.489375   310A      0.491237   311A      0.493021  
     312A      0.494097   313A      0.495442   314A      0.497335  
     315A      0.497521   316A      0.498918   317A      0.502571  
     318A      0.508026   319A      0.509270   320A      0.510779  
     321A      0.513426   322A      0.516644   323A      0.517819  
     324A      0.520046   325A      0.521428   326A      0.525706  
     327A      0.526532   328A      0.533532   329A      0.534957  
     330A      0.535870   331A      0.537365   332A      0.541140  
     333A      0.544558   334A      0.545731   335A      0.548840  
     336A      0.549909   337A      0.551583   338A      0.553609  
     339A      0.557241   340A      0.557972   341A      0.561110  
     342A      0.562278   343A      0.562972   344A      0.563734  
     345A      0.565222   346A      0.571311   347A      0.576145  
     348A      0.577028   349A      0.581974   350A      0.582670  
     351A      0.584622   352A      0.587722   353A      0.588398  
     354A      0.589871   355A      0.592657   356A      0.594692  
     357A      0.595080   358A      0.595500   359A      0.599082  
     360A      0.601226   361A      0.602325   362A      0.606716  
     363A      0.607795   364A      0.612678   365A      0.613996  
     366A      0.616041   367A      0.617712   368A      0.621248  
     369A      0.624565   370A      0.625648   371A      0.629390  
     372A      0.636463   373A      0.640545   374A      0.644885  
     375A      0.646037   376A      0.648396   377A      0.655538  
     378A      0.661090   379A      0.662887   380A      0.664011  
     381A      0.667017   382A      0.668323   383A      0.670853  
     384A      0.671358   385A      0.674037   386A      0.674784  
     387A      0.675931   388A      0.676213   389A      0.677942  
     390A      0.679034   391A      0.681935   392A      0.683858  
     393A      0.686673   394A      0.692102   395A      0.695737  
     396A      0.700341   397A      0.701753   398A      0.702912  
     399A      0.704814   400A      0.707056   401A      0.710424  
     402A      0.713354   403A      0.715789   404A      0.720546  
     405A      0.721528   406A      0.724180   407A      0.735957  
     408A      0.738971   409A      0.748512   410A      0.754830  
     411A      0.760331   412A      0.761313   413A      0.764624  
     414A      0.765783   415A      0.766710   416A      0.773271  
     417A      0.778411   418A      0.783932   419A      0.787335  
     420A      0.792923   421A      0.794683   422A      0.800940  
     423A      0.803178   424A      0.807640   425A      0.810818  
     426A      0.813773   427A      0.816434   428A      0.819240  
     429A      0.824153   430A      0.827749   431A      0.831651  
     432A      0.841604   433A      0.849654   434A      0.855412  
     435A      0.861292   436A      0.871219   437A      0.873700  
     438A      0.876781   439A      0.878719   440A      0.879829  
     441A      0.883230   442A      0.886883   443A      0.896619  
     444A      0.905715   445A      0.908195   446A      0.913465  
     447A      0.916185   448A      0.916232   449A      0.922752  
     450A      0.927536   451A      0.929942   452A      0.936117  
     453A      0.949860   454A      0.954598   455A      0.956073  
     456A      0.963518   457A      0.966757   458A      0.970167  
     459A      0.974400   460A      0.975069   461A      0.976169  
     462A      0.979641   463A      0.994708   464A      1.003515  
     465A      1.009266   466A      1.013529   467A      1.014712  
     468A      1.017080   469A      1.021332   470A      1.037173  
     471A      1.041430   472A      1.050697   473A      1.058008  
     474A      1.058450   475A      1.061443   476A      1.065376  
     477A      1.071293   478A      1.083720   479A      1.089743  
     480A      1.090811   481A      1.095136   482A      1.099587  
     483A      1.102173   484A      1.108710   485A      1.113598  
     486A      1.120819   487A      1.125385   488A      1.128383  
     489A      1.135184   490A      1.141657   491A      1.158020  
     492A      1.171517   493A      1.175583   494A      1.196291  
     495A      1.199078   496A      1.200714   497A      1.204325  
     498A      1.206626   499A      1.210712   500A      1.216269  
     501A      1.219642   502A      1.229084   503A      1.231934  
     504A      1.233294   505A      1.236750   506A      1.237886  
     507A      1.244588   508A      1.254356   509A      1.272446  
     510A      1.275064   511A      1.276094   512A      1.291721  
     513A      1.299165   514A      1.345946   515A      1.353595  
     516A      1.355723   517A      1.360653   518A      1.364029  
     519A      1.367507   520A      1.367733   521A      1.396398  
     522A      1.398552   523A      1.402273   524A      1.413372  
     525A      1.424895   526A      1.435442   527A      1.439205  
     528A      1.450105   529A      1.457741   530A      1.460548  
     531A      1.473524   532A      1.485803   533A      1.490878  
     534A      1.493727   535A      1.507329   536A      1.514710  
     537A      1.524225   538A      1.537607   539A      1.545203  
     540A      1.548709   541A      1.552358   542A      1.571406  
     543A      1.572838   544A      1.581551   545A      1.586222  
     546A      1.588789   547A      1.596987   548A      1.601882  
     549A      1.607340   550A      1.615743   551A      1.616944  
     552A      1.626847   553A      1.634889   554A      1.641011  
     555A      1.650874   556A      1.654305   557A      1.658218  
     558A      1.662683   559A      1.667591   560A      1.675804  
     561A      1.678805   562A      1.682409   563A      1.686042  
     564A      1.688873   565A      1.694194   566A      1.698852  
     567A      1.700526   568A      1.706282   569A      1.707949  
     570A      1.708195   571A      1.712977   572A      1.718382  
     573A      1.722079   574A      1.722390   575A      1.728975  
     576A      1.733595   577A      1.734942   578A      1.736285  
     579A      1.740032   580A      1.742187   581A      1.747883  
     582A      1.749312   583A      1.752872   584A      1.755364  
     585A      1.758005   586A      1.759962   587A      1.762915  
     588A      1.768739   589A      1.772025   590A      1.772633  
     591A      1.773512   592A      1.778099   593A      1.779033  
     594A      1.784478   595A      1.789770   596A      1.790775  
     597A      1.791804   598A      1.795008   599A      1.798391  
[...]
     823A      1.812487   824A      1.818691   825A      1.819018  
     826A      1.821289   827A      1.821933   828A      1.825260  
     829A      1.835461   830A      1.837617   831A      1.840724  
     832A      1.842742   833A      1.845181   834A      1.850195  
     835A      1.852573   836A      1.857796   837A      1.860755  
     838A      1.863276   839A      1.864365   840A      1.866363  
     841A      1.868562   842A      1.877814   843A      1.878227  
     844A      1.880379   845A      1.883755   846A      1.886946  
     847A      1.890399   848A      1.897221   849A      1.900658  
     850A      1.904008   851A      1.907206   852A      1.909007  
     853A      1.912188   854A      1.916095   855A      1.917259  
     856A      1.919775   857A      1.923532   858A      1.926056  
     859A      1.927472   860A      1.930069   861A      1.933509  
     862A      1.940065   863A      1.941264   864A      1.946731  
     865A      1.947497   866A      1.951404   867A      1.952375  
     868A      1.954942   869A      1.957187   870A      1.958073  
     871A      1.960237   872A      1.964270   873A      1.969482  
     874A      1.974246   875A      1.983374   876A      1.985479  
     877A      1.992474   878A      1.993981   879A      1.998084  
     880A      2.000890   881A      2.006001   882A      2.010403  
     883A      2.011035   884A      2.013343   885A      2.014889  
     886A      2.017326   887A      2.023512   888A      2.025375  
     889A      2.029781   890A      2.031734   891A      2.039255  
     892A      2.040690   893A      2.044184   894A      2.045699  
     895A      2.047527   896A      2.048598   897A      2.053673  
     898A      2.055542   899A      2.058070   900A      2.058676  
     901A      2.063433   902A      2.066404   903A      2.069556  
     904A      2.070296   905A      2.075507   906A      2.079853  
     907A      2.084253   908A      2.084876   909A      2.089780  
     910A      2.091649   911A      2.093905   912A      2.097781  
     913A      2.099932   914A      2.101438   915A      2.103581  
     916A      2.104558   917A      2.105620   918A      2.108504  
     919A      2.111800   920A      2.113019   921A      2.113688  
     922A      2.114711   923A      2.117609   924A      2.121563  
     925A      2.122609   926A      2.122758   927A      2.125854  
     928A      2.127199   929A      2.128888   930A      2.132117  
     931A      2.134835   932A      2.135237   933A      2.136869  
     934A      2.138644   935A      2.142365   936A      2.143168  
     937A      2.145383   938A      2.146891   939A      2.154093  
     940A      2.159502   941A      2.163796   942A      2.167572  
     943A      2.170474   944A      2.173437   945A      2.176271  
     946A      2.181605   947A      2.182674   948A      2.184033  
     949A      2.186499   950A      2.192117   951A      2.196472  
     952A      2.197896   953A      2.202841   954A      2.204554  
     955A      2.205997   956A      2.208889   957A      2.212559  
     958A      2.218560   959A      2.221025   960A      2.227039  
     961A      2.233954   962A      2.237002   963A      2.241225  
     964A      2.242925   965A      2.245315   966A      2.247444  
     967A      2.249649   968A      2.250193   969A      2.254723  
     970A      2.257840   971A      2.261434   972A      2.263740  
     973A      2.267161   974A      2.269435   975A      2.269815  
     976A      2.275843   977A      2.277427   978A      2.278872  
     979A      2.282093   980A      2.288464   981A      2.294940  
     982A      2.300750   983A      2.313432   984A      2.318115  
     985A      2.324252   986A      2.325629   987A      2.331019  
     988A      2.335422   989A      2.341184   990A      2.344002  
     991A      2.348287   992A      2.353713   993A      2.354660  
     994A      2.357237   995A      2.360924   996A      2.364416  
     997A      2.370259   998A      2.371065   999A      2.386488  
    1000A      2.392271  1001A      2.397230  1002A      2.408204  
    1003A      2.408684  1004A      2.410599  1005A      2.417473  
    1006A      2.422075  1007A      2.424651  1008A      2.425877  
    1009A      2.431597  1010A      2.434092  1011A      2.437629  
    1012A      2.444220  1013A      2.450444  1014A      2.451819  
    1015A      2.461905  1016A      2.464182  1017A      2.468340  
    1018A      2.482152  1019A      2.488879  1020A      2.489276  
    1021A      2.494631  1022A      2.498868  1023A      2.506260  
    1024A      2.509068  1025A      2.511941  1026A      2.518473  
    1027A      2.524499  1028A      2.533542  1029A      2.537586  
    1030A      2.543017  1031A      2.550753  1032A      2.550933  
    1033A      2.553919  1034A      2.556202  1035A      2.558498  
    1036A      2.560693  1037A      2.562805  1038A      2.564677  
    1039A      2.567055  1040A      2.572871  1041A      2.573960  
    1042A      2.579093  1043A      2.580164  1044A      2.583564  
    1045A      2.583954  1046A      2.593741  1047A      2.596309  
    1048A      2.604017  1049A      2.606241  1050A      2.615361  
    1051A      2.618470  1052A      2.622208  1053A      2.628514  
    1054A      2.630411  1055A      2.638005  1056A      2.639698  
    1057A      2.651477  1058A      2.652900  1059A      2.653671  
    1060A      2.658040  1061A      2.672236  1062A      2.678228  
    1063A      2.684614  1064A      2.689487  1065A      2.694264  
    1066A      2.699451  1067A      2.705874  1068A      2.707327  
    1069A      2.709449  1070A      2.712050  1071A      2.716310  
    1072A      2.718779  1073A      2.720460  1074A      2.722735  
    1075A      2.726442  1076A      2.738169  1077A      2.751119  
    1078A      2.754844  1079A      2.759719  1080A      2.764418  
    1081A      2.772569  1082A      2.780757  1083A      2.793442  
    1084A      2.799793  1085A      2.809849  1086A      2.813532  
    1087A      2.822095  1088A      2.831818  1089A      2.834622  
    1090A      2.841167  1091A      2.850944  1092A      2.853534  
    1093A      2.856318  1094A      2.860622  1095A      2.861962  
    1096A      2.864787  1097A      2.882165  1098A      2.901862  
    1099A      2.916280  1100A      2.918962  1101A      2.922588  
    1102A      2.927236  1103A      2.928496  1104A      2.933128  
    1105A      2.946790  1106A      2.947620  1107A      2.959974  
    1108A      2.969457  1109A      2.976654  1110A      2.984179  
    1111A      2.989593  1112A      3.002908  1113A      3.013434  
    1114A      3.023530  1115A      3.036859  1116A      3.038264  
    1117A      3.054026  1118A      3.057886  1119A      3.062719  
    1120A      3.067488  1121A      3.084743  1122A      3.085882  
    1123A      3.095057  1124A      3.105564  1125A      3.111146  
    1126A      3.126710  1127A      3.132115  1128A      3.136443  
    1129A      3.139240  1130A      3.147223  1131A      3.147260  
    1132A      3.149033  1133A      3.152681  1134A      3.154984  
    1135A      3.158810  1136A      3.164633  1137A      3.173218  
    1138A      3.180239  1139A      3.190966  1140A      3.198479  
    1141A      3.200047  1142A      3.212542  1143A      3.224320  
    1144A      3.239370  1145A      3.243897  1146A      3.252763  
    1147A      3.260508  1148A      3.272733  1149A      3.288928  
    1150A      3.304539  1151A      3.319064  1152A      3.332196  
    1153A      3.351714  1154A      3.369552  1155A      3.378369  
    1156A      3.405584  1157A      3.412640  1158A      3.434387  
    1159A      3.440322  1160A      3.475669  1161A      3.484435  
    1162A      3.505636  1163A      3.536862  1164A      3.552783  
    1165A      3.578995  1166A      3.614377  1167A      3.634065  
    1168A      3.646114  1169A      3.651616  1170A      3.678686  
    1171A      3.679298  1172A      3.684106  1173A      3.711663  
    1174A      3.727016  1175A      3.753982  1176A      3.767783  
    1177A      3.818392  1178A      3.849092  1179A      3.864969  
    1180A      3.873439  1181A      3.876508  1182A      3.879327  
    1183A      3.908472  1184A      3.919556  1185A      3.925434  
    1186A      3.960965  1187A      4.013251  1188A      4.025415  
    1189A      4.041742  1190A      4.144109  1191A      4.199657  
    1192A      4.271237  1193A      4.364456  1194A      4.376732  
    1195A      4.627302  1196A      4.738551  1197A      4.793582  
    1198A      4.912849  1199A      4.947455  1200A      5.001887  
    1201A      5.029881  1202A      5.056418  1203A      5.117801  
    1204A      5.143247  1205A      5.169584  1206A      5.213185  
    1207A      5.239703  1208A      5.452688  1209A      5.459805  
    1210A      5.809804  1211A      5.825053  1212A      6.096455  
    1213A     18.234680  1214A     18.501710  1215A     18.522015  
    1216A     18.641428  1217A     18.964368  1218A     25.383117  
    1219A     25.421232  

    Final Occupation by Irrep:
              A 
    DOCC [   171 ]
    NA   [   171 ]
    NB   [   171 ]

  @DF-RHF Final Energy: -2055.89736563825090

   => Energetics <=

    Nuclear Repulsion Energy =           6452.5568002797781446
    One-Electron Energy =              -15636.5634403636668139
    Two-Electron Energy =                7128.1092744456364017
    Total Energy =                      -2055.8973656382513582

Computation Completed


Properties will be evaluated at   0.000000,   0.000000,   0.000000 [a0]

Properties computed using the SCF density matrix


 Multipole Moments:

 ------------------------------------------------------------------------------------
     Multipole            Electronic (a.u.)      Nuclear  (a.u.)        Total (a.u.)
 ------------------------------------------------------------------------------------

 L = 1.  Multiply by 2.5417464519 to convert [e a0] to [Debye]
 Dipole X            :         -0.0008905           -0.0000085           -0.0008990
 Dipole Y            :          0.0001805           -0.0028843           -0.0027038
 Dipole Z            :        221.9549331         -221.9499062            0.0050269
 Magnitude           :                                                    0.0057783

 ------------------------------------------------------------------------------------

*** tstop() called on n2cn0366 at Sat Feb 10 12:19:03 2024
Module time:
	user time   =    3659.45 seconds =      60.99 minutes
	system time =     141.10 seconds =       2.35 minutes
	total time  =        270 seconds =       4.50 minutes
Total time:
	user time   =   13055.80 seconds =     217.60 minutes
	system time =     411.13 seconds =       6.85 minutes
	total time  =       1007 seconds =      16.78 minutes
  Constructing Basis Sets for SAPT...

   => Loading Basis Set <=

    Name: (JUN-CC-PVDZ AUX)
    Role: RIFIT
    Keyword: DF_BASIS_SAPT
    atoms 1-2, 4-5, 10, 17-70 entry C          line   100 file /opt/software/pc2/EB-SW/software/PSI4/1.9-foss-2022a/share/psi4/basis/jun-cc-pvdz-ri.gbs 
    atoms 3, 6                entry N          line   144 file /opt/software/pc2/EB-SW/software/PSI4/1.9-foss-2022a/share/psi4/basis/jun-cc-pvdz-ri.gbs 
    atoms 7-9, 11-16, 71-88   entry H          line    30 file /opt/software/pc2/EB-SW/software/PSI4/1.9-foss-2022a/share/psi4/basis/jun-cc-pvdz-ri.gbs 

   => Loading Basis Set <=

    Name: (JUN-CC-PVDZ AUX)
    Role: JKFIT
    Keyword: DF_BASIS_ELST
    atoms 1-2, 4-5, 10, 17-70 entry C          line   146 file /opt/software/pc2/EB-SW/software/PSI4/1.9-foss-2022a/share/psi4/basis/jun-cc-pvdz-jkfit.gbs 
    atoms 3, 6                entry N          line   202 file /opt/software/pc2/EB-SW/software/PSI4/1.9-foss-2022a/share/psi4/basis/jun-cc-pvdz-jkfit.gbs 
    atoms 7-9, 11-16, 71-88   entry H          line    70 file /opt/software/pc2/EB-SW/software/PSI4/1.9-foss-2022a/share/psi4/basis/jun-cc-pvdz-jkfit.gbs 


  //>>>>>>>>>>>>>>>>>>>>>>>>>>>>>>>>>>>//
  //               SSAPT0              //
  //<<<<<<<<<<<<<<<<<<<<<<<<<<<<<<<<<<<//


*** tstart() called on n2cn0366
*** at Sat Feb 10 12:19:04 2024

        SAPT0  
    Ed Hohenstein
     6 June 2009

      Orbital Information
  --------------------------
    NSO        =      1233
    NMO        =      1219
    NRI        =      4343
    NRI (Elst) =      5440
    NOCC A     =        26
    NOCC B     =       171
    FOCC A     =         7
    FOCC B     =        54
    NVIR A     =      1193
    NVIR B     =      1048

    Elst10,r            =    -0.089765539127 [Eh]
    Exch10              =     0.223957114745 [Eh]
    Exch10 (S^2)        =     0.218656585031 [Eh]

    Iter     Energy [mEh]          dE [mEh]         Residual      Time [s]
       1     -33.68573401      33.685734005      31.149509738            19
       2     -42.52779329       8.842059285       9.005423579            34
       3     -43.20769861       0.679905316       2.254741286            49
       4     -43.10857791      -0.099120693       0.922255293            66
       5     -43.06230643      -0.046271483       0.166292713            80
       6     -43.06654186       0.004235426       0.079423995            93
       7     -43.06948664       0.002944780       0.024532935           106
       8     -43.06863828      -0.000848355       0.008724240           118
       9     -43.06861499      -0.000023290       0.003443370           131
      10     -43.06869216       0.000077173       0.000989920           143
      11     -43.06868996      -0.000002203       0.000277133           156
      12     -43.06868564      -0.000004320       0.000097309           168
      13     -43.06868563      -0.000000015       0.000023487           184
      14     -43.06868605       0.000000428       0.000007711           197
      15     -43.06868600      -0.000000051       0.000002707           208
      16     -43.06868597      -0.000000038       0.000001098           224
      17     -43.06868597       0.000000008       0.000000393           243

    CHF Iterations converged


    Iter     Energy [mEh]          dE [mEh]         Residual      Time [s]
       1     -69.78268401      69.782684010      95.423000382            21
       2     -64.43683085      -5.345853161      21.871329396            37
       3     -70.41329512       5.976464269      10.209338699            51
       4     -72.15492996       1.741634838       1.841186358            65
       5     -72.05347047      -0.101459490       0.846288288            79
       6     -71.98815408      -0.065316387       0.351722017            93
       7     -71.99247504       0.004320959       0.214187902           107
       8     -72.00784351       0.015368467       0.088253203           121
       9     -72.00739747      -0.000446032       0.047278119           135
      10     -72.00487935      -0.002518126       0.024060297           149
      11     -72.00477733      -0.000102020       0.013985788           163
      12     -72.00531824       0.000540914       0.006676190           177
      13     -72.00536814       0.000049900       0.003239768           191
      14     -72.00528635      -0.000081788       0.001821659           205
      15     -72.00523979      -0.000046565       0.000927891           219
      16     -72.00526533       0.000025539       0.000510521           233
      17     -72.00527704       0.000011709       0.000271935           247
      18     -72.00526989      -0.000007149       0.000175407           261
      19     -72.00526665      -0.000003236       0.000088478           276
      20     -72.00526829       0.000001634       0.000041713           290
      21     -72.00526925       0.000000968       0.000019058           306
      22     -72.00526894      -0.000000318       0.000010318           326
      23     -72.00526871      -0.000000225       0.000004943           343
      24     -72.00526876       0.000000048       0.000002219           361
      25     -72.00526881       0.000000048       0.000000979           379

    CHF Iterations converged

    Ind20,r (A<-B)      =    -0.043068685974 [Eh]
    Ind20,r (B<-A)      =    -0.072005268807 [Eh]
    Ind20,r             =    -0.115073954782 [Eh]
    Exch-Ind20,r (A<-B) =     0.039856589281 [Eh]
    Exch-Ind20,r (B<-A) =     0.048805745669 [Eh]
    Exch-Ind20,r        =     0.088662334950 [Eh]
    Disp20              =    -0.112951117257 [Eh]
    Disp20 (SS)         =    -0.056475558628 [Eh]
    Disp20 (OS)         =    -0.056475558628 [Eh]
    Exch-Disp20         =     0.018451157987 [Eh]
    Exch-Disp20 (SS)    =     0.010991034750 [Eh]
    Exch-Disp20 (OS)    =     0.007460123237 [Eh]

    SAPT Results 
  --------------------------------------------------------------------------------------------------------
    Electrostatics                -89.76553913 [mEh]     -56.32872622 [kcal/mol]    -235.67939051 [kJ/mol]
      Elst10,r                    -89.76553913 [mEh]     -56.32872622 [kcal/mol]    -235.67939051 [kJ/mol]

    Exchange                      223.95711474 [mEh]     140.53521122 [kcal/mol]     587.99932375 [kJ/mol]
      Exch10                      223.95711474 [mEh]     140.53521122 [kcal/mol]     587.99932375 [kJ/mol]
      Exch10(S^2)                 218.65658503 [mEh]     137.20907861 [kcal/mol]     574.08278491 [kJ/mol]

    Induction                     -37.53937012 [mEh]     -23.55631039 [kcal/mol]     -98.55960266 [kJ/mol]
      Ind20,r                    -115.07395478 [mEh]     -72.20999681 [kcal/mol]    -302.12662665 [kJ/mol]
      Exch-Ind20,r                 88.66233495 [mEh]      55.63645515 [kcal/mol]     232.78292834 [kJ/mol]
      delta HF,r (2)              -11.12775029 [mEh]      -6.98276873 [kcal/mol]     -29.21590435 [kJ/mol]

    Dispersion                    -94.49995927 [mEh]     -59.29961971 [kcal/mol]    -248.10960888 [kJ/mol]
      Disp20                     -112.95111726 [mEh]     -70.87789615 [kcal/mol]    -296.55311750 [kJ/mol]
      Exch-Disp20                  18.45115799 [mEh]      11.57827644 [kcal/mol]      48.44350862 [kJ/mol]
      Disp20 (SS)                 -56.47555863 [mEh]     -35.43894808 [kcal/mol]    -148.27655875 [kJ/mol]
      Disp20 (OS)                 -56.47555863 [mEh]     -35.43894808 [kcal/mol]    -148.27655875 [kJ/mol]
      Exch-Disp20 (SS)             10.99103475 [mEh]       6.89697843 [kcal/mol]      28.85695776 [kJ/mol]
      Exch-Disp20 (OS)              7.46012324 [mEh]       4.68129801 [kcal/mol]      19.58655086 [kJ/mol]

  Total HF                         96.65220550 [mEh]      60.65017461 [kcal/mol]     253.76033058 [kJ/mol]
  Total SAPT0                       2.15224623 [mEh]       1.35055490 [kcal/mol]       5.65072170 [kJ/mol]

  Special recipe for scaled SAPT0 (see Manual):
    Electrostatics sSAPT0         -89.76553913 [mEh]     -56.32872622 [kcal/mol]    -235.67939051 [kJ/mol]
    Exchange sSAPT0               223.95711474 [mEh]     140.53521122 [kcal/mol]     587.99932375 [kJ/mol]
    Induction sSAPT0              -30.93391900 [mEh]     -19.41132723 [kcal/mol]     -81.21699314 [kJ/mol]
    Dispersion sSAPT0             -93.12532570 [mEh]     -58.43702412 [kcal/mol]    -244.50050894 [kJ/mol]
  Total sSAPT0                     10.13233092 [mEh]       6.35813364 [kcal/mol]      26.60243116 [kJ/mol]
  --------------------------------------------------------------------------------------------------------

*** tstop() called on n2cn0366 at Sat Feb 10 12:47:48 2024
Module time:
	user time   =   12917.58 seconds =     215.29 minutes
	system time =     671.07 seconds =      11.18 minutes
	total time  =       1724 seconds =      28.73 minutes
Total time:
	user time   =   25974.25 seconds =     432.90 minutes
	system time =    1082.21 seconds =      18.04 minutes
	total time  =       2732 seconds =      45.53 minutes

    Psi4 stopped on: Saturday, 10 February 2024 12:47PM
    Psi4 wall time for execution: 0:45:32.57

*** Psi4 exiting successfully. Buy a developer a beer!
