
    -----------------------------------------------------------------------
          Psi4: An Open-Source Ab Initio Electronic Structure Package
                               Psi4 1.9 release

                         Git: Rev {} zzzzzzz 


    D. G. A. Smith, L. A. Burns, A. C. Simmonett, R. M. Parrish,
    M. C. Schieber, R. Galvelis, P. Kraus, H. Kruse, R. Di Remigio,
    A. Alenaizan, A. M. James, S. Lehtola, J. P. Misiewicz, M. Scheurer,
    R. A. Shaw, J. B. Schriber, Y. Xie, Z. L. Glick, D. A. Sirianni,
    J. S. O'Brien, J. M. Waldrop, A. Kumar, E. G. Hohenstein,
    B. P. Pritchard, B. R. Brooks, H. F. Schaefer III, A. Yu. Sokolov,
    K. Patkowski, A. E. DePrince III, U. Bozkaya, R. A. King,
    F. A. Evangelista, J. M. Turney, T. D. Crawford, C. D. Sherrill,
    J. Chem. Phys. 152(18) 184108 (2020). https://doi.org/10.1063/5.0006002

                            Additional Code Authors
    E. T. Seidl, C. L. Janssen, E. F. Valeev, M. L. Leininger,
    J. F. Gonthier, R. M. Richard, H. R. McAlexander, M. Saitow, X. Wang,
    P. Verma, M. H. Lechner, A. Jiang, S. Behnle, A. G. Heide,
    M. F. Herbst, and D. L. Poole

             Previous Authors, Complete List of Code Contributors,
                       and Citations for Specific Modules
    https://github.com/psi4/psi4/blob/master/codemeta.json
    https://github.com/psi4/psi4/graphs/contributors
    http://psicode.org/psi4manual/master/introduction.html#citing-psifour

    -----------------------------------------------------------------------


    Psi4 started on: Wednesday, 07 February 2024 07:53PM

    Process ID: 116912
    Host:       n2cn0586
    PSIDATADIR: /opt/software/pc2/EB-SW/software/PSI4/1.9-foss-2022a/share/psi4
    Memory:     500.0 MiB
    Threads:    16
    
  ==> Input File <==

--------------------------------------------------------------------------
memory 80 GB # how much memory is available ! Depends on the nodes/cores !

molecule dimer {
# monomer A
-1 1    # Charge and multiplicity
B -1.977592e-04  2.742729e-04 3.900034
F  1.123153e-16  1.430594e-17 5.312819
F  1.147860e+00  6.757812e-01 3.428893
F  1.191806e-02 -1.332011e+00 3.429095
F -1.159666e+00  6.560735e-01 3.429174
--
# monomer B
0 1     # Charge and multiplicity
C   -3.66844126402057      7.80375217008252      0.00190004133558
C   -4.84759871934653      7.13124183134024     -0.00046653359696
C   -4.89495929917518      5.69633040353158     -0.00103944469517
C   -3.65374067877320      4.98073034095895      0.00662099703436
C   -2.40942512149445      7.11398103667468      0.00209438359570
C   -2.42547734410473      5.68112195090346     -0.00491050527438
C   -1.19474401643570      7.78614419430947      0.00356656413763
C   0.03795902893699      7.09942164575698      0.00139585983271
C   0.03033258741920      5.66948955970466     -0.00408752508301
C   -1.20098450790502      4.96927034791531      0.00488220885047
C   1.27795782581485      7.77285944319479      0.00277170839332
C   2.48535808472416      7.08769688523756      0.00049722048857
C   2.48612868491717      5.65477081024076     -0.00644052849921
C   1.25408291964399      4.95607811366431      0.00518741308898
C   3.75171459140595      7.76391215098033      0.00062407186893
C   4.92356605618520      7.07878077698995     -0.00143240883900
C   4.95560727132542      5.64344746336949     -0.00159282164606
C   3.70680153420475      4.94121020833308      0.00349873852374
H   -3.65852113775815      8.89082741913536      0.00358502958574
H   -1.18921332975660      8.87412108735996      0.00753844057883
H   1.28429423888630      8.86083343548850      0.00693053253426
H   3.75354208679975      8.85103527897216      0.00214659618464
H   5.86995870320703      7.61379483465560     -0.00235777588134
H   -5.78823170750226      7.67630221293400     -0.00202638095293
C   -6.09197395869619      4.99326001364347     -0.00291168518608
C   -6.12866148031747      3.58258016879823     -0.00171050815740
C   -3.66457974004527      3.56418217974434     -0.00463560277484
C   -4.89429820469869      2.86108077590057      0.00453338221034
C   -2.43733499489796      2.84761165708481      0.00719617576166
C   -1.20922785759670      3.54788693497833     -0.00648285103018
C   1.24714157216223      3.53468075142962     -0.00729145743546
C   0.01517603956900      2.83311183930540      0.00439272578912
C   2.46764517244071      2.82128997725533      0.00449278391269
C   3.70254947457969      3.52466015442405     -0.00899517692985
C   6.14498038638375      4.92757236613191     -0.00282626685777
C   6.16658835886151      3.51658447594213     -0.00065971342101
C   4.92460995845939      2.80840792535402      0.00587903281610
H   7.08990550964105      5.46688776622306     -0.00658814770723
H   -7.03104175110130      5.54268795285765     -0.00714490013730
C   -7.33969804112295      2.85841153457957     -0.00333767559888
C   -7.36488195805880      1.47032337158330     -0.00157213747140
C   -4.90350460894690      1.44442681216000     -0.00628840166334
C   -6.13225715261081      0.73993935705394      0.00600164231964
C   -3.67687480051673      0.72669714267312      0.00433931473643
C   -2.44565658606518      1.42964113326212     -0.00597039546461
C   -1.22360068130162      0.71532450163492      0.00545886906656
C   0.00763786931376      1.41738314923765      0.00392452278437
C   1.23121980774686      0.70211669058719     -0.01490206287210
C   2.46082110053113      1.40329203612573      0.00460244601878
C   3.68443025419614      0.68719842821222      0.00377365974158
C   4.91870890153864      1.39173456118907     -0.00862816189375
C   7.36980207796101      2.77948220318441     -0.00242013321349
C   7.38016266612146      1.39121750785509     -0.00087345036788
C   6.13979953912259      0.67411862320065      0.00545489144369
H   -8.27919079934664      3.40711804112415     -0.00763522772059
H   8.31511347147953      3.31811809662368     -0.00663070901292
C   -8.59175593758115      0.72483255304480     -0.00123170985383
C   -8.59902460370342     -0.63263980622873      0.00089141472904
C   -6.13981313911873     -0.67413663715361     -0.00609792660607
C   -7.38018411213749     -1.39126618958160      0.00131813493501
C   -4.91868448025621     -1.39175501803000      0.00624257154343
C   -3.68443829568458     -0.68723731573599     -0.00478966852105
C   -2.46081704024768     -1.40334517882457      0.00575341766833
C   -1.23116201232071     -0.70217386488055     -0.00636696112346
C   -0.00756962538737     -1.41741884941102      0.00108956317991
C   1.22364771588843     -0.71527537726392      0.01109518512883
C   2.44567064933149     -1.42964328900682     -0.00065482763106
C   3.67686670284649     -0.72670743155550     -0.00479541202602
C   6.13224884641929     -0.73997883984993     -0.00632338623858
C   4.90351914550401     -1.44445752054090      0.00751768830159
C   8.59901484869081      0.63260386666793     -0.00101133422380
C   8.59174548810050     -0.72485086719319      0.00072504603735
C   7.36486276438985     -1.47033266560598      0.00049486934466
H   -9.52830597181814      1.27684744919284     -0.00270163681798
H   9.54141097460619      1.17457248844457     -0.00206336648518
C   -7.36983790976868     -2.77954514593389      0.00312634335708
C   -4.92459910905015     -2.80843725734101     -0.00460528907921
C   -6.16662249566744     -3.51665219282533      0.00169655107992
C   -3.70251035970491     -3.52468154912026      0.00571878010666
C   -2.46764698511392     -2.82132596280400     -0.00632585824990
C   -0.01513347410770     -2.83314164539971     -0.00604426974092
C   -1.24712184122656     -3.53473217556300      0.00551968366725
C   1.20924506964357     -3.54791467864352      0.00805871345849
C   2.43733602215464     -2.84764173817541     -0.00608104485234
C   4.89430234377080     -2.86112296828604     -0.00526030478103
C   3.66461525504104     -3.56421984553201      0.00761911515957
C   6.12863901474565     -3.58258405771778      0.00096495711699
C   7.33967266469532     -2.85841330737039      0.00248018319869
H   -9.54144911125902     -1.17456346666430      0.00226083090216
H   9.52826186807155     -1.27691907390448      0.00197485379837
H   -8.31516504384864     -3.31814985321231      0.00729857188773
H   8.27915514249207     -3.40714078989363      0.00681973918158
C   -6.14499418870218     -4.92764727278338      0.00302254913999
C   -3.70678334799751     -4.94126171411716     -0.00679841894792
C   -4.95559005800169     -5.64349397349412      0.00116871569699
C   -2.48612132622665     -5.65478557440947      0.00614125209662
C   -1.25405833548005     -4.95612205000132     -0.00503435388927
C   1.20101257386816     -4.96928038819302     -0.00385322963129
C   -0.03033667441341     -5.66952030313900      0.00398997003238
C   3.65375010132847     -4.98074377541453     -0.00309522988330
C   2.42549269587528     -5.68117463552727      0.00628170066869
C   6.09196561781097     -4.99325796338655      0.00325918379042
C   4.89497644461045     -5.69634842095790      0.00202298796027
H   -7.08989238804069     -5.46699984223871      0.00742531082125
H   7.03105520920009     -5.54265853633254      0.00683896355417
C   -4.92354532219813     -7.07882109967734      0.00061394679214
C   -2.48534208823777     -7.08772807792913     -0.00189594564379
C   -3.75168589177895     -7.76394715763627     -0.00170126671874
C   -0.03794895698805     -7.09946487446944     -0.00168022049625
C   -1.27795610040136     -7.77290438466689     -0.00366491325785
C   2.40944432072629     -7.11402201200282     -0.00081701968533
C   1.19474993715296     -7.78618536556242     -0.00296931056689
C   4.84762105249800     -7.13126211057943      0.00168979497423
C   3.66847160587561     -7.80378799294376     -0.00065863938960
H   -5.86994035041618     -7.61383059804164      0.00215798365757
H   5.78824962538815     -7.67633218931421      0.00281691445618
H   -3.75352693944918     -8.85107156923607     -0.00353718114765
H   -1.28430440589466     -8.86087539249706     -0.00809229711623
H   1.18922157469537     -8.87416062058945     -0.00706194725726
H   3.65854661482387     -8.89086063405326     -0.00231318081200

    units angstrom      # Angstroms are the default
    no_reorient         # Geometry fixed, default
    symmetry c1         # C1 symmetry, default
}

set {
    scf_type DF         # Density fitting, faster than exact integrals
    freeze_core True    # Freeze core electrons
    basis jun-cc-pVDZ   # Jun-cc-pVDZ basis set, recommended for sSAPT0 in https://doi.org/10.1063/1.4867135
}

energy('ssapt0')        # Compute sSAPT0 energy, includes also SAPT0
--------------------------------------------------------------------------

  Memory set to  74.506 GiB by Python driver.

Scratch directory: /tmp/
   => Loading Basis Set <=

    Name: JUN-CC-PVDZ
    Role: ORBITAL
    Keyword: BASIS
    atoms 1                                                   entry B          line   130 file /opt/software/pc2/EB-SW/software/PSI4/1.9-foss-2022a/share/psi4/basis/jun-cc-pvdz.gbs 
    atoms 2-5                                                 entry F          line   266 file /opt/software/pc2/EB-SW/software/PSI4/1.9-foss-2022a/share/psi4/basis/jun-cc-pvdz.gbs 
    atoms 6-23, 30-42, 45-59, 62-78, 81-93, 98-108, 111-119   entry C          line   164 file /opt/software/pc2/EB-SW/software/PSI4/1.9-foss-2022a/share/psi4/basis/jun-cc-pvdz.gbs 
    atoms 24-29, 43-44, 60-61, 79-80, 94-97, 109-110, 120-125 entry H          line    36 file /opt/software/pc2/EB-SW/software/PSI4/1.9-foss-2022a/share/psi4/basis/jun-cc-pvdz.gbs 

   => Loading Basis Set <=

    Name: JUN-CC-PVDZ
    Role: ORBITAL
    Keyword: BASIS
    atoms 1                                                   entry B          line   130 file /opt/software/pc2/EB-SW/software/PSI4/1.9-foss-2022a/share/psi4/basis/jun-cc-pvdz.gbs 
    atoms 2-5                                                 entry F          line   266 file /opt/software/pc2/EB-SW/software/PSI4/1.9-foss-2022a/share/psi4/basis/jun-cc-pvdz.gbs 
    atoms 6-23, 30-42, 45-59, 62-78, 81-93, 98-108, 111-119   entry C          line   164 file /opt/software/pc2/EB-SW/software/PSI4/1.9-foss-2022a/share/psi4/basis/jun-cc-pvdz.gbs 
    atoms 24-29, 43-44, 60-61, 79-80, 94-97, 109-110, 120-125 entry H          line    36 file /opt/software/pc2/EB-SW/software/PSI4/1.9-foss-2022a/share/psi4/basis/jun-cc-pvdz.gbs 


  //>>>>>>>>>>>>>>>>>>>>>>>>>>>>>>>>>>>//
  //              Dimer HF             //
  //<<<<<<<<<<<<<<<<<<<<<<<<<<<<<<<<<<<//

   => Libint2 <=

    Primary   basis highest AM E, G, H:  5, 4, 3
    Auxiliary basis highest AM E, G, H:  6, 5, 4
    Onebody   basis highest AM E, G, H:  6, 5, 4
    Solid Harmonics ordering:            gaussian

*** tstart() called on n2cn0586
*** at Wed Feb  7 19:53:58 2024

   => Loading Basis Set <=

    Name: JUN-CC-PVDZ
    Role: ORBITAL
    Keyword: BASIS
    atoms 1                                                   entry B          line   130 file /opt/software/pc2/EB-SW/software/PSI4/1.9-foss-2022a/share/psi4/basis/jun-cc-pvdz.gbs 
    atoms 2-5                                                 entry F          line   266 file /opt/software/pc2/EB-SW/software/PSI4/1.9-foss-2022a/share/psi4/basis/jun-cc-pvdz.gbs 
    atoms 6-23, 30-42, 45-59, 62-78, 81-93, 98-108, 111-119   entry C          line   164 file /opt/software/pc2/EB-SW/software/PSI4/1.9-foss-2022a/share/psi4/basis/jun-cc-pvdz.gbs 
    atoms 24-29, 43-44, 60-61, 79-80, 94-97, 109-110, 120-125 entry H          line    36 file /opt/software/pc2/EB-SW/software/PSI4/1.9-foss-2022a/share/psi4/basis/jun-cc-pvdz.gbs 


         ---------------------------------------------------------
                                   SCF
               by Justin Turney, Rob Parrish, Andy Simmonett
                          and Daniel G. A. Smith
                              RHF Reference
                       16 Threads,  76293 MiB Core
         ---------------------------------------------------------

  ==> Geometry <==

    Molecular point group: c1
    Full point group: C1

    Geometry (in Angstrom), charge = -1, multiplicity = 1:

       Center              X                  Y                   Z               Mass       
    ------------   -----------------  -----------------  -----------------  -----------------
         B           -0.000201921932     0.000288800891     3.631416336367    11.009305360000
         F           -0.000004162732     0.000014527991     5.044201336367    18.998403162730
         F            1.147855837268     0.675795727991     3.160275336367    18.998403162730
         F            0.011913897268    -1.331996472009     3.160477336367    18.998403162730
         F           -1.159670162732     0.656088027991     3.160556336367    18.998403162730
         C           -3.668445426752     7.803766698073    -0.266717622298    12.000000000000
         C           -4.847602882078     7.131256359331    -0.269084197230    12.000000000000
         C           -4.894963461907     5.696344931522    -0.269657108329    12.000000000000
         C           -3.653744841505     4.980744868950    -0.261996666599    12.000000000000
         C           -2.409429284226     7.113995564665    -0.266523280038    12.000000000000
         C           -2.425481506836     5.681136478894    -0.273528168908    12.000000000000
         C           -1.194748179167     7.786158722300    -0.265051099496    12.000000000000
         C            0.037954866205     7.099436173748    -0.267221803801    12.000000000000
         C            0.030328424687     5.669504087695    -0.272705188716    12.000000000000
         C           -1.200988670637     4.969284875906    -0.263735454783    12.000000000000
         C            1.277953663083     7.772873971185    -0.265845955240    12.000000000000
         C            2.485353921992     7.087711413228    -0.268120443145    12.000000000000
         C            2.486124522185     5.654785338231    -0.275058192133    12.000000000000
         C            1.254078756912     4.956092641655    -0.263430250544    12.000000000000
         C            3.751710428674     7.763926678971    -0.267993591764    12.000000000000
         C            4.923561893453     7.078795304981    -0.270050072472    12.000000000000
         C            4.955603108594     5.643461991360    -0.270210485279    12.000000000000
         C            3.706797371473     4.941224736324    -0.265118925110    12.000000000000
         H           -3.658525300490     8.890841947126    -0.265032634048     1.007825032230
         H           -1.189217492488     8.874135615351    -0.261079223055     1.007825032230
         H            1.284290076155     8.860847963479    -0.261687131099     1.007825032230
         H            3.753537924068     8.851049806963    -0.266471067449     1.007825032230
         H            5.869954540475     7.613809362646    -0.270975439515     1.007825032230
         H           -5.788235870234     7.676316740925    -0.270644044586     1.007825032230
         C           -6.091978121428     4.993274541634    -0.271529348819    12.000000000000
         C           -6.128665643049     3.582594696789    -0.270328171791    12.000000000000
         C           -3.664583902777     3.564196707735    -0.273253266408    12.000000000000
         C           -4.894302367430     2.861095303891    -0.264084281423    12.000000000000
         C           -2.437339157630     2.847626185075    -0.261421487872    12.000000000000
         C           -1.209232020328     3.547901462969    -0.275100514664    12.000000000000
         C            1.247137409430     3.534695279420    -0.275909121069    12.000000000000
         C            0.015171876837     2.833126367296    -0.264224937844    12.000000000000
         C            2.467641009709     2.821304505246    -0.264124879721    12.000000000000
         C            3.702545311848     3.524674682415    -0.277612840563    12.000000000000
         C            6.144976223652     4.927586894122    -0.271443930491    12.000000000000
         C            6.166584196130     3.516599003933    -0.269277377054    12.000000000000
         C            4.924605795728     2.808422453345    -0.262738630817    12.000000000000
         H            7.089901346909     5.466902294214    -0.275205811341     1.007825032230
         H           -7.031045913833     5.542702480848    -0.275762563771     1.007825032230
         C           -7.339702203855     2.858426062570    -0.271955339232    12.000000000000
         C           -7.364886120791     1.470337899574    -0.270189801105    12.000000000000
         C           -4.903508771679     1.444441340151    -0.274906065297    12.000000000000
         C           -6.132261315343     0.739953885044    -0.262616021314    12.000000000000
         C           -3.676878963248     0.726711670664    -0.264278348897    12.000000000000
         C           -2.445660748797     1.429655661253    -0.274588059098    12.000000000000
         C           -1.223604844033     0.715339029625    -0.263158794567    12.000000000000
         C            0.007633706582     1.417397677228    -0.264693140849    12.000000000000
         C            1.231215645015     0.702131218578    -0.283519726505    12.000000000000
         C            2.460816937799     1.403306564116    -0.264015217615    12.000000000000
         C            3.684426091464     0.687212956203    -0.264844003892    12.000000000000
         C            4.918704738807     1.391749089180    -0.277245825527    12.000000000000
         C            7.369797915229     2.779496731175    -0.271037796847    12.000000000000
         C            7.380158503390     1.391232035846    -0.269491114001    12.000000000000
         C            6.139795376391     0.674133151191    -0.263162772190    12.000000000000
         H           -8.279194962078     3.407132569115    -0.276252891354     1.007825032230
         H            8.315109308748     3.318132624614    -0.275248372646     1.007825032230
         C           -8.591760100313     0.724847081035    -0.269849373487    12.000000000000
         C           -8.599028766435    -0.632625278238    -0.267726248904    12.000000000000
         C           -6.139817301850    -0.674122109163    -0.274715590239    12.000000000000
         C           -7.380188274869    -1.391251661591    -0.267299528698    12.000000000000
         C           -4.918688642988    -1.391740490039    -0.262375092090    12.000000000000
         C           -3.684442458416    -0.687222787745    -0.273407332154    12.000000000000
         C           -2.460821202979    -1.403330650834    -0.262864245965    12.000000000000
         C           -1.231166175052    -0.702159336890    -0.274984624757    12.000000000000
         C           -0.007573788119    -1.417404321420    -0.267528100453    12.000000000000
         C            1.223643553157    -0.715260849273    -0.257522478505    12.000000000000
         C            2.445666486600    -1.429628761016    -0.269272491264    12.000000000000
         C            3.676862540115    -0.726692903565    -0.273413075659    12.000000000000
         C            6.132244683688    -0.739964311859    -0.274941049872    12.000000000000
         C            4.903514982772    -1.444442992550    -0.261099975332    12.000000000000
         C            8.599010685959     0.632618394658    -0.269628997857    12.000000000000
         C            8.591741325369    -0.724836339203    -0.267892617596    12.000000000000
         C            7.364858601658    -1.470318137615    -0.268122794289    12.000000000000
         H           -9.528310134550     1.276861977183    -0.271319300451     1.007825032230
         H            9.541406811874     1.174587016435    -0.270681030119     1.007825032230
         C           -7.369842072500    -2.779530617943    -0.265491320276    12.000000000000
         C           -4.924603271782    -2.808422729350    -0.273222952713    12.000000000000
         C           -6.166626658399    -3.516637664835    -0.266921112553    12.000000000000
         C           -3.702514522437    -3.524667021130    -0.262898883527    12.000000000000
         C           -2.467651147846    -2.821311434813    -0.274943521883    12.000000000000
         C           -0.015137636839    -2.833127117409    -0.274661933374    12.000000000000
         C           -1.247126003958    -3.534717647572    -0.263097979966    12.000000000000
         C            1.209240906912    -3.547900150653    -0.260558950175    12.000000000000
         C            2.437331859423    -2.847627210185    -0.274698708486    12.000000000000
         C            4.894298181039    -2.861108440295    -0.273877968414    12.000000000000
         C            3.664611092309    -3.564205317541    -0.260998548474    12.000000000000
         C            6.128634852014    -3.582569529727    -0.267652706516    12.000000000000
         C            7.339668501964    -2.858398779380    -0.266137480435    12.000000000000
         H           -9.541453273991    -1.174548938674    -0.266356832731     1.007825032230
         H            9.528257705340    -1.276904545914    -0.266642809835     1.007825032230
         H           -8.315169206580    -3.318135325222    -0.261319091746     1.007825032230
         H            8.279150979760    -3.407126261903    -0.261797924452     1.007825032230
         C           -6.144998351434    -4.927632744793    -0.265595114493    12.000000000000
         C           -3.706787510729    -4.941247186127    -0.275416082581    12.000000000000
         C           -4.955594220733    -5.643479445504    -0.267448947936    12.000000000000
         C           -2.486125488958    -5.654771046419    -0.262476411537    12.000000000000
         C           -1.254062498212    -4.956107522011    -0.273652017523    12.000000000000
         C            1.201008411136    -4.969265860202    -0.272470893265    12.000000000000
         C           -0.030340837145    -5.669505775148    -0.264627693601    12.000000000000
         C            3.653745938597    -4.980729247424    -0.271712893517    12.000000000000
         C            2.425488533144    -5.681160107537    -0.262335962965    12.000000000000
         C            6.091961455079    -4.993243435396    -0.265358479843    12.000000000000
         C            4.894972281879    -5.696333892967    -0.266594675673    12.000000000000
         H           -7.089896550772    -5.466985314248    -0.261192352812     1.007825032230
         H            7.031051046468    -5.542644008342    -0.261778700079     1.007825032230
         C           -4.923549484930    -7.078806571687    -0.268003716841    12.000000000000
         C           -2.485346250970    -7.087713549939    -0.270513609277    12.000000000000
         C           -3.751690054511    -7.763932629646    -0.270318930352    12.000000000000
         C           -0.037953119720    -7.099450346479    -0.270297884130    12.000000000000
         C           -1.277960263133    -7.772889856676    -0.272282576891    12.000000000000
         C            2.409440157995    -7.114007484012    -0.269434683319    12.000000000000
         C            1.194745774421    -7.786170837572    -0.271586974200    12.000000000000
         C            4.847616889766    -7.131247582589    -0.266927868659    12.000000000000
         C            3.668467443144    -7.803773464953    -0.269276303023    12.000000000000
         H           -5.869944513148    -7.613816070051    -0.266459679976     1.007825032230
         H            5.788245462656    -7.676317661324    -0.265800749177     1.007825032230
         H           -3.753531102181    -8.851057041246    -0.272154844781     1.007825032230
         H           -1.284308568626    -8.860860864507    -0.276709960750     1.007825032230
         H            1.189217411964    -8.874146092599    -0.275679610891     1.007825032230
         H            3.658542452092    -8.890846106063    -0.270930844445     1.007825032230

  Running in c1 symmetry.

  Rotational constants: A =      0.00067  B =      0.00067  C =      0.00035 [cm^-1]
  Rotational constants: A =     20.03122  B =     20.02782  C =     10.55117 [MHz]
  Nuclear repulsion = 17674.493746135001857

  Charge       = -1
  Multiplicity = 1
  Electrons    = 642
  Nalpha       = 321
  Nbeta        = 321

  ==> Algorithm <==

  SCF Algorithm Type is DF.
  DIIS enabled.
  MOM disabled.
  Fractional occupation disabled.
  Guess Type is SAD.
  Energy threshold   = 1.00e-08
  Density threshold  = 1.00e-08
  Integral threshold = 1.00e-12

  ==> Primary Basis <==

  Basis Set: JUN-CC-PVDZ
    Blend: JUN-CC-PVDZ
    Number of shells: 880
    Number of basis functions: 1938
    Number of Cartesian functions: 2039
    Spherical Harmonics?: true
    Max angular momentum: 2

   => Loading Basis Set <=

    Name: (JUN-CC-PVDZ AUX)
    Role: JKFIT
    Keyword: DF_BASIS_SCF
    atoms 1                                                   entry B          line    90 file /opt/software/pc2/EB-SW/software/PSI4/1.9-foss-2022a/share/psi4/basis/jun-cc-pvdz-jkfit.gbs 
    atoms 2-5                                                 entry F          line   314 file /opt/software/pc2/EB-SW/software/PSI4/1.9-foss-2022a/share/psi4/basis/jun-cc-pvdz-jkfit.gbs 
    atoms 6-23, 30-42, 45-59, 62-78, 81-93, 98-108, 111-119   entry C          line   146 file /opt/software/pc2/EB-SW/software/PSI4/1.9-foss-2022a/share/psi4/basis/jun-cc-pvdz-jkfit.gbs 
    atoms 24-29, 43-44, 60-61, 79-80, 94-97, 109-110, 120-125 entry H          line    70 file /opt/software/pc2/EB-SW/software/PSI4/1.9-foss-2022a/share/psi4/basis/jun-cc-pvdz-jkfit.gbs 

  ==> Integral Setup <==

  ==> DiskDFJK: Density-Fitted J/K Matrices <==

    J tasked:                  Yes
    K tasked:                  Yes
    wK tasked:                  No
    OpenMP threads:             16
    Integrals threads:          16
    Memory [MiB]:            57220
    Algorithm:                Disk
    Integral Cache:           SAVE
    Schwarz Cutoff:          1E-12
    Fitting Condition:       1E-10

   => Auxiliary Basis Set <=

  Basis Set: (JUN-CC-PVDZ AUX)
    Blend: JUN-CC-PVDZ-JKFIT
    Number of shells: 2943
    Number of basis functions: 8531
    Number of Cartesian functions: 9791
    Spherical Harmonics?: true
    Max angular momentum: 3

  Minimum eigenvalue in the overlap matrix is 8.6910593004E-11.
  Reciprocal condition number of the overlap matrix is 3.6714572765E-12.
    Using canonical orthogonalization.
  Overall, 39 of 1938 possible MOs eliminated.


  ==> Pre-Iterations <==

  SCF Guess: Superposition of Atomic Densities via on-the-fly atomic UHF (no occupation information).

   -------------------------
    Irrep   Nso     Nmo    
   -------------------------
     A       1938    1899 
   -------------------------
    Total    1938    1899
   -------------------------

  ==> Iterations <==

                           Total Energy        Delta E     RMS |[F,P]|

   @DF-RHF iter SAD: -4085.08630320532848   -4.08509e+03   0.00000e+00 
   @DF-RHF iter   1: -4071.50853036394983    1.35778e+01   7.92587e-04 ADIIS/DIIS
   @DF-RHF iter   2: -4072.91638507304333   -1.40785e+00   3.12331e-04 ADIIS/DIIS
   @DF-RHF iter   3: -4073.08617822880751   -1.69793e-01   1.05039e-04 ADIIS/DIIS
   @DF-RHF iter   4: -4073.10919231757043   -2.30141e-02   4.07638e-05 DIIS
   @DF-RHF iter   5: -4073.11319026433193   -3.99795e-03   1.18599e-05 DIIS
   @DF-RHF iter   6: -4073.11369455417389   -5.04290e-04   4.61300e-06 DIIS
   @DF-RHF iter   7: -4073.11387735924154   -1.82805e-04   2.50355e-06 DIIS
   @DF-RHF iter   8: -4073.11393761405725   -6.02548e-05   1.25995e-06 DIIS
   @DF-RHF iter   9: -4073.11395844043136   -2.08264e-05   4.38373e-07 DIIS
   @DF-RHF iter  10: -4073.11395981629903   -1.37587e-06   1.80862e-07 DIIS
   @DF-RHF iter  11: -4073.11396003832624   -2.22027e-07   6.49314e-08 DIIS
   @DF-RHF iter  12: -4073.11396007673648   -3.84102e-08   3.50400e-08 DIIS
   @DF-RHF iter  13: -4073.11396008703105   -1.02946e-08   1.36727e-08 DIIS
   @DF-RHF iter  14: -4073.11396008880456   -1.77351e-09   7.95324e-09 DIIS
  Energy and wave function converged.


  ==> Post-Iterations <==

    Orbital Energies [Eh]
    ---------------------

    Doubly Occupied:                                                      

       1A    -26.086449     2A    -26.086347     3A    -26.086273  
       4A    -26.079642     5A    -11.198264     6A    -11.198261  
       7A    -11.198253     8A    -11.198247     9A    -11.198241  
      10A    -11.198236    11A    -11.198186    12A    -11.198184  
      13A    -11.198181    14A    -11.198173    15A    -11.198173  
      16A    -11.198170    17A    -11.197473    18A    -11.197449  
      19A    -11.197445    20A    -11.197369    21A    -11.197353  
      22A    -11.197348    23A    -11.194914    24A    -11.194913  
      25A    -11.194910    26A    -11.194910    27A    -11.194906  
      28A    -11.194903    29A    -11.194353    30A    -11.194344  
      31A    -11.194328    32A    -11.194238    33A    -11.194230  
      34A    -11.194158    35A    -11.194147    36A    -11.194046  
      37A    -11.194038    38A    -11.193916    39A    -11.193907  
      40A    -11.193854    41A    -11.193457    42A    -11.193456  
      43A    -11.193454    44A    -11.193453    45A    -11.193449  
      46A    -11.193447    47A    -11.193363    48A    -11.193301  
      49A    -11.193299    50A    -11.193174    51A    -11.193160  
      52A    -11.193104    53A    -11.192607    54A    -11.192546  
      55A    -11.192543    56A    -11.192425    57A    -11.192423  
      58A    -11.192342    59A    -11.192230    60A    -11.192183  
      61A    -11.192167    62A    -11.192098    63A    -11.192091  
      64A    -11.192074    65A    -11.190303    66A    -11.190270  
      67A    -11.190262    68A    -11.190234    69A    -11.190232  
      70A    -11.190219    71A    -11.190194    72A    -11.190181  
      73A    -11.190139    74A    -11.190138    75A    -11.190136  
      76A    -11.190133    77A    -11.190131    78A    -11.190124  
      79A    -11.190102    80A    -11.190038    81A    -11.190035  
      82A    -11.190009    83A    -11.189334    84A    -11.189270  
      85A    -11.189253    86A    -11.189134    87A    -11.189130  
      88A    -11.189073    89A    -11.187277    90A    -11.187239  
      91A    -11.187201    92A    -11.187063    93A    -11.186952  
      94A    -11.186928    95A    -11.185777    96A    -11.185384  
      97A    -11.185296    98A    -11.184374    99A    -11.184267  
     100A    -11.183808   101A     -7.556291   102A     -1.428760  
     103A     -1.370666   104A     -1.370504   105A     -1.365359  
     106A     -1.181599   107A     -1.170069   108A     -1.170065  
     109A     -1.153436   110A     -1.153429   111A     -1.144405  
     112A     -1.135577   113A     -1.129304   114A     -1.118346  
     115A     -1.118341   116A     -1.108670   117A     -1.108666  
     118A     -1.086937   119A     -1.086929   120A     -1.083206  
     121A     -1.080035   122A     -1.080032   123A     -1.061569  
     124A     -1.048366   125A     -1.047437   126A     -1.046414  
     127A     -1.043561   128A     -1.043542   129A     -1.021678  
     130A     -1.021661   131A     -1.012457   132A     -1.012455  
     133A     -0.999929   134A     -0.999899   135A     -0.996170  
     136A     -0.980789   137A     -0.980782   138A     -0.974203  
     139A     -0.974200   140A     -0.974145   141A     -0.957032  
     142A     -0.950691   143A     -0.950638   144A     -0.941819  
     145A     -0.939785   146A     -0.937164   147A     -0.932840  
     148A     -0.932794   149A     -0.927162   150A     -0.903758  
     151A     -0.903713   152A     -0.890529   153A     -0.890475  
     154A     -0.842063   155A     -0.842022   156A     -0.836618  
     157A     -0.836574   158A     -0.834026   159A     -0.822886  
     160A     -0.822826   161A     -0.822016   162A     -0.821433  
     163A     -0.821375   164A     -0.807631   165A     -0.806779  
     166A     -0.787010   167A     -0.780148   168A     -0.780130  
     169A     -0.776961   170A     -0.775898   171A     -0.768808  
     172A     -0.768796   173A     -0.764266   174A     -0.764263  
     175A     -0.721054   176A     -0.721037   177A     -0.715799  
     178A     -0.715780   179A     -0.714778   180A     -0.714758  
     181A     -0.714091   182A     -0.701232   183A     -0.692342  
     184A     -0.682831   185A     -0.669753   186A     -0.661203  
     187A     -0.661189   188A     -0.658690   189A     -0.658665  
     190A     -0.658660   191A     -0.649690   192A     -0.646202  
     193A     -0.646191   194A     -0.634568   195A     -0.634558  
     196A     -0.621391   197A     -0.621389   198A     -0.619926  
     199A     -0.617980   200A     -0.616858   201A     -0.616847  
     202A     -0.612871   203A     -0.588714   204A     -0.585637  
     205A     -0.585607   206A     -0.585098   207A     -0.582237  
     208A     -0.582222   209A     -0.575162   210A     -0.574632  
     211A     -0.573782   212A     -0.573755   213A     -0.569429  
     214A     -0.569397   215A     -0.563271   216A     -0.551016  
     217A     -0.550992   218A     -0.546801   219A     -0.546712  
     220A     -0.546628   221A     -0.544146   222A     -0.544143  
     223A     -0.542785   224A     -0.532742   225A     -0.531828  
     226A     -0.531718   227A     -0.531703   228A     -0.530715  
     229A     -0.530704   230A     -0.529880   231A     -0.529877  
     232A     -0.529664   233A     -0.524963   234A     -0.524961  
     235A     -0.523846   236A     -0.518651   237A     -0.515100  
     238A     -0.515089   239A     -0.508818   240A     -0.508802  
     241A     -0.508588   242A     -0.502441   243A     -0.502432  
     244A     -0.499215   245A     -0.499182   246A     -0.498066  
     247A     -0.497259   248A     -0.495062   249A     -0.491908  
     250A     -0.491889   251A     -0.487894   252A     -0.485534  
     253A     -0.485377   254A     -0.478316   255A     -0.468766  
     256A     -0.468758   257A     -0.467449   258A     -0.467404  
     259A     -0.463167   260A     -0.463139   261A     -0.462207  
     262A     -0.462193   263A     -0.459450   264A     -0.450838  
     265A     -0.450832   266A     -0.450619   267A     -0.450589  
     268A     -0.445412   269A     -0.445394   270A     -0.432288  
     271A     -0.430059   272A     -0.430020   273A     -0.427806  
     274A     -0.426152   275A     -0.426064   276A     -0.424834  
     277A     -0.424807   278A     -0.417173   279A     -0.416340  
     280A     -0.413424   281A     -0.413421   282A     -0.408774  
     283A     -0.404193   284A     -0.401796   285A     -0.401775  
     286A     -0.401728   287A     -0.399964   288A     -0.399954  
     289A     -0.391885   290A     -0.376864   291A     -0.376802  
     292A     -0.372603   293A     -0.371360   294A     -0.370593  
     295A     -0.370523   296A     -0.369795   297A     -0.340532  
     298A     -0.340510   299A     -0.322200   300A     -0.322193  
     301A     -0.317998   302A     -0.317947   303A     -0.313982  
     304A     -0.288236   305A     -0.288217   306A     -0.284057  
     307A     -0.269307   308A     -0.269303   309A     -0.266164  
     310A     -0.261867   311A     -0.261767   312A     -0.238778  
     313A     -0.235279   314A     -0.232654   315A     -0.232597  
     316A     -0.220521   317A     -0.194321   318A     -0.184401  
     319A     -0.184327   320A     -0.138031   321A     -0.137947  

    Virtual:                                                              

     322A      0.054064   323A      0.054145   324A      0.093703  
     325A      0.093722   326A      0.094353   327A      0.096067  
     328A      0.096224   329A      0.100956   330A      0.101488  
     331A      0.103283   332A      0.103361   333A      0.103958  
     334A      0.109452   335A      0.109459   336A      0.120739  
     337A      0.120746   338A      0.129747   339A      0.129908  
     340A      0.132340   341A      0.136122   342A      0.136410  
     343A      0.137096   344A      0.137990   345A      0.138037  
     346A      0.138426   347A      0.139286   348A      0.139765  
     349A      0.140329   350A      0.141939   351A      0.141942  
     352A      0.147490   353A      0.148170   354A      0.148261  
     355A      0.148603   356A      0.148629   357A      0.148643  
     358A      0.155280   359A      0.160720   360A      0.160740  
     361A      0.160768   362A      0.162627   363A      0.162755  
     364A      0.163469   365A      0.167500   366A      0.169486  
     367A      0.169624   368A      0.169992   369A      0.170322  
     370A      0.171274   371A      0.171829   372A      0.171930  
     373A      0.173381   374A      0.173501   375A      0.175804  
     376A      0.178410   377A      0.178440   378A      0.179744  
     379A      0.179758   380A      0.186299   381A      0.186304  
     382A      0.188913   383A      0.193762   384A      0.193931  
     385A      0.193989   386A      0.197402   387A      0.197413  
     388A      0.200261   389A      0.201870   390A      0.202009  
     391A      0.202483   392A      0.202652   393A      0.211101  
     394A      0.213533   395A      0.214589   396A      0.214995  
     397A      0.215012   398A      0.216405   399A      0.218053  
     400A      0.219460   401A      0.219625   402A      0.220067  
     403A      0.222116   404A      0.222149   405A      0.223118  
     406A      0.223919   407A      0.223960   408A      0.224820  
     409A      0.224881   410A      0.227842   411A      0.228167  
     412A      0.232913   413A      0.234332   414A      0.237385  
     415A      0.237397   416A      0.241546   417A      0.241762  
     418A      0.241875   419A      0.241990   420A      0.242097  
     421A      0.242283   422A      0.248514   423A      0.249636  
     424A      0.250436   425A      0.251791   426A      0.252974  
     427A      0.255832   428A      0.256045   429A      0.256232  
     430A      0.258274   431A      0.258406   432A      0.258493  
     433A      0.259628   434A      0.261043   435A      0.262195  
     436A      0.267471   437A      0.267601   438A      0.270340  
     439A      0.270508   440A      0.271088   441A      0.271131  
     442A      0.271692   443A      0.271902   444A      0.272532  
     445A      0.272753   446A      0.272970   447A      0.274012  
     448A      0.274409   449A      0.274437   450A      0.276451  
     451A      0.276956   452A      0.278067   453A      0.279759  
     454A      0.282973   455A      0.283747   456A      0.287186  
     457A      0.288374   458A      0.288556   459A      0.289908  
     460A      0.290475   461A      0.290521   462A      0.291127  
     463A      0.291855   464A      0.293254   465A      0.293387  
     466A      0.294976   467A      0.296024   468A      0.296047  
     469A      0.300375   470A      0.304104   471A      0.304113  
     472A      0.304748   473A      0.307127   474A      0.309030  
     475A      0.312934   476A      0.314492   477A      0.314546  
     478A      0.314886   479A      0.316697   480A      0.316878  
     481A      0.319027   482A      0.319301   483A      0.319370  
     484A      0.320380   485A      0.322609   486A      0.323104  
     487A      0.324274   488A      0.326405   489A      0.326548  
     490A      0.327592   491A      0.328769   492A      0.329094  
     493A      0.335869   494A      0.336638   495A      0.336658  
     496A      0.337232   497A      0.337695   498A      0.339796  
     499A      0.340153   500A      0.340207   501A      0.341028  
     502A      0.341302   503A      0.341568   504A      0.345456  
     505A      0.345802   506A      0.346543   507A      0.347890  
     508A      0.348524   509A      0.349492   510A      0.351626  
     511A      0.357391   512A      0.357423   513A      0.358978  
     514A      0.360209   515A      0.361107   516A      0.364366  
     517A      0.364463   518A      0.365109   519A      0.365659  
     520A      0.366318   521A      0.367104   522A      0.367198  
     523A      0.367729   524A      0.369929   525A      0.370015  
     526A      0.371208   527A      0.371281   528A      0.372998  
     529A      0.373223   530A      0.373816   531A      0.374386  
     532A      0.377591   533A      0.378398   534A      0.378732  
     535A      0.379233   536A      0.380408   537A      0.383582  
     538A      0.383724   539A      0.384805   540A      0.385003  
     541A      0.388023   542A      0.388198   543A      0.388612  
     544A      0.389295   545A      0.390388   546A      0.390542  
     547A      0.390704   548A      0.391437   549A      0.394830  
     550A      0.395356   551A      0.395519   552A      0.396893  
     553A      0.397170   554A      0.400279   555A      0.401240  
     556A      0.401262   557A      0.402474   558A      0.404454  
     559A      0.404515   560A      0.405920   561A      0.407755  
     562A      0.411134   563A      0.412010   564A      0.414245  
     565A      0.416849   566A      0.419884   567A      0.420140  
     568A      0.420256   569A      0.421297   570A      0.422039  
     571A      0.422155   572A      0.422824   573A      0.424648  
     574A      0.425080   575A      0.428398   576A      0.428551  
     577A      0.428864   578A      0.431472   579A      0.434303  
     580A      0.434316   581A      0.436324   582A      0.436879  
     583A      0.437055   584A      0.440420   585A      0.441001  
     586A      0.442638   587A      0.442685   588A      0.444079  
     589A      0.445031   590A      0.445602   591A      0.448973  
     592A      0.449048   593A      0.451525   594A      0.452437  
     595A      0.452581   596A      0.453400   597A      0.455655  
     598A      0.456301   599A      0.457687   600A      0.457771  
     601A      0.458032   602A      0.459070   603A      0.459251  
     604A      0.461520   605A      0.461620   606A      0.462942  
     607A      0.463658   608A      0.464444   609A      0.464623  
     610A      0.464981   611A      0.468166   612A      0.468813  
     613A      0.469922   614A      0.470379   615A      0.470459  
     616A      0.470522   617A      0.470587   618A      0.472471  
     619A      0.472570   620A      0.474041   621A      0.474417  
     622A      0.474465   623A      0.474976   624A      0.475400  
     625A      0.475556   626A      0.475701   627A      0.480117  
     628A      0.480180   629A      0.481335   630A      0.482958  
     631A      0.484251   632A      0.484768   633A      0.484882  
     634A      0.487155   635A      0.487330   636A      0.487598  
     637A      0.489659   638A      0.489739   639A      0.490167  
     640A      0.494807   641A      0.494841   642A      0.495274  
     643A      0.495342   644A      0.497731   645A      0.497779  
     646A      0.498361   647A      0.498736   648A      0.500094  
     649A      0.500403   650A      0.501825   651A      0.502020  
     652A      0.502391   653A      0.502606   654A      0.503642  
     655A      0.504140   656A      0.507630   657A      0.509028  
     658A      0.509759   659A      0.510649   660A      0.512057  
     661A      0.513255   662A      0.514327   663A      0.515421  
     664A      0.515449   665A      0.516399   666A      0.517038  
     667A      0.519071   668A      0.519208   669A      0.520111  
     670A      0.521621   671A      0.522582   672A      0.523767  
     673A      0.525243   674A      0.525903   675A      0.527364  
     676A      0.527507   677A      0.529319   678A      0.529897  
     679A      0.531362   680A      0.532776   681A      0.533581  
     682A      0.533932   683A      0.534699   684A      0.537081  
     685A      0.539020   686A      0.539179   687A      0.539905  
     688A      0.540694   689A      0.542647   690A      0.543465  
     691A      0.543971   692A      0.544535   693A      0.546526  
     694A      0.547246   695A      0.547783   696A      0.548384  
     697A      0.548903   698A      0.549122   699A      0.552572  
     700A      0.553360   701A      0.555861   702A      0.557175  
     703A      0.558349   704A      0.558634   705A      0.560135  
     706A      0.560598   707A      0.561214   708A      0.561945  
     709A      0.562302   710A      0.563539   711A      0.564935  
     712A      0.565077   713A      0.565338   714A      0.565905  
     715A      0.567846   716A      0.568654   717A      0.569443  
     718A      0.573212   719A      0.574303   720A      0.576468  
     721A      0.576997   722A      0.577952   723A      0.578841  
     724A      0.580790   725A      0.581881   726A      0.583104  
     727A      0.583458   728A      0.584387   729A      0.587370  
     730A      0.589445   731A      0.589555   732A      0.589964  
     733A      0.594692   734A      0.595152   735A      0.597250  
     736A      0.597826   737A      0.599182   738A      0.600228  
     739A      0.600276   740A      0.604129   741A      0.604313  
     742A      0.604492   743A      0.605242   744A      0.607719  
     745A      0.613789   746A      0.615165   747A      0.615682  
     748A      0.621844   749A      0.623967   750A      0.624606  
     751A      0.626654   752A      0.628203   753A      0.628853  
     754A      0.629432   755A      0.629661   756A      0.630404  
     757A      0.632080   758A      0.632742   759A      0.635060  
     760A      0.637044   761A      0.638317   762A      0.640401  
     763A      0.644342   764A      0.645224   765A      0.648509  
     766A      0.648830   767A      0.649802   768A      0.650982  
     769A      0.651731   770A      0.651764   771A      0.652096  
     772A      0.655152   773A      0.656275   774A      0.657613  
     775A      0.663931   776A      0.664458   777A      0.666087  
     778A      0.666497   779A      0.667334   780A      0.669197  
     781A      0.671230   782A      0.672500   783A      0.673902  
     784A      0.675521   785A      0.677434   786A      0.678547  
     787A      0.682648   788A      0.683073   789A      0.684783  
     790A      0.686655   791A      0.687347   792A      0.690403  
     793A      0.693392   794A      0.694282   795A      0.699397  
     796A      0.703183   797A      0.707443   798A      0.708408  
     799A      0.709026   800A      0.711394   801A      0.712701  
     802A      0.714756   803A      0.716361   804A      0.724135  
     805A      0.725392   806A      0.726241   807A      0.726329  
     808A      0.728725   809A      0.728749   810A      0.731646  
     811A      0.731989   812A      0.735651   813A      0.741638  
     814A      0.743229   815A      0.744910   816A      0.745672  
     817A      0.748130   818A      0.749470   819A      0.753130  
     820A      0.754773   821A      0.755426   822A      0.756149  
     823A      0.756938   824A      0.758622   825A      0.761928  
     826A      0.762084   827A      0.767459   828A      0.769263  
     829A      0.774682   830A      0.776816   831A      0.777152  
     832A      0.781747   833A      0.783533   834A      0.783590  
     835A      0.793197   836A      0.795788   837A      0.797158  
     838A      0.798289   839A      0.798976   840A      0.805071  
     841A      0.806199   842A      0.809180   843A      0.812092  
     844A      0.813418   845A      0.819876   846A      0.820530  
     847A      0.821369   848A      0.821902   849A      0.822828  
     850A      0.832382   851A      0.842752   852A      0.848327  
     853A      0.852748   854A      0.852952   855A      0.856017  
     856A      0.858208   857A      0.860680   858A      0.860973  
     859A      0.862461   860A      0.863466   861A      0.865820  
     862A      0.867860   863A      0.868585   864A      0.871339  
     865A      0.872153   866A      0.872221   867A      0.878086  
     868A      0.879252   869A      0.879873   870A      0.880344  
     871A      0.881987   872A      0.882616   873A      0.882790  
     874A      0.884441   875A      0.892154   876A      0.892789  
     877A      0.894745   878A      0.901875   879A      0.901958  
     880A      0.904112   881A      0.904874   882A      0.909429  
     883A      0.909603   884A      0.913754   885A      0.917445  
     886A      0.918469   887A      0.918979   888A      0.920076  
     889A      0.921856   890A      0.926663   891A      0.926828  
     892A      0.927264   893A      0.928781   894A      0.929904  
     895A      0.930289   896A      0.932083   897A      0.935852  
     898A      0.936747   899A      0.937233   900A      0.939435  
     901A      0.939716   902A      0.942098   903A      0.942318  
     904A      0.945905   905A      0.948774   906A      0.950025  
     907A      0.950931   908A      0.951415   909A      0.951677  
     910A      0.958379   911A      0.960076   912A      0.962950  
     913A      0.963539   914A      0.964740   915A      0.965736  
     916A      0.969660   917A      0.969863   918A      0.973752  
     919A      0.976483   920A      0.979286   921A      0.979755  
     922A      0.980973   923A      0.981399   924A      0.982807  
     925A      0.984036   926A      0.984196   927A      0.985059  
     928A      0.987834   929A      0.991694   930A      0.992365  
     931A      0.994803   932A      0.995284   933A      0.996478  
     934A      0.999217   935A      0.999317   936A      1.002358  
     937A      1.002733   938A      1.004015   939A      1.004951  
     940A      1.007888   941A      1.008362   942A      1.008738  
     943A      1.010946   944A      1.013375   945A      1.013651  
     946A      1.013792   947A      1.018289   948A      1.018552  
     949A      1.018928   950A      1.019192   951A      1.019888  
     952A      1.020277   953A      1.020718   954A      1.020818  
     955A      1.028674   956A      1.028748   957A      1.034089  
     958A      1.036282   959A      1.037505   960A      1.044670  
     961A      1.045716   962A      1.045976   963A      1.046160  
     964A      1.052419   965A      1.055974   966A      1.056498  
     967A      1.058737   968A      1.060312   969A      1.060615  
     970A      1.062099   971A      1.066614   972A      1.068463  
     973A      1.068792   974A      1.068963   975A      1.069873  
     976A      1.069957   977A      1.076558   978A      1.078916  
     979A      1.079926   980A      1.082526   981A      1.083322  
     982A      1.083914   983A      1.084103   984A      1.085846  
     985A      1.087075   986A      1.090567   987A      1.092031  
     988A      1.092421   989A      1.093558   990A      1.099104  
     991A      1.100998   992A      1.101588   993A      1.110200  
     994A      1.110287   995A      1.111770   996A      1.112693  
     997A      1.112982   998A      1.113981   999A      1.115938  
    1000A      1.116501  1001A      1.119308  1002A      1.119537  
    1003A      1.120288  1004A      1.120813  1005A      1.124013  
    1006A      1.124731  1007A      1.125182  1008A      1.127535  
    1009A      1.127746  1010A      1.129227  1011A      1.129483  
    1012A      1.129841  1013A      1.131101  1014A      1.133798  
    1015A      1.135090  1016A      1.135697  1017A      1.136020  
    1018A      1.136298  1019A      1.139645  1020A      1.140737  
    1021A      1.141432  1022A      1.142122  1023A      1.142776  
    1024A      1.143114  1025A      1.143284  1026A      1.143898  
    1027A      1.145649  1028A      1.145765  1029A      1.146034  
    1030A      1.146755  1031A      1.146949  1032A      1.148323  
    1033A      1.149459  1034A      1.150232  1035A      1.150303  
    1036A      1.150928  1037A      1.151152  1038A      1.151509  
    1039A      1.151862  1040A      1.153218  1041A      1.153700  
    1042A      1.155470  1043A      1.158866  1044A      1.159378  
    1045A      1.162363  1046A      1.164692  1047A      1.167824  
    1048A      1.168838  1049A      1.169016  1050A      1.169638  
    1051A      1.170377  1052A      1.171630  1053A      1.174229  
    1054A      1.175068  1055A      1.176023  1056A      1.176388  
    1057A      1.177822  1058A      1.184617  1059A      1.186347  
    1060A      1.190104  1061A      1.190187  1062A      1.190963  
    1063A      1.191357  1064A      1.195171  1065A      1.195360  
    1066A      1.197956  1067A      1.199141  1068A      1.200002  
    1069A      1.202165  1070A      1.203276  1071A      1.203373  
    1072A      1.205732  1073A      1.207007  1074A      1.212243  
    1075A      1.213938  1076A      1.217411  1077A      1.217798  
    1078A      1.218479  1079A      1.219436  1080A      1.219635  
    1081A      1.223447  1082A      1.224070  1083A      1.224772  
    1084A      1.225890  1085A      1.227378  1086A      1.227433  
    1087A      1.232243  1088A      1.237099  1089A      1.239523  
    1090A      1.239682  1091A      1.240199  1092A      1.241007  
    1093A      1.242941  1094A      1.246098  1095A      1.246730  
    1096A      1.248366  1097A      1.250466  1098A      1.252899  
    1099A      1.253866  1100A      1.254891  1101A      1.256964  
    1102A      1.259363  1103A      1.262733  1104A      1.263224  
    1105A      1.268798  1106A      1.269567  1107A      1.270872  
    1108A      1.272115  1109A      1.272190  1110A      1.273207  
    1111A      1.276973  1112A      1.278937  1113A      1.279133  
    1114A      1.279399  1115A      1.279510  1116A      1.280503  
    1117A      1.283734  1118A      1.291149  1119A      1.292708  
    1120A      1.293816  1121A      1.293915  1122A      1.297169  
    1123A      1.303540  1124A      1.304374  1125A      1.312741  
    1126A      1.317109  1127A      1.317678  1128A      1.319072  
    1129A      1.320687  1130A      1.320833  1131A      1.323839  
    1132A      1.327824  1133A      1.327970  1134A      1.331125  
    1135A      1.331593  1136A      1.332767  1137A      1.337549  
    1138A      1.338008  1139A      1.345963  1140A      1.346103  
    1141A      1.352337  1142A      1.353558  1143A      1.355946  
    1144A      1.356192  1145A      1.357581  1146A      1.358409  
    1147A      1.359597  1148A      1.359849  1149A      1.363078  
    1150A      1.368293  1151A      1.368914  1152A      1.370160  
    1153A      1.374718  1154A      1.377421  1155A      1.379224  
    1156A      1.379772  1157A      1.381997  1158A      1.382199  
    1159A      1.383482  1160A      1.386129  1161A      1.388519  
    1162A      1.390821  1163A      1.391545  1164A      1.392069  
    1165A      1.393595  1166A      1.393621  1167A      1.395978  
    1168A      1.397906  1169A      1.399852  1170A      1.401035  
    1171A      1.403256  1172A      1.403462  1173A      1.406969  
    1174A      1.407216  1175A      1.422661  1176A      1.422753  
    1177A      1.424877  1178A      1.425304  1179A      1.426601  
    1180A      1.427076  1181A      1.427272  1182A      1.427314  
    1183A      1.428917  1184A      1.428958  1185A      1.440791  
    1186A      1.440839  1187A      1.440962  1188A      1.441184  
    1189A      1.447639  1190A      1.452727  1191A      1.452986  
    1192A      1.453212  1193A      1.456916  1194A      1.457302  
    1195A      1.462790  1196A      1.463281  1197A      1.463557  
    1198A      1.471193  1199A      1.473658  1200A      1.474046  
    1201A      1.474793  1202A      1.475688  1203A      1.475876  
    1204A      1.476439  1205A      1.477932  1206A      1.484205  
    1207A      1.484296  1208A      1.487685  1209A      1.487946  
    1210A      1.495068  1211A      1.495775  1212A      1.497792  
    1213A      1.498147  1214A      1.498200  1215A      1.499267  
    1216A      1.499928  1217A      1.501603  1218A      1.507546  
    1219A      1.507969  1220A      1.508718  1221A      1.511342  
    1222A      1.511892  1223A      1.517903  1224A      1.522136  
    1225A      1.522342  1226A      1.523742  1227A      1.524817  
    1228A      1.525147  1229A      1.526480  1230A      1.533965  
    1231A      1.536161  1232A      1.537699  1233A      1.539625  
    1234A      1.540885  1235A      1.542105  1236A      1.543263  
    1237A      1.544986  1238A      1.550792  1239A      1.551587  
    1240A      1.551864  1241A      1.554562  1242A      1.559709  
    1243A      1.565420  1244A      1.565551  1245A      1.567485  
    1246A      1.576014  1247A      1.576147  1248A      1.577703  
    1249A      1.586298  1250A      1.587660  1251A      1.603105  
    1252A      1.603327  1253A      1.607057  1254A      1.614616  
    1255A      1.622413  1256A      1.622529  1257A      1.626508  
    1258A      1.649067  1259A      1.653428  1260A      1.657728  
    1261A      1.661362  1262A      1.667309  1263A      1.674199  
    1264A      1.674992  1265A      1.675309  1266A      1.676310  
    1267A      1.677636  1268A      1.678186  1269A      1.680607  
    1270A      1.681252  1271A      1.681371  1272A      1.684282  
    1273A      1.685179  1274A      1.685401  1275A      1.687115  
    1276A      1.687344  1277A      1.689176  1278A      1.691580  
    1279A      1.692085  1280A      1.694357  1281A      1.695907  
    1282A      1.697126  1283A      1.697829  1284A      1.700939  
    1285A      1.701326  1286A      1.703086  1287A      1.703815  
    1288A      1.705581  1289A      1.707111  1290A      1.707787  
    1291A      1.707993  1292A      1.708019  1293A      1.708325  
    1294A      1.710829  1295A      1.712725  1296A      1.713755  
    1297A      1.715431  1298A      1.715796  1299A      1.718450  
    1300A      1.718881  1301A      1.722159  1302A      1.722309  
    1303A      1.725184  1304A      1.725865  1305A      1.734426  
    1306A      1.735052  1307A      1.736262  1308A      1.737219  
    1309A      1.737421  1310A      1.737587  1311A      1.739307  
    1312A      1.740378  1313A      1.741625  1314A      1.742549  
    1315A      1.743004  1316A      1.748015  1317A      1.748356  
    1318A      1.753888  1319A      1.756331  1320A      1.759788  
    1321A      1.762488  1322A      1.764839  1323A      1.766052  
    1324A      1.766896  1325A      1.771357  1326A      1.773927  
    1327A      1.774070  1328A      1.779721  1329A      1.780832  
    1330A      1.781025  1331A      1.781731  1332A      1.785542  
    1333A      1.787607  1334A      1.790098  1335A      1.790594  
    1336A      1.793605  1337A      1.793696  1338A      1.795102  
    1339A      1.803861  1340A      1.813768  1341A      1.813977  
    1342A      1.815859  1343A      1.816132  1344A      1.824106  
    1345A      1.831310  1346A      1.832927  1347A      1.833626  
    1348A      1.845926  1349A      1.847991  1350A      1.849569  
    1351A      1.850061  1352A      1.873393  1353A      1.873611  
    1354A      1.877590  1355A      1.885357  1356A      1.888472  
    1357A      1.891546  1358A      1.891884  1359A      1.892270  
    1360A      1.892466  1361A      1.895384  1362A      1.899068  
    1363A      1.899436  1364A      1.900933  1365A      1.904510  
    1366A      1.911083  1367A      1.912486  1368A      1.914808  
    1369A      1.915632  1370A      1.916164  1371A      1.918905  
    1372A      1.919183  1373A      1.925776  1374A      1.926496  
    1375A      1.930835  1376A      1.930973  1377A      1.933220  
    1378A      1.933404  1379A      1.936703  1380A      1.937500  
    1381A      1.938368  1382A      1.939170  1383A      1.939281  
    1384A      1.944131  1385A      1.944586  1386A      1.948295  
    1387A      1.948984  1388A      1.950059  1389A      1.950562  
    1390A      1.952423  1391A      1.953315  1392A      1.956742  
    1393A      1.959624  1394A      1.968150  1395A      1.968278  
    1396A      1.970140  1397A      1.970693  1398A      1.974772  
    1399A      1.977348  1400A      1.984814  1401A      1.985210  
    1402A      1.989215  1403A      1.990695  1404A      1.991056  
    1405A      1.992734  1406A      1.996696  1407A      1.996762  
    1408A      1.999454  1409A      1.999567  1410A      2.003619  
    1411A      2.004202  1412A      2.004920  1413A      2.008567  
    1414A      2.009172  1415A      2.010802  1416A      2.011072  
    1417A      2.011205  1418A      2.012161  1419A      2.020576  
    1420A      2.022015  1421A      2.022816  1422A      2.022972  
    1423A      2.023285  1424A      2.028116  1425A      2.028612  
    1426A      2.031395  1427A      2.032947  1428A      2.034296  
    1429A      2.034931  1430A      2.036467  1431A      2.038764  
    1432A      2.043287  1433A      2.046752  1434A      2.049341  
    1435A      2.050451  1436A      2.054847  1437A      2.055003  
    1438A      2.055536  1439A      2.058870  1440A      2.059110  
    1441A      2.060350  1442A      2.064519  1443A      2.068486  
    1444A      2.068883  1445A      2.073108  1446A      2.073672  
    1447A      2.075274  1448A      2.075805  1449A      2.082533  
    1450A      2.083257  1451A      2.084646  1452A      2.085647  
    1453A      2.087581  1454A      2.087782  1455A      2.089242  
    1456A      2.089575  1457A      2.091100  1458A      2.094292  
    1459A      2.095244  1460A      2.095924  1461A      2.097810  
    1462A      2.099764  1463A      2.101762  1464A      2.102754  
    1465A      2.106870  1466A      2.108085  1467A      2.108650  
    1468A      2.110419  1469A      2.113586  1470A      2.118948  
    1471A      2.119684  1472A      2.120769  1473A      2.123272  
    1474A      2.124701  1475A      2.126149  1476A      2.127946  
    1477A      2.131859  1478A      2.132623  1479A      2.134468  
    1480A      2.135521  1481A      2.136292  1482A      2.137213  
    1483A      2.139607  1484A      2.142669  1485A      2.143077  
    1486A      2.144262  1487A      2.146315  1488A      2.147657  
    1489A      2.148374  1490A      2.149402  1491A      2.149924  
    1492A      2.152616  1493A      2.153205  1494A      2.153549  
    1495A      2.154001  1496A      2.154203  1497A      2.154719  
    1498A      2.156255  1499A      2.157994  1500A      2.160392  
    1501A      2.160431  1502A      2.161921  1503A      2.164474  
    1504A      2.164931  1505A      2.165686  1506A      2.168281  
    1507A      2.169137  1508A      2.174277  1509A      2.174998  
    1510A      2.175836  1511A      2.177887  1512A      2.182230  
    1513A      2.183172  1514A      2.183644  1515A      2.184409  
    1516A      2.186149  1517A      2.186783  1518A      2.188042  
    1519A      2.189012  1520A      2.190039  1521A      2.191327  
    1522A      2.192392  1523A      2.193585  1524A      2.196559  
    1525A      2.197184  1526A      2.199629  1527A      2.200616  
    1528A      2.202762  1529A      2.204079  1530A      2.206978  
    1531A      2.207506  1532A      2.208495  1533A      2.209262  
    1534A      2.212304  1535A      2.214350  1536A      2.215415  
    1537A      2.220923  1538A      2.223808  1539A      2.225992  
    1540A      2.226333  1541A      2.228127  1542A      2.228850  
    1543A      2.229165  1544A      2.229506  1545A      2.230356  
    1546A      2.235605  1547A      2.237573  1548A      2.238107  
    1549A      2.238532  1550A      2.242346  1551A      2.247482  
    1552A      2.248627  1553A      2.249010  1554A      2.252792  
    1555A      2.259919  1556A      2.261894  1557A      2.262797  
    1558A      2.263699  1559A      2.264863  1560A      2.265865  
    1561A      2.267132  1562A      2.267587  1563A      2.268067  
    1564A      2.268411  1565A      2.271898  1566A      2.272583  
    1567A      2.273065  1568A      2.275607  1569A      2.275898  
    1570A      2.282196  1571A      2.283494  1572A      2.283795  
    1573A      2.286872  1574A      2.288072  1575A      2.289706  
    1576A      2.290285  1577A      2.292751  1578A      2.293372  
    1579A      2.293784  1580A      2.295029  1581A      2.296881  
    1582A      2.298424  1583A      2.305526  1584A      2.306928  
    1585A      2.308307  1586A      2.311132  1587A      2.311382  
    1588A      2.311929  1589A      2.314911  1590A      2.315944  
    1591A      2.324752  1592A      2.326467  1593A      2.327439  
    1594A      2.331227  1595A      2.336102  1596A      2.338218  
    1597A      2.346516  1598A      2.347922  1599A      2.349603  
    1600A      2.350494  1601A      2.352141  1602A      2.356787  
    1603A      2.365094  1604A      2.365850  1605A      2.366990  
    1606A      2.369433  1607A      2.371740  1608A      2.375183  
    1609A      2.390862  1610A      2.390967  1611A      2.393555  
    1612A      2.394266  1613A      2.395266  1614A      2.395355  
    1615A      2.399899  1616A      2.401727  1617A      2.402757  
    1618A      2.403143  1619A      2.406295  1620A      2.408721  
    1621A      2.408956  1622A      2.409244  1623A      2.411107  
    1624A      2.411454  1625A      2.411712  1626A      2.416624  
    1627A      2.420632  1628A      2.421146  1629A      2.429114  
    1630A      2.442207  1631A      2.446587  1632A      2.450481  
    1633A      2.453733  1634A      2.454755  1635A      2.461856  
    1636A      2.466705  1637A      2.472779  1638A      2.474786  
    1639A      2.484545  1640A      2.486757  1641A      2.491960  
    1642A      2.494104  1643A      2.502849  1644A      2.508930  
    1645A      2.510381  1646A      2.521163  1647A      2.523397  
    1648A      2.530100  1649A      2.530452  1650A      2.533739  
    1651A      2.534039  1652A      2.536858  1653A      2.537215  
    1654A      2.555127  1655A      2.555516  1656A      2.564453  
    1657A      2.566615  1658A      2.571359  1659A      2.572147  
    1660A      2.574682  1661A      2.582180  1662A      2.605580  
    1663A      2.607405  1664A      2.607529  1665A      2.608054  
    1666A      2.608963  1667A      2.611210  1668A      2.612701  
    1669A      2.613815  1670A      2.617840  1671A      2.618736  
    1672A      2.626406  1673A      2.626614  1674A      2.630413  
    1675A      2.634172  1676A      2.637076  1677A      2.643836  
    1678A      2.646202  1679A      2.646634  1680A      2.650469  
    1681A      2.650882  1682A      2.651023  1683A      2.651825  
    1684A      2.654663  1685A      2.658381  1686A      2.666631  
    1687A      2.667116  1688A      2.678585  1689A      2.678854  
    1690A      2.679348  1691A      2.679637  1692A      2.683582  
    1693A      2.685227  1694A      2.699132  1695A      2.707297  
    1696A      2.707969  1697A      2.711676  1698A      2.712059  
    1699A      2.713079  1700A      2.716702  1701A      2.716822  
    1702A      2.717976  1703A      2.720662  1704A      2.721299  
    1705A      2.731142  1706A      2.733927  1707A      2.734150  
    1708A      2.734604  1709A      2.736439  1710A      2.741591  
    1711A      2.741765  1712A      2.743680  1713A      2.752196  
    1714A      2.754580  1715A      2.754752  1716A      2.757822  
    1717A      2.758465  1718A      2.758778  1719A      2.760340  
    1720A      2.762548  1721A      2.763504  1722A      2.774242  
    1723A      2.786928  1724A      2.793595  1725A      2.794440  
    1726A      2.795441  1727A      2.797454  1728A      2.797493  
    1729A      2.820034  1730A      2.833158  1731A      2.833808  
    1732A      2.846444  1733A      2.846872  1734A      2.849641  
    1735A      2.850134  1736A      2.868182  1737A      2.868344  
    1738A      2.870429  1739A      2.870483  1740A      2.874890  
    1741A      2.882363  1742A      2.883355  1743A      2.884234  
    1744A      2.884742  1745A      2.885152  1746A      2.889858  
    1747A      2.900168  1748A      2.900697  1749A      2.907747  
    1750A      2.910007  1751A      2.910234  1752A      2.910517  
    1753A      2.912963  1754A      2.933358  1755A      2.933794  
    1756A      2.936636  1757A      2.937358  1758A      2.938922  
    1759A      2.942060  1760A      2.968037  1761A      2.968818  
    1762A      2.980786  1763A      2.980982  1764A      2.990297  
    1765A      2.992812  1766A      2.993412  1767A      2.999651  
    1768A      2.999792  1769A      3.029183  1770A      3.029552  
    1771A      3.029795  1772A      3.040748  1773A      3.057590  
    1774A      3.058443  1775A      3.095296  1776A      3.096266  
    1777A      3.100171  1778A      3.103038  1779A      3.112093  
    1780A      3.114570  1781A      3.114998  1782A      3.119385  
    1783A      3.124923  1784A      3.124976  1785A      3.139052  
    1786A      3.145628  1787A      3.169428  1788A      3.170113  
    1789A      3.176960  1790A      3.189134  1791A      3.194394  
    1792A      3.194805  1793A      3.195601  1794A      3.196223  
    1795A      3.202661  1796A      3.203677  1797A      3.206227  
    1798A      3.206822  1799A      3.216902  1800A      3.217486  
    1801A      3.217850  1802A      3.222012  1803A      3.222139  
    1804A      3.224585  1805A      3.235937  1806A      3.237804  
    1807A      3.241985  1808A      3.242289  1809A      3.257018  
    1810A      3.257530  1811A      3.282768  1812A      3.318893  
    1813A      3.322922  1814A      3.326596  1815A      3.328455  
    1816A      3.330042  1817A      3.331357  1818A      3.335561  
    1819A      3.337633  1820A      3.340266  1821A      3.340884  
    1822A      3.360079  1823A      3.364973  1824A      3.365466  
    1825A      3.370984  1826A      3.376944  1827A      3.431946  
    1828A      3.432497  1829A      3.450888  1830A      3.486721  
    1831A      3.503155  1832A      3.506492  1833A      3.525596  
    1834A      3.530266  1835A      3.530589  1836A      3.534963  
    1837A      3.540412  1838A      3.543005  1839A      3.545324  
    1840A      3.555622  1841A      3.559862  1842A      3.563697  
    1843A      3.578285  1844A      3.587674  1845A      3.620976  
    1846A      3.645189  1847A      3.646591  1848A      3.655019  
    1849A      3.656782  1850A      3.713618  1851A      3.719124  
    1852A      3.735967  1853A      3.737655  1854A      3.775073  
    1855A      3.818898  1856A      3.821540  1857A      3.823517  
    1858A      3.836878  1859A      3.843502  1860A      3.859947  
    1861A      3.908740  1862A      3.912865  1863A      3.938578  
    1864A      3.941895  1865A      3.981163  1866A      3.986389  
    1867A      4.015199  1868A      4.015445  1869A      4.018668  
    1870A      4.020878  1871A      4.037705  1872A      4.041566  
    1873A      4.046648  1874A      4.094836  1875A      4.097955  
    1876A      4.147791  1877A      4.157870  1878A      4.160840  
    1879A      4.163575  1880A      4.189652  1881A      4.193498  
    1882A      4.194608  1883A      4.196982  1884A      4.198339  
    1885A      4.244597  1886A      4.245919  1887A      4.251195  
    1888A      4.332275  1889A      4.394803  1890A      4.433504  
    1891A      4.436781  1892A      4.449149  1893A      4.508277  
    1894A      4.645724  1895A      4.645730  1896A      4.668876  
    1897A      4.740877  1898A      4.775295  1899A      4.775637  

    Final Occupation by Irrep:
              A 
    DOCC [   321 ]
    NA   [   321 ]
    NB   [   321 ]

  @DF-RHF Final Energy: -4073.11396008880456

   => Energetics <=

    Nuclear Repulsion Energy =          17674.4937461350018566
    One-Electron Energy =              -40837.6872967843373772
    Two-Electron Energy =               19090.0795905605300504
    Total Energy =                      -4073.1139600888054701

Computation Completed


Properties will be evaluated at   0.000000,   0.000000,   0.000000 [a0]

Properties computed using the SCF density matrix


 Multipole Moments:

 ------------------------------------------------------------------------------------
     Multipole            Electronic (a.u.)      Nuclear  (a.u.)        Total (a.u.)
 ------------------------------------------------------------------------------------

 L = 1.  Multiply by 2.5417464519 to convert [e a0] to [Debye]
 Dipole X            :          0.0011448           -0.0000548            0.0010900
 Dipole Y            :          0.0013635           -0.0002464            0.0011171
 Dipole Z            :         17.8463475          -23.2098590           -5.3635115
 Magnitude           :                                                    5.3635118

 ------------------------------------------------------------------------------------

*** tstop() called on n2cn0586 at Wed Feb  7 20:49:03 2024
Module time:
	user time   =   23616.56 seconds =     393.61 minutes
	system time =    1565.54 seconds =      26.09 minutes
	total time  =       3305 seconds =      55.08 minutes
Total time:
	user time   =   23616.56 seconds =     393.61 minutes
	system time =    1565.54 seconds =      26.09 minutes
	total time  =       3305 seconds =      55.08 minutes

  //>>>>>>>>>>>>>>>>>>>>>>>>>>>>>>>>>>>//
  //            Monomer A HF           //
  //<<<<<<<<<<<<<<<<<<<<<<<<<<<<<<<<<<<//

   => Libint2 <=

    Primary   basis highest AM E, G, H:  5, 4, 3
    Auxiliary basis highest AM E, G, H:  6, 5, 4
    Onebody   basis highest AM E, G, H:  6, 5, 4
    Solid Harmonics ordering:            gaussian

*** tstart() called on n2cn0586
*** at Wed Feb  7 20:49:03 2024

   => Loading Basis Set <=

    Name: JUN-CC-PVDZ
    Role: ORBITAL
    Keyword: BASIS
    atoms 1                                                   entry B          line   130 file /opt/software/pc2/EB-SW/software/PSI4/1.9-foss-2022a/share/psi4/basis/jun-cc-pvdz.gbs 
    atoms 2-5                                                 entry F          line   266 file /opt/software/pc2/EB-SW/software/PSI4/1.9-foss-2022a/share/psi4/basis/jun-cc-pvdz.gbs 
    atoms 6-23, 30-42, 45-59, 62-78, 81-93, 98-108, 111-119   entry C          line   164 file /opt/software/pc2/EB-SW/software/PSI4/1.9-foss-2022a/share/psi4/basis/jun-cc-pvdz.gbs 
    atoms 24-29, 43-44, 60-61, 79-80, 94-97, 109-110, 120-125 entry H          line    36 file /opt/software/pc2/EB-SW/software/PSI4/1.9-foss-2022a/share/psi4/basis/jun-cc-pvdz.gbs 


         ---------------------------------------------------------
                                   SCF
               by Justin Turney, Rob Parrish, Andy Simmonett
                          and Daniel G. A. Smith
                              RHF Reference
                       16 Threads,  76293 MiB Core
         ---------------------------------------------------------

  ==> Geometry <==

    Molecular point group: c1
    Full point group: C1

    Geometry (in Angstrom), charge = -1, multiplicity = 1:

       Center              X                  Y                   Z               Mass       
    ------------   -----------------  -----------------  -----------------  -----------------
         B           -0.000201921932     0.000288800891     3.631416336367    11.009305360000
         F           -0.000004162732     0.000014527991     5.044201336367    18.998403162730
         F            1.147855837268     0.675795727991     3.160275336367    18.998403162730
         F            0.011913897268    -1.331996472009     3.160477336367    18.998403162730
         F           -1.159670162732     0.656088027991     3.160556336367    18.998403162730
      Gh(C)          -3.668445426752     7.803766698073    -0.266717622298    12.000000000000
      Gh(C)          -4.847602882078     7.131256359331    -0.269084197230    12.000000000000
      Gh(C)          -4.894963461907     5.696344931522    -0.269657108329    12.000000000000
      Gh(C)          -3.653744841505     4.980744868950    -0.261996666599    12.000000000000
      Gh(C)          -2.409429284226     7.113995564665    -0.266523280038    12.000000000000
      Gh(C)          -2.425481506836     5.681136478894    -0.273528168908    12.000000000000
      Gh(C)          -1.194748179167     7.786158722300    -0.265051099496    12.000000000000
      Gh(C)           0.037954866205     7.099436173748    -0.267221803801    12.000000000000
      Gh(C)           0.030328424687     5.669504087695    -0.272705188716    12.000000000000
      Gh(C)          -1.200988670637     4.969284875906    -0.263735454783    12.000000000000
      Gh(C)           1.277953663083     7.772873971185    -0.265845955240    12.000000000000
      Gh(C)           2.485353921992     7.087711413228    -0.268120443145    12.000000000000
      Gh(C)           2.486124522185     5.654785338231    -0.275058192133    12.000000000000
      Gh(C)           1.254078756912     4.956092641655    -0.263430250544    12.000000000000
      Gh(C)           3.751710428674     7.763926678971    -0.267993591764    12.000000000000
      Gh(C)           4.923561893453     7.078795304981    -0.270050072472    12.000000000000
      Gh(C)           4.955603108594     5.643461991360    -0.270210485279    12.000000000000
      Gh(C)           3.706797371473     4.941224736324    -0.265118925110    12.000000000000
      Gh(H)          -3.658525300490     8.890841947126    -0.265032634048     1.007825032230
      Gh(H)          -1.189217492488     8.874135615351    -0.261079223055     1.007825032230
      Gh(H)           1.284290076155     8.860847963479    -0.261687131099     1.007825032230
      Gh(H)           3.753537924068     8.851049806963    -0.266471067449     1.007825032230
      Gh(H)           5.869954540475     7.613809362646    -0.270975439515     1.007825032230
      Gh(H)          -5.788235870234     7.676316740925    -0.270644044586     1.007825032230
      Gh(C)          -6.091978121428     4.993274541634    -0.271529348819    12.000000000000
[...]
    1504A      2.121809  1505A      2.125995  1506A      2.127856  
    1507A      2.128344  1508A      2.129516  1509A      2.130381  
    1510A      2.130915  1511A      2.133171  1512A      2.134050  
    1513A      2.140381  1514A      2.140639  1515A      2.143242  
    1516A      2.143288  1517A      2.144320  1518A      2.144457  
    1519A      2.145630  1520A      2.150790  1521A      2.153635  
    1522A      2.158384  1523A      2.159275  1524A      2.159546  
    1525A      2.161121  1526A      2.161227  1527A      2.162004  
    1528A      2.162773  1529A      2.163464  1530A      2.164326  
    1531A      2.168618  1532A      2.172163  1533A      2.172753  
    1534A      2.181046  1535A      2.182376  1536A      2.183377  
    1537A      2.183757  1538A      2.191935  1539A      2.192014  
    1540A      2.192594  1541A      2.194197  1542A      2.195939  
    1543A      2.198916  1544A      2.200429  1545A      2.201062  
    1546A      2.201694  1547A      2.202881  1548A      2.203554  
    1549A      2.204725  1550A      2.210210  1551A      2.210691  
    1552A      2.211341  1553A      2.214540  1554A      2.218504  
    1555A      2.219317  1556A      2.220342  1557A      2.222931  
    1558A      2.224132  1559A      2.225908  1560A      2.226107  
    1561A      2.228485  1562A      2.229880  1563A      2.232112  
    1564A      2.233029  1565A      2.235717  1566A      2.239442  
    1567A      2.240056  1568A      2.240259  1569A      2.243844  
    1570A      2.248224  1571A      2.248616  1572A      2.255040  
    1573A      2.256163  1574A      2.263390  1575A      2.266290  
    1576A      2.267382  1577A      2.270949  1578A      2.272283  
    1579A      2.272477  1580A      2.281305  1581A      2.283434  
    1582A      2.284356  1583A      2.292725  1584A      2.294007  
    1585A      2.297003  1586A      2.297453  1587A      2.304603  
    1588A      2.304930  1589A      2.310589  1590A      2.323677  
    1591A      2.325324  1592A      2.325948  1593A      2.327988  
    1594A      2.329396  1595A      2.330603  1596A      2.330873  
    1597A      2.332811  1598A      2.333850  1599A      2.335353  
    1600A      2.337346  1601A      2.341184  1602A      2.342265  
    1603A      2.342491  1604A      2.343209  1605A      2.345317  
    1606A      2.346040  1607A      2.346276  1608A      2.349213  
    1609A      2.349715  1610A      2.369986  1611A      2.374490  
    1612A      2.376569  1613A      2.385106  1614A      2.388227  
    1615A      2.392909  1616A      2.397483  1617A      2.401323  
    1618A      2.402850  1619A      2.418887  1620A      2.420278  
    1621A      2.424789  1622A      2.428080  1623A      2.432828  
    1624A      2.442812  1625A      2.444281  1626A      2.453247  
    1627A      2.454602  1628A      2.464894  1629A      2.465024  
    1630A      2.468357  1631A      2.468579  1632A      2.472016  
    1633A      2.472305  1634A      2.491226  1635A      2.491624  
    1636A      2.496826  1637A      2.502308  1638A      2.507386  
    1639A      2.508541  1640A      2.511902  1641A      2.516650  
    1642A      2.539924  1643A      2.540367  1644A      2.540460  
    1645A      2.543034  1646A      2.543908  1647A      2.546111  
    1648A      2.547963  1649A      2.549372  1650A      2.550202  
    1651A      2.552769  1652A      2.556782  1653A      2.556936  
    1654A      2.564383  1655A      2.571552  1656A      2.571877  
    1657A      2.581196  1658A      2.584644  1659A      2.585073  
    1660A      2.585741  1661A      2.587023  1662A      2.589139  
    1663A      2.589240  1664A      2.593297  1665A      2.593775  
    1666A      2.601951  1667A      2.602296  1668A      2.613328  
    1669A      2.613964  1670A      2.614584  1671A      2.614948  
    1672A      2.617816  1673A      2.619367  1674A      2.632872  
    1675A      2.641515  1676A      2.642361  1677A      2.645765  
    1678A      2.646062  1679A      2.648958  1680A      2.649783  
    1681A      2.650410  1682A      2.654036  1683A      2.656519  
    1684A      2.656946  1685A      2.666242  1686A      2.666840  
    1687A      2.667991  1688A      2.671016  1689A      2.671341  
    1690A      2.674223  1691A      2.679324  1692A      2.679391  
    1693A      2.685700  1694A      2.687675  1695A      2.688082  
    1696A      2.691507  1697A      2.691936  1698A      2.693103  
    1699A      2.694407  1700A      2.696483  1701A      2.697682  
    1702A      2.705548  1703A      2.723205  1704A      2.730252  
    1705A      2.730960  1706A      2.731554  1707A      2.731698  
    1708A      2.732247  1709A      2.755058  1710A      2.761858  
    1711A      2.762318  1712A      2.775298  1713A      2.776482  
    1714A      2.781743  1715A      2.781759  1716A      2.799616  
    1717A      2.800061  1718A      2.802263  1719A      2.802379  
    1720A      2.803319  1721A      2.810676  1722A      2.811733  
    1723A      2.815081  1724A      2.816955  1725A      2.817758  
    1726A      2.818041  1727A      2.829238  1728A      2.829565  
    1729A      2.840404  1730A      2.842501  1731A      2.842683  
    1732A      2.844057  1733A      2.845947  1734A      2.852764  
    1735A      2.864863  1736A      2.865023  1737A      2.869395  
    1738A      2.870884  1739A      2.871551  1740A      2.875634  
    1741A      2.891337  1742A      2.892506  1743A      2.896140  
    1744A      2.897041  1745A      2.917976  1746A      2.918153  
    1747A      2.920325  1748A      2.927700  1749A      2.930680  
    1750A      2.936279  1751A      2.936343  1752A      2.964226  
    1753A      2.966546  1754A      2.967157  1755A      2.976515  
    1756A      2.993011  1757A      2.993742  1758A      3.030639  
    1759A      3.031163  1760A      3.036646  1761A      3.039499  
    1762A      3.048318  1763A      3.048911  1764A      3.049059  
    1765A      3.057993  1766A      3.058024  1767A      3.065823  
    1768A      3.073177  1769A      3.109859  1770A      3.113454  
    1771A      3.113666  1772A      3.123499  1773A      3.129206  
    1774A      3.129425  1775A      3.135409  1776A      3.136850  
    1777A      3.142640  1778A      3.143412  1779A      3.150043  
    1780A      3.150440  1781A      3.151703  1782A      3.152100  
    1783A      3.154327  1784A      3.162196  1785A      3.168196  
    1786A      3.173300  1787A      3.176302  1788A      3.176590  
    1789A      3.193721  1790A      3.194339  1791A      3.220387  
    1792A      3.254708  1793A      3.260703  1794A      3.262196  
    1795A      3.262802  1796A      3.263081  1797A      3.265224  
    1798A      3.269957  1799A      3.272784  1800A      3.275537  
    1801A      3.276065  1802A      3.298053  1803A      3.298430  
    1804A      3.302728  1805A      3.309787  1806A      3.362588  
    1807A      3.363366  1808A      3.379317  1809A      3.417813  
    1810A      3.433166  1811A      3.436120  1812A      3.443886  
    1813A      3.453987  1814A      3.458437  1815A      3.465739  
    1816A      3.468138  1817A      3.473736  1818A      3.476460  
    1819A      3.478093  1820A      3.488215  1821A      3.488989  
    1822A      3.509286  1823A      3.514284  1824A      3.548204  
    1825A      3.576213  1826A      3.577715  1827A      3.585690  
    1828A      3.590725  1829A      3.643534  1830A      3.649357  
    1831A      3.668567  1832A      3.670274  1833A      3.706619  
    1834A      3.749628  1835A      3.754263  1836A      3.755940  
    1837A      3.765744  1838A      3.778683  1839A      3.785742  
    1840A      3.843341  1841A      3.845733  1842A      3.872337  
    1843A      3.875557  1844A      3.914524  1845A      3.919361  
    1846A      3.945949  1847A      3.947744  1848A      3.949096  
    1849A      3.950361  1850A      3.966997  1851A      3.970636  
    1852A      3.976413  1853A      4.024839  1854A      4.027648  
    1855A      4.079502  1856A      4.236092  1857A      4.307684  
    1858A      4.358200  1859A      4.385201  1860A      4.434514  
    1861A      4.464120  1862A      4.467795  1863A      5.759783  
    1864A      5.759944  1865A      5.760422  1866A      5.767109  
    1867A      5.767231  1868A      5.768749  1869A      5.769670  
    1870A      5.770205  1871A      5.810587  1872A      5.812307  
    1873A      5.818291  1874A      6.026915  1875A      6.027254  
    1876A      6.029461  1877A      6.205714  1878A      6.332470  
    1879A      6.332782  1880A      6.389896  1881A      6.390211  
    1882A      6.397545  1883A      7.291317  1884A      7.292266  
    1885A      7.307048  1886A      7.317087  1887A      7.340343  
    1888A      7.358222  1889A      7.361340  1890A      7.465475  
    1891A      7.555624  1892A      7.630592  1893A      7.631863  
    1894A      7.796103  1895A     12.694709  1896A     42.937882  
    1897A     42.959301  1898A     42.959425  1899A     42.966842  

    Final Occupation by Irrep:
              A 
    DOCC [   300 ]
    NA   [   300 ]
    NB   [   300 ]

  @DF-RHF Final Energy: -3650.34007456756899

   => Energetics <=

    Nuclear Repulsion Energy =          15611.4211649754324753
    One-Electron Energy =              -36072.1474527399695944
    Two-Electron Energy =               16810.3862131969690381
    Total Energy =                      -3650.3400745675680810

Computation Completed


Properties will be evaluated at   0.000000,   0.000000,   0.000000 [a0]

Properties computed using the SCF density matrix


 Multipole Moments:

 ------------------------------------------------------------------------------------
     Multipole            Electronic (a.u.)      Nuclear  (a.u.)        Total (a.u.)
 ------------------------------------------------------------------------------------

 L = 1.  Multiply by 2.5417464519 to convert [e a0] to [Debye]
 Dipole X            :         -0.0002641            0.0002304           -0.0000336
 Dipole Y            :          0.0012578           -0.0013052           -0.0000474
 Dipole Z            :        304.5635138         -304.5648981           -0.0013843
 Magnitude           :                                                    0.0013855

 ------------------------------------------------------------------------------------

*** tstop() called on n2cn0586 at Wed Feb  7 21:35:56 2024
Module time:
	user time   =   16449.98 seconds =     274.17 minutes
	system time =    1187.34 seconds =      19.79 minutes
	total time  =       1980 seconds =      33.00 minutes
Total time:
	user time   =   43981.87 seconds =     733.03 minutes
	system time =    3104.06 seconds =      51.73 minutes
	total time  =       6118 seconds =     101.97 minutes
  Constructing Basis Sets for SAPT...

   => Loading Basis Set <=

    Name: (JUN-CC-PVDZ AUX)
    Role: RIFIT
    Keyword: DF_BASIS_SAPT
    atoms 1                                                   entry B          line    56 file /opt/software/pc2/EB-SW/software/PSI4/1.9-foss-2022a/share/psi4/basis/jun-cc-pvdz-ri.gbs 
    atoms 2-5                                                 entry F          line   232 file /opt/software/pc2/EB-SW/software/PSI4/1.9-foss-2022a/share/psi4/basis/jun-cc-pvdz-ri.gbs 
    atoms 6-23, 30-42, 45-59, 62-78, 81-93, 98-108, 111-119   entry C          line   100 file /opt/software/pc2/EB-SW/software/PSI4/1.9-foss-2022a/share/psi4/basis/jun-cc-pvdz-ri.gbs 
    atoms 24-29, 43-44, 60-61, 79-80, 94-97, 109-110, 120-125 entry H          line    30 file /opt/software/pc2/EB-SW/software/PSI4/1.9-foss-2022a/share/psi4/basis/jun-cc-pvdz-ri.gbs 

   => Loading Basis Set <=

    Name: (JUN-CC-PVDZ AUX)
    Role: JKFIT
    Keyword: DF_BASIS_ELST
    atoms 1                                                   entry B          line    90 file /opt/software/pc2/EB-SW/software/PSI4/1.9-foss-2022a/share/psi4/basis/jun-cc-pvdz-jkfit.gbs 
    atoms 2-5                                                 entry F          line   314 file /opt/software/pc2/EB-SW/software/PSI4/1.9-foss-2022a/share/psi4/basis/jun-cc-pvdz-jkfit.gbs 
    atoms 6-23, 30-42, 45-59, 62-78, 81-93, 98-108, 111-119   entry C          line   146 file /opt/software/pc2/EB-SW/software/PSI4/1.9-foss-2022a/share/psi4/basis/jun-cc-pvdz-jkfit.gbs 
    atoms 24-29, 43-44, 60-61, 79-80, 94-97, 109-110, 120-125 entry H          line    70 file /opt/software/pc2/EB-SW/software/PSI4/1.9-foss-2022a/share/psi4/basis/jun-cc-pvdz-jkfit.gbs 


  //>>>>>>>>>>>>>>>>>>>>>>>>>>>>>>>>>>>//
  //               SSAPT0              //
  //<<<<<<<<<<<<<<<<<<<<<<<<<<<<<<<<<<<//


*** tstart() called on n2cn0586
*** at Wed Feb  7 21:35:57 2024

        SAPT0  
    Ed Hohenstein
     6 June 2009

      Orbital Information
  --------------------------
    NSO        =      1938
    NMO        =      1899
    NRI        =      6901
    NRI (Elst) =      8531
    NOCC A     =        21
    NOCC B     =       300
    FOCC A     =         5
    FOCC B     =        96
    NVIR A     =      1878
    NVIR B     =      1599

    Elst10,r            =     0.011395231160 [Eh]
    Exch10              =     0.003165610609 [Eh]
    Exch10 (S^2)        =     0.003165278389 [Eh]

    Iter     Energy [mEh]          dE [mEh]         Residual      Time [s]
       1      -0.24350484       0.243504838       2.076864175            97
       2      -0.29773683       0.054231992       0.625680852           180
       3      -0.29974403       0.002007199       0.115903891           265
       4      -0.29908997      -0.000654055       0.029121095           370
       5      -0.29911621       0.000026238       0.010749495           539
       6      -0.29913877       0.000022560       0.002271055           642
       7      -0.29913913       0.000000356       0.000423182           747
       8      -0.29913817      -0.000000952       0.000088518           847
       9      -0.29913822       0.000000044       0.000023250           948
      10      -0.29913825       0.000000032       0.000003120          1052
      11      -0.29913824      -0.000000006       0.000000615          1174

    CHF Iterations converged


    Iter     Energy [mEh]          dE [mEh]         Residual      Time [s]
       1     -24.11461707      24.114617066      84.809095890           116
       2     -15.44125088      -8.673366185      10.245067825           231
       3     -15.34451950      -0.096731385       3.294535662           343
       4     -15.59837853       0.253859034       1.160409930           454
       5     -15.64083878       0.042460248       0.405411812           563
       6     -15.63244665      -0.008392131       0.266618210           676
       7     -15.62464291      -0.007803739       0.107889203           794
       8     -15.62566221       0.001019304       0.050411266           942
       9     -15.62735661       0.001694395       0.029297325          1089
      10     -15.62704718      -0.000309427       0.027747807          1211
      11     -15.62659918      -0.000448005       0.012012329          1337
      12     -15.62665003       0.000050858       0.005675680          1472
      13     -15.62672624       0.000076207       0.002046142          1588
      14     -15.62674030       0.000014056       0.000783078          1711
      15     -15.62673391      -0.000006384       0.000478825          1827
      16     -15.62672452      -0.000009396       0.000283847          1940
      17     -15.62672890       0.000004389       0.000144551          2059
      18     -15.62673057       0.000001666       0.000047552          2166
      19     -15.62673021      -0.000000361       0.000023127          2278
      20     -15.62672977      -0.000000438       0.000009498          2392
      21     -15.62672984       0.000000070       0.000005174          2502
      22     -15.62672991       0.000000066       0.000002498          2618
      23     -15.62672989      -0.000000014       0.000001143          2759
      24     -15.62672988      -0.000000014       0.000000618          2879

    CHF Iterations converged

    Ind20,r (A<-B)      =    -0.000299138245 [Eh]
    Ind20,r (B<-A)      =    -0.015626729880 [Eh]
    Ind20,r             =    -0.015925868125 [Eh]
    Exch-Ind20,r (A<-B) =     0.000269137637 [Eh]
    Exch-Ind20,r (B<-A) =     0.000531605676 [Eh]
    Exch-Ind20,r        =     0.000800743313 [Eh]
    Disp20              =    -0.007943882374 [Eh]
    Disp20 (SS)         =    -0.003971941187 [Eh]
    Disp20 (OS)         =    -0.003971941187 [Eh]
    Exch-Disp20         =     0.000550743156 [Eh]
    Exch-Disp20 (SS)    =     0.000339956563 [Eh]
    Exch-Disp20 (OS)    =     0.000210786593 [Eh]

    SAPT Results 
  --------------------------------------------------------------------------------------------------------
    Electrostatics                 11.39523116 [mEh]       7.15061551 [kcal/mol]      29.91817529 [kJ/mol]
      Elst10,r                     11.39523116 [mEh]       7.15061551 [kcal/mol]      29.91817529 [kJ/mol]

    Exchange                        3.16561061 [mEh]       1.98645065 [kcal/mol]       8.31130951 [kJ/mol]
      Exch10                        3.16561061 [mEh]       1.98645065 [kcal/mol]       8.31130951 [kJ/mol]
      Exch10(S^2)                   3.16527839 [mEh]       1.98624218 [kcal/mol]       8.31043727 [kJ/mol]

    Induction                     -15.33235334 [mEh]      -9.62119698 [kcal/mol]     -40.25508815 [kJ/mol]
      Ind20,r                     -15.92586813 [mEh]      -9.99363313 [kcal/mol]     -41.81336100 [kJ/mol]
      Exch-Ind20,r                  0.80074331 [mEh]       0.50247401 [kcal/mol]       2.10235128 [kJ/mol]
      delta HF,r (2)               -0.20722853 [mEh]      -0.13003786 [kcal/mol]      -0.54407842 [kJ/mol]

    Dispersion                     -7.39313922 [mEh]      -4.63926490 [kcal/mol]     -19.41068434 [kJ/mol]
      Disp20                       -7.94388237 [mEh]      -4.98486145 [kcal/mol]     -20.85666030 [kJ/mol]
      Exch-Disp20                   0.55074316 [mEh]       0.34559655 [kcal/mol]       1.44597596 [kJ/mol]
      Disp20 (SS)                  -3.97194119 [mEh]      -2.49243072 [kcal/mol]     -10.42833015 [kJ/mol]
      Disp20 (OS)                  -3.97194119 [mEh]      -2.49243072 [kcal/mol]     -10.42833015 [kJ/mol]
      Exch-Disp20 (SS)              0.33995656 [mEh]       0.21332596 [kcal/mol]       0.89255583 [kJ/mol]
      Exch-Disp20 (OS)              0.21078659 [mEh]       0.13227058 [kcal/mol]       0.55342012 [kJ/mol]

  Total HF                         -0.77151157 [mEh]      -0.48413082 [kcal/mol]      -2.02560335 [kJ/mol]
  Total SAPT0                      -8.16465079 [mEh]      -5.12339572 [kcal/mol]     -21.43628769 [kJ/mol]

  Special recipe for scaled SAPT0 (see Manual):
    Electrostatics sSAPT0          11.39523116 [mEh]       7.15061551 [kcal/mol]      29.91817529 [kJ/mol]
    Exchange sSAPT0                 3.16561061 [mEh]       1.98645065 [kcal/mol]       8.31130951 [kJ/mol]
    Induction sSAPT0              -15.33210118 [mEh]      -9.62103874 [kcal/mol]     -40.25442611 [kJ/mol]
    Dispersion sSAPT0              -7.39296579 [mEh]      -4.63915607 [kcal/mol]     -19.41022900 [kJ/mol]
  Total sSAPT0                     -8.16422520 [mEh]      -5.12312866 [kcal/mol]     -21.43517030 [kJ/mol]
  --------------------------------------------------------------------------------------------------------

*** tstop() called on n2cn0586 at Thu Feb  8 00:42:50 2024
Module time:
	user time   =   62776.27 seconds =    1046.27 minutes
	system time =    3375.49 seconds =      56.26 minutes
	total time  =      11213 seconds =     186.88 minutes
Total time:
	user time   =  106759.53 seconds =    1779.33 minutes
	system time =    6479.56 seconds =     107.99 minutes
	total time  =      17332 seconds =     288.87 minutes

    Psi4 stopped on: Thursday, 08 February 2024 12:42AM
    Psi4 wall time for execution: 4:48:53.67

*** Psi4 exiting successfully. Buy a developer a beer!
