
    -----------------------------------------------------------------------
          Psi4: An Open-Source Ab Initio Electronic Structure Package
                               Psi4 1.9 release

                         Git: Rev {} zzzzzzz 


    D. G. A. Smith, L. A. Burns, A. C. Simmonett, R. M. Parrish,
    M. C. Schieber, R. Galvelis, P. Kraus, H. Kruse, R. Di Remigio,
    A. Alenaizan, A. M. James, S. Lehtola, J. P. Misiewicz, M. Scheurer,
    R. A. Shaw, J. B. Schriber, Y. Xie, Z. L. Glick, D. A. Sirianni,
    J. S. O'Brien, J. M. Waldrop, A. Kumar, E. G. Hohenstein,
    B. P. Pritchard, B. R. Brooks, H. F. Schaefer III, A. Yu. Sokolov,
    K. Patkowski, A. E. DePrince III, U. Bozkaya, R. A. King,
    F. A. Evangelista, J. M. Turney, T. D. Crawford, C. D. Sherrill,
    J. Chem. Phys. 152(18) 184108 (2020). https://doi.org/10.1063/5.0006002

                            Additional Code Authors
    E. T. Seidl, C. L. Janssen, E. F. Valeev, M. L. Leininger,
    J. F. Gonthier, R. M. Richard, H. R. McAlexander, M. Saitow, X. Wang,
    P. Verma, M. H. Lechner, A. Jiang, S. Behnle, A. G. Heide,
    M. F. Herbst, and D. L. Poole

             Previous Authors, Complete List of Code Contributors,
                       and Citations for Specific Modules
    https://github.com/psi4/psi4/blob/master/codemeta.json
    https://github.com/psi4/psi4/graphs/contributors
    http://psicode.org/psi4manual/master/introduction.html#citing-psifour

    -----------------------------------------------------------------------


    Psi4 started on: Saturday, 27 January 2024 11:25AM

    Process ID: 878823
    Host:       n2cn0411
    PSIDATADIR: /opt/software/pc2/EB-SW/software/PSI4/1.9-foss-2022a/share/psi4
    Memory:     500.0 MiB
    Threads:    16
    
  ==> Input File <==

--------------------------------------------------------------------------
memory 64 GB # how much memory is available ! Depends on the nodes/cores !

molecule dimer {
# monomer A
-1 1    # Charge and multiplicity
B -0.000046  0.000337 3.999994
F -1.153597  0.000048 4.815641
F  1.153661 -0.000581 4.815641
F -0.000019 -1.153637 3.184360
F -0.000019  1.153978 3.184360
--
# monomer B
0 1     # Charge and multiplicity
C   -3.66844126402057      7.80375217008252      0.00190004133558
C   -4.84759871934653      7.13124183134024     -0.00046653359696
C   -4.89495929917518      5.69633040353158     -0.00103944469517
C   -3.65374067877320      4.98073034095895      0.00662099703436
C   -2.40942512149445      7.11398103667468      0.00209438359570
C   -2.42547734410473      5.68112195090346     -0.00491050527438
C   -1.19474401643570      7.78614419430947      0.00356656413763
C   0.03795902893699      7.09942164575698      0.00139585983271
C   0.03033258741920      5.66948955970466     -0.00408752508301
C   -1.20098450790502      4.96927034791531      0.00488220885047
C   1.27795782581485      7.77285944319479      0.00277170839332
C   2.48535808472416      7.08769688523756      0.00049722048857
C   2.48612868491717      5.65477081024076     -0.00644052849921
C   1.25408291964399      4.95607811366431      0.00518741308898
C   3.75171459140595      7.76391215098033      0.00062407186893
C   4.92356605618520      7.07878077698995     -0.00143240883900
C   4.95560727132542      5.64344746336949     -0.00159282164606
C   3.70680153420475      4.94121020833308      0.00349873852374
H   -3.65852113775815      8.89082741913536      0.00358502958574
H   -1.18921332975660      8.87412108735996      0.00753844057883
H   1.28429423888630      8.86083343548850      0.00693053253426
H   3.75354208679975      8.85103527897216      0.00214659618464
H   5.86995870320703      7.61379483465560     -0.00235777588134
H   -5.78823170750226      7.67630221293400     -0.00202638095293
C   -6.09197395869619      4.99326001364347     -0.00291168518608
C   -6.12866148031747      3.58258016879823     -0.00171050815740
C   -3.66457974004527      3.56418217974434     -0.00463560277484
C   -4.89429820469869      2.86108077590057      0.00453338221034
C   -2.43733499489796      2.84761165708481      0.00719617576166
C   -1.20922785759670      3.54788693497833     -0.00648285103018
C   1.24714157216223      3.53468075142962     -0.00729145743546
C   0.01517603956900      2.83311183930540      0.00439272578912
C   2.46764517244071      2.82128997725533      0.00449278391269
C   3.70254947457969      3.52466015442405     -0.00899517692985
C   6.14498038638375      4.92757236613191     -0.00282626685777
C   6.16658835886151      3.51658447594213     -0.00065971342101
C   4.92460995845939      2.80840792535402      0.00587903281610
H   7.08990550964105      5.46688776622306     -0.00658814770723
H   -7.03104175110130      5.54268795285765     -0.00714490013730
C   -7.33969804112295      2.85841153457957     -0.00333767559888
C   -7.36488195805880      1.47032337158330     -0.00157213747140
C   -4.90350460894690      1.44442681216000     -0.00628840166334
C   -6.13225715261081      0.73993935705394      0.00600164231964
C   -3.67687480051673      0.72669714267312      0.00433931473643
C   -2.44565658606518      1.42964113326212     -0.00597039546461
C   -1.22360068130162      0.71532450163492      0.00545886906656
C   0.00763786931376      1.41738314923765      0.00392452278437
C   1.23121980774686      0.70211669058719     -0.01490206287210
C   2.46082110053113      1.40329203612573      0.00460244601878
C   3.68443025419614      0.68719842821222      0.00377365974158
C   4.91870890153864      1.39173456118907     -0.00862816189375
C   7.36980207796101      2.77948220318441     -0.00242013321349
C   7.38016266612146      1.39121750785509     -0.00087345036788
C   6.13979953912259      0.67411862320065      0.00545489144369
H   -8.27919079934664      3.40711804112415     -0.00763522772059
H   8.31511347147953      3.31811809662368     -0.00663070901292
C   -8.59175593758115      0.72483255304480     -0.00123170985383
C   -8.59902460370342     -0.63263980622873      0.00089141472904
C   -6.13981313911873     -0.67413663715361     -0.00609792660607
C   -7.38018411213749     -1.39126618958160      0.00131813493501
C   -4.91868448025621     -1.39175501803000      0.00624257154343
C   -3.68443829568458     -0.68723731573599     -0.00478966852105
C   -2.46081704024768     -1.40334517882457      0.00575341766833
C   -1.23116201232071     -0.70217386488055     -0.00636696112346
C   -0.00756962538737     -1.41741884941102      0.00108956317991
C   1.22364771588843     -0.71527537726392      0.01109518512883
C   2.44567064933149     -1.42964328900682     -0.00065482763106
C   3.67686670284649     -0.72670743155550     -0.00479541202602
C   6.13224884641929     -0.73997883984993     -0.00632338623858
C   4.90351914550401     -1.44445752054090      0.00751768830159
C   8.59901484869081      0.63260386666793     -0.00101133422380
C   8.59174548810050     -0.72485086719319      0.00072504603735
C   7.36486276438985     -1.47033266560598      0.00049486934466
H   -9.52830597181814      1.27684744919284     -0.00270163681798
H   9.54141097460619      1.17457248844457     -0.00206336648518
C   -7.36983790976868     -2.77954514593389      0.00312634335708
C   -4.92459910905015     -2.80843725734101     -0.00460528907921
C   -6.16662249566744     -3.51665219282533      0.00169655107992
C   -3.70251035970491     -3.52468154912026      0.00571878010666
C   -2.46764698511392     -2.82132596280400     -0.00632585824990
C   -0.01513347410770     -2.83314164539971     -0.00604426974092
C   -1.24712184122656     -3.53473217556300      0.00551968366725
C   1.20924506964357     -3.54791467864352      0.00805871345849
C   2.43733602215464     -2.84764173817541     -0.00608104485234
C   4.89430234377080     -2.86112296828604     -0.00526030478103
C   3.66461525504104     -3.56421984553201      0.00761911515957
C   6.12863901474565     -3.58258405771778      0.00096495711699
C   7.33967266469532     -2.85841330737039      0.00248018319869
H   -9.54144911125902     -1.17456346666430      0.00226083090216
H   9.52826186807155     -1.27691907390448      0.00197485379837
H   -8.31516504384864     -3.31814985321231      0.00729857188773
H   8.27915514249207     -3.40714078989363      0.00681973918158
C   -6.14499418870218     -4.92764727278338      0.00302254913999
C   -3.70678334799751     -4.94126171411716     -0.00679841894792
C   -4.95559005800169     -5.64349397349412      0.00116871569699
C   -2.48612132622665     -5.65478557440947      0.00614125209662
C   -1.25405833548005     -4.95612205000132     -0.00503435388927
C   1.20101257386816     -4.96928038819302     -0.00385322963129
C   -0.03033667441341     -5.66952030313900      0.00398997003238
C   3.65375010132847     -4.98074377541453     -0.00309522988330
C   2.42549269587528     -5.68117463552727      0.00628170066869
C   6.09196561781097     -4.99325796338655      0.00325918379042
C   4.89497644461045     -5.69634842095790      0.00202298796027
H   -7.08989238804069     -5.46699984223871      0.00742531082125
H   7.03105520920009     -5.54265853633254      0.00683896355417
C   -4.92354532219813     -7.07882109967734      0.00061394679214
C   -2.48534208823777     -7.08772807792913     -0.00189594564379
C   -3.75168589177895     -7.76394715763627     -0.00170126671874
C   -0.03794895698805     -7.09946487446944     -0.00168022049625
C   -1.27795610040136     -7.77290438466689     -0.00366491325785
C   2.40944432072629     -7.11402201200282     -0.00081701968533
C   1.19474993715296     -7.78618536556242     -0.00296931056689
C   4.84762105249800     -7.13126211057943      0.00168979497423
C   3.66847160587561     -7.80378799294376     -0.00065863938960
H   -5.86994035041618     -7.61383059804164      0.00215798365757
H   5.78824962538815     -7.67633218931421      0.00281691445618
H   -3.75352693944918     -8.85107156923607     -0.00353718114765
H   -1.28430440589466     -8.86087539249706     -0.00809229711623
H   1.18922157469537     -8.87416062058945     -0.00706194725726
H   3.65854661482387     -8.89086063405326     -0.00231318081200

    units angstrom      # Angstroms are the default
    no_reorient         # Geometry fixed, default
    symmetry c1         # C1 symmetry, default
}

set {
    scf_type DF         # Density fitting, faster than exact integrals
    freeze_core True    # Freeze core electrons
    basis jun-cc-pVDZ   # Jun-cc-pVDZ basis set, recommended for sSAPT0 in https://doi.org/10.1063/1.4867135
}

energy('ssapt0')        # Compute sSAPT0 energy, includes also SAPT0
--------------------------------------------------------------------------

  Memory set to  59.605 GiB by Python driver.

Scratch directory: /tmp/
   => Loading Basis Set <=

    Name: JUN-CC-PVDZ
    Role: ORBITAL
    Keyword: BASIS
    atoms 1                                                   entry B          line   130 file /opt/software/pc2/EB-SW/software/PSI4/1.9-foss-2022a/share/psi4/basis/jun-cc-pvdz.gbs 
    atoms 2-5                                                 entry F          line   266 file /opt/software/pc2/EB-SW/software/PSI4/1.9-foss-2022a/share/psi4/basis/jun-cc-pvdz.gbs 
    atoms 6-23, 30-42, 45-59, 62-78, 81-93, 98-108, 111-119   entry C          line   164 file /opt/software/pc2/EB-SW/software/PSI4/1.9-foss-2022a/share/psi4/basis/jun-cc-pvdz.gbs 
    atoms 24-29, 43-44, 60-61, 79-80, 94-97, 109-110, 120-125 entry H          line    36 file /opt/software/pc2/EB-SW/software/PSI4/1.9-foss-2022a/share/psi4/basis/jun-cc-pvdz.gbs 

   => Loading Basis Set <=

    Name: JUN-CC-PVDZ
    Role: ORBITAL
    Keyword: BASIS
    atoms 1                                                   entry B          line   130 file /opt/software/pc2/EB-SW/software/PSI4/1.9-foss-2022a/share/psi4/basis/jun-cc-pvdz.gbs 
    atoms 2-5                                                 entry F          line   266 file /opt/software/pc2/EB-SW/software/PSI4/1.9-foss-2022a/share/psi4/basis/jun-cc-pvdz.gbs 
    atoms 6-23, 30-42, 45-59, 62-78, 81-93, 98-108, 111-119   entry C          line   164 file /opt/software/pc2/EB-SW/software/PSI4/1.9-foss-2022a/share/psi4/basis/jun-cc-pvdz.gbs 
    atoms 24-29, 43-44, 60-61, 79-80, 94-97, 109-110, 120-125 entry H          line    36 file /opt/software/pc2/EB-SW/software/PSI4/1.9-foss-2022a/share/psi4/basis/jun-cc-pvdz.gbs 


  //>>>>>>>>>>>>>>>>>>>>>>>>>>>>>>>>>>>//
  //              Dimer HF             //
  //<<<<<<<<<<<<<<<<<<<<<<<<<<<<<<<<<<<//

   => Libint2 <=

    Primary   basis highest AM E, G, H:  5, 4, 3
    Auxiliary basis highest AM E, G, H:  6, 5, 4
    Onebody   basis highest AM E, G, H:  6, 5, 4
    Solid Harmonics ordering:            gaussian

*** tstart() called on n2cn0411
*** at Sat Jan 27 11:25:35 2024

   => Loading Basis Set <=

    Name: JUN-CC-PVDZ
    Role: ORBITAL
    Keyword: BASIS
    atoms 1                                                   entry B          line   130 file /opt/software/pc2/EB-SW/software/PSI4/1.9-foss-2022a/share/psi4/basis/jun-cc-pvdz.gbs 
    atoms 2-5                                                 entry F          line   266 file /opt/software/pc2/EB-SW/software/PSI4/1.9-foss-2022a/share/psi4/basis/jun-cc-pvdz.gbs 
    atoms 6-23, 30-42, 45-59, 62-78, 81-93, 98-108, 111-119   entry C          line   164 file /opt/software/pc2/EB-SW/software/PSI4/1.9-foss-2022a/share/psi4/basis/jun-cc-pvdz.gbs 
    atoms 24-29, 43-44, 60-61, 79-80, 94-97, 109-110, 120-125 entry H          line    36 file /opt/software/pc2/EB-SW/software/PSI4/1.9-foss-2022a/share/psi4/basis/jun-cc-pvdz.gbs 


         ---------------------------------------------------------
                                   SCF
               by Justin Turney, Rob Parrish, Andy Simmonett
                          and Daniel G. A. Smith
                              RHF Reference
                       16 Threads,  61035 MiB Core
         ---------------------------------------------------------

  ==> Geometry <==

    Molecular point group: c1
    Full point group: C1

    Geometry (in Angstrom), charge = -1, multiplicity = 1:

       Center              X                  Y                   Z               Mass       
    ------------   -----------------  -----------------  -----------------  -----------------
         B           -0.000050191042     0.000351518223     3.724488817114    11.009305360000
         F           -1.153601191042     0.000062518223     4.540135817114    18.998403162730
         F            1.153656808958    -0.000566481777     4.540135817114    18.998403162730
         F           -0.000023191042    -1.153622481777     2.908854817114    18.998403162730
         F           -0.000023191042     1.153992518223     2.908854817114    18.998403162730
         C           -3.668445455062     7.803766688305    -0.273605141550    12.000000000000
         C           -4.847602910388     7.131256349563    -0.275971716483    12.000000000000
         C           -4.894963490217     5.696344921754    -0.276544627581    12.000000000000
         C           -3.653744869815     4.980744859182    -0.268884185852    12.000000000000
         C           -2.409429312536     7.113995554897    -0.273410799290    12.000000000000
         C           -2.425481535146     5.681136469126    -0.280415688160    12.000000000000
         C           -1.194748207477     7.786158712532    -0.271938618748    12.000000000000
         C            0.037954837895     7.099436163980    -0.274109323053    12.000000000000
         C            0.030328396378     5.669504077927    -0.279592707969    12.000000000000
         C           -1.200988698947     4.969284866138    -0.270622974035    12.000000000000
         C            1.277953634773     7.772873961417    -0.272733474493    12.000000000000
         C            2.485353893683     7.087711403460    -0.275007962397    12.000000000000
         C            2.486124493876     5.654785328463    -0.281945711385    12.000000000000
         C            1.254078728602     4.956092631887    -0.270317769797    12.000000000000
         C            3.751710400364     7.763926669203    -0.274881111017    12.000000000000
         C            4.923561865144     7.078795295213    -0.276937591725    12.000000000000
         C            4.955603080284     5.643461981592    -0.277098004532    12.000000000000
         C            3.706797343163     4.941224726556    -0.272006444362    12.000000000000
         H           -3.658525328800     8.890841937358    -0.271920153300     1.007825032230
         H           -1.189217520798     8.874135605583    -0.267966742307     1.007825032230
         H            1.284290047845     8.860847953711    -0.268574650352     1.007825032230
         H            3.753537895758     8.851049797195    -0.273358586701     1.007825032230
         H            5.869954512165     7.613809352878    -0.277862958767     1.007825032230
         H           -5.788235898544     7.676316731157    -0.277531563839     1.007825032230
         C           -6.091978149738     4.993274531866    -0.278416868072    12.000000000000
         C           -6.128665671359     3.582594687021    -0.277215691043    12.000000000000
         C           -3.664583931087     3.564196697967    -0.280140785661    12.000000000000
         C           -4.894302395740     2.861095294123    -0.270971800676    12.000000000000
         C           -2.437339185940     2.847626175307    -0.268309007124    12.000000000000
         C           -1.209232048638     3.547901453201    -0.281988033916    12.000000000000
         C            1.247137381121     3.534695269652    -0.282796640321    12.000000000000
         C            0.015171848527     2.833126357528    -0.271112457097    12.000000000000
         C            2.467640981399     2.821304495478    -0.271012398973    12.000000000000
         C            3.702545283538     3.524674672647    -0.284500359816    12.000000000000
         C            6.144976195342     4.927586884354    -0.278331449744    12.000000000000
         C            6.166584167820     3.516598994165    -0.276164896307    12.000000000000
         C            4.924605767418     2.808422443577    -0.269626150070    12.000000000000
         H            7.089901318599     5.466902284446    -0.282093330593     1.007825032230
         H           -7.031045942143     5.542702471080    -0.282650083023     1.007825032230
         C           -7.339702232165     2.858426052802    -0.278842858485    12.000000000000
         C           -7.364886149100     1.470337889806    -0.277077320357    12.000000000000
         C           -4.903508799989     1.444441330383    -0.281793584549    12.000000000000
         C           -6.132261343652     0.739953875277    -0.269503540566    12.000000000000
         C           -3.676878991558     0.726711660896    -0.271165868150    12.000000000000
         C           -2.445660777107     1.429655651485    -0.281475578351    12.000000000000
         C           -1.223604872343     0.715339019858    -0.270046313819    12.000000000000
         C            0.007633678272     1.417397667460    -0.271580660102    12.000000000000
         C            1.231215616705     0.702131208810    -0.290407245758    12.000000000000
         C            2.460816909489     1.403306554348    -0.270902736867    12.000000000000
         C            3.684426063155     0.687212946435    -0.271731523144    12.000000000000
         C            4.918704710497     1.391749079412    -0.284133344780    12.000000000000
         C            7.369797886919     2.779496721407    -0.277925316099    12.000000000000
         C            7.380158475080     1.391232026078    -0.276378633254    12.000000000000
         C            6.139795348081     0.674133141423    -0.270050291442    12.000000000000
         H           -8.279194990388     3.407132559347    -0.283140410607     1.007825032230
         H            8.315109280438     3.318132614846    -0.282135891899     1.007825032230
         C           -8.591760128623     0.724847071267    -0.276736892740    12.000000000000
         C           -8.599028794745    -0.632625288006    -0.274613768157    12.000000000000
         C           -6.139817330160    -0.674122118931    -0.281603109492    12.000000000000
         C           -7.380188303179    -1.391251671359    -0.274187047951    12.000000000000
         C           -4.918688671298    -1.391740499807    -0.269262611343    12.000000000000
         C           -3.684442486726    -0.687222797513    -0.280294851407    12.000000000000
         C           -2.460821231289    -1.403330660602    -0.269751765218    12.000000000000
         C           -1.231166203362    -0.702159346658    -0.281872144009    12.000000000000
         C           -0.007573816429    -1.417404331188    -0.274415619706    12.000000000000
         C            1.223643524847    -0.715260859041    -0.264409997757    12.000000000000
         C            2.445666458290    -1.429628770784    -0.276160010517    12.000000000000
         C            3.676862511805    -0.726692913333    -0.280300594912    12.000000000000
         C            6.132244655378    -0.739964321627    -0.281828569125    12.000000000000
         C            4.903514954462    -1.444443002318    -0.267987494584    12.000000000000
         C            8.599010657649     0.632618384891    -0.276516517110    12.000000000000
         C            8.591741297059    -0.724836348971    -0.274780136849    12.000000000000
         C            7.364858573348    -1.470318147383    -0.275010313541    12.000000000000
         H           -9.528310162860     1.276861967415    -0.278206819704     1.007825032230
         H            9.541406783565     1.174587006667    -0.277568549371     1.007825032230
         C           -7.369842100810    -2.779530627711    -0.272378839529    12.000000000000
         C           -4.924603300092    -2.808422739118    -0.280110471965    12.000000000000
         C           -6.166626686709    -3.516637674603    -0.273808631806    12.000000000000
         C           -3.702514550747    -3.524667030898    -0.269786402779    12.000000000000
         C           -2.467651176156    -2.821311444581    -0.281831041136    12.000000000000
         C           -0.015137665149    -2.833127127177    -0.281549452627    12.000000000000
         C           -1.247126032268    -3.534717657340    -0.269985499219    12.000000000000
         C            1.209240878602    -3.547900160421    -0.267446469427    12.000000000000
         C            2.437331831113    -2.847627219953    -0.281586227738    12.000000000000
         C            4.894298152729    -2.861108450063    -0.280765487667    12.000000000000
         C            3.664611063999    -3.564205327309    -0.267886067726    12.000000000000
         C            6.128634823704    -3.582569539495    -0.274540225769    12.000000000000
         C            7.339668473654    -2.858398789148    -0.273024999687    12.000000000000
         H           -9.541453302301    -1.174548948442    -0.273244351984     1.007825032230
         H            9.528257677030    -1.276904555682    -0.273530329088     1.007825032230
         H           -8.315169234890    -3.318135334990    -0.268206610998     1.007825032230
         H            8.279150951450    -3.407126271671    -0.268685443704     1.007825032230
         C           -6.144998379744    -4.927632754561    -0.272482633746    12.000000000000
         C           -3.706787539039    -4.941247195895    -0.282303601834    12.000000000000
         C           -4.955594249043    -5.643479455272    -0.274336467189    12.000000000000
         C           -2.486125517268    -5.654771056187    -0.269363930789    12.000000000000
         C           -1.254062526522    -4.956107531779    -0.280539536775    12.000000000000
         C            1.201008382827    -4.969265869970    -0.279358412517    12.000000000000
         C           -0.030340865455    -5.669505784916    -0.271515212854    12.000000000000
         C            3.653745910287    -4.980729257192    -0.278600412769    12.000000000000
         C            2.425488504834    -5.681160117305    -0.269223482217    12.000000000000
         C            6.091961426769    -4.993243445164    -0.272245999096    12.000000000000
         C            4.894972253569    -5.696333902735    -0.273482194926    12.000000000000
         H           -7.089896579082    -5.466985324016    -0.268079872065     1.007825032230
         H            7.031051018158    -5.542644018110    -0.268666219332     1.007825032230
         C           -4.923549513240    -7.078806581455    -0.274891236094    12.000000000000
         C           -2.485346279279    -7.087713559707    -0.277401128530    12.000000000000
         C           -3.751690082821    -7.763932639414    -0.277206449605    12.000000000000
         C           -0.037953148030    -7.099450356247    -0.277185403382    12.000000000000
         C           -1.277960291443    -7.772889866444    -0.279170096144    12.000000000000
         C            2.409440129685    -7.114007493780    -0.276322202571    12.000000000000
         C            1.194745746111    -7.786170847340    -0.278474493453    12.000000000000
         C            4.847616861456    -7.131247592357    -0.273815387912    12.000000000000
         C            3.668467414834    -7.803773474721    -0.276163822276    12.000000000000
         H           -5.869944541458    -7.613816079819    -0.273347199228     1.007825032230
         H            5.788245434347    -7.676317671092    -0.272688268430     1.007825032230
         H           -3.753531130491    -8.851057051013    -0.279042364034     1.007825032230
         H           -1.284308596936    -8.860860874274    -0.283597480002     1.007825032230
         H            1.189217383654    -8.874146102367    -0.282567130143     1.007825032230
         H            3.658542423782    -8.890846115831    -0.277818363698     1.007825032230

  Running in c1 symmetry.

  Rotational constants: A =      0.00067  B =      0.00067  C =      0.00035 [cm^-1]
  Rotational constants: A =     19.98055  B =     19.97714  C =     10.55117 [MHz]
  Nuclear repulsion = 17656.357652064860304

  Charge       = -1
  Multiplicity = 1
  Electrons    = 642
  Nalpha       = 321
  Nbeta        = 321

  ==> Algorithm <==

  SCF Algorithm Type is DF.
  DIIS enabled.
  MOM disabled.
  Fractional occupation disabled.
  Guess Type is SAD.
  Energy threshold   = 1.00e-08
  Density threshold  = 1.00e-08
  Integral threshold = 1.00e-12

  ==> Primary Basis <==

  Basis Set: JUN-CC-PVDZ
    Blend: JUN-CC-PVDZ
    Number of shells: 880
    Number of basis functions: 1938
    Number of Cartesian functions: 2039
    Spherical Harmonics?: true
    Max angular momentum: 2

   => Loading Basis Set <=

    Name: (JUN-CC-PVDZ AUX)
    Role: JKFIT
    Keyword: DF_BASIS_SCF
    atoms 1                                                   entry B          line    90 file /opt/software/pc2/EB-SW/software/PSI4/1.9-foss-2022a/share/psi4/basis/jun-cc-pvdz-jkfit.gbs 
    atoms 2-5                                                 entry F          line   314 file /opt/software/pc2/EB-SW/software/PSI4/1.9-foss-2022a/share/psi4/basis/jun-cc-pvdz-jkfit.gbs 
    atoms 6-23, 30-42, 45-59, 62-78, 81-93, 98-108, 111-119   entry C          line   146 file /opt/software/pc2/EB-SW/software/PSI4/1.9-foss-2022a/share/psi4/basis/jun-cc-pvdz-jkfit.gbs 
    atoms 24-29, 43-44, 60-61, 79-80, 94-97, 109-110, 120-125 entry H          line    70 file /opt/software/pc2/EB-SW/software/PSI4/1.9-foss-2022a/share/psi4/basis/jun-cc-pvdz-jkfit.gbs 

  ==> Integral Setup <==

  ==> DiskDFJK: Density-Fitted J/K Matrices <==

    J tasked:                  Yes
    K tasked:                  Yes
    wK tasked:                  No
    OpenMP threads:             16
    Integrals threads:          16
    Memory [MiB]:            45776
    Algorithm:                Disk
    Integral Cache:           SAVE
    Schwarz Cutoff:          1E-12
    Fitting Condition:       1E-10

   => Auxiliary Basis Set <=

  Basis Set: (JUN-CC-PVDZ AUX)
    Blend: JUN-CC-PVDZ-JKFIT
    Number of shells: 2943
    Number of basis functions: 8531
    Number of Cartesian functions: 9791
    Spherical Harmonics?: true
    Max angular momentum: 3

  Minimum eigenvalue in the overlap matrix is 8.4270515796E-11.
  Reciprocal condition number of the overlap matrix is 3.5672849031E-12.
    Using canonical orthogonalization.
  Overall, 39 of 1938 possible MOs eliminated.


  ==> Pre-Iterations <==

  SCF Guess: Superposition of Atomic Densities via on-the-fly atomic UHF (no occupation information).

   -------------------------
    Irrep   Nso     Nmo    
   -------------------------
     A       1938    1899 
   -------------------------
    Total    1938    1899
   -------------------------

  ==> Iterations <==

                           Total Energy        Delta E     RMS |[F,P]|

   @DF-RHF iter SAD: -4085.08453871756456   -4.08508e+03   0.00000e+00 
   @DF-RHF iter   1: -4071.50877825341831    1.35758e+01   7.92299e-04 ADIIS/DIIS
   @DF-RHF iter   2: -4072.91581161049089   -1.40703e+00   3.12031e-04 ADIIS/DIIS
   @DF-RHF iter   3: -4073.08527098014474   -1.69459e-01   1.04960e-04 ADIIS/DIIS
   @DF-RHF iter   4: -4073.10824786716194   -2.29769e-02   4.07314e-05 DIIS
   @DF-RHF iter   5: -4073.11224016807046   -3.99230e-03   1.19163e-05 DIIS
   @DF-RHF iter   6: -4073.11274885675539   -5.08689e-04   4.65193e-06 DIIS
   @DF-RHF iter   7: -4073.11293315070316   -1.84294e-04   2.52229e-06 DIIS
   @DF-RHF iter   8: -4073.11299431410316   -6.11634e-05   1.25968e-06 DIIS
   @DF-RHF iter   9: -4073.11301534976883   -2.10357e-05   4.37561e-07 DIIS
   @DF-RHF iter  10: -4073.11301671415140   -1.36438e-06   1.79826e-07 DIIS
   @DF-RHF iter  11: -4073.11301693275482   -2.18603e-07   6.37585e-08 DIIS
   @DF-RHF iter  12: -4073.11301696883856   -3.60837e-08   3.38203e-08 DIIS
   @DF-RHF iter  13: -4073.11301697746603   -8.62747e-09   1.13918e-08 DIIS
   @DF-RHF iter  14: -4073.11301697840872   -9.42691e-10   5.05213e-09 DIIS
  Energy and wave function converged.


  ==> Post-Iterations <==

    Orbital Energies [Eh]
    ---------------------

    Doubly Occupied:                                                      

       1A    -26.088239     2A    -26.088043     3A    -26.080235  
       4A    -26.080202     5A    -11.198771     6A    -11.198766  
       7A    -11.198756     8A    -11.198746     9A    -11.198689  
      10A    -11.198683    11A    -11.198680    12A    -11.198674  
      13A    -11.198642    14A    -11.198638    15A    -11.198627  
      16A    -11.198621    17A    -11.197955    18A    -11.197951  
      19A    -11.197942    20A    -11.197938    21A    -11.197844  
      22A    -11.197826    23A    -11.195373    24A    -11.195368  
      25A    -11.195299    26A    -11.195298    27A    -11.195297  
      28A    -11.195292    29A    -11.195033    30A    -11.195011  
      31A    -11.194911    32A    -11.194890    33A    -11.194781  
      34A    -11.194737    35A    -11.194733    36A    -11.194664  
      37A    -11.194607    38A    -11.194563    39A    -11.194433  
      40A    -11.194412    41A    -11.193993    42A    -11.193968  
      43A    -11.193914    44A    -11.193909    45A    -11.193841  
      46A    -11.193841    47A    -11.193840    48A    -11.193834  
      49A    -11.193818    50A    -11.193783    51A    -11.193687  
      52A    -11.193652    53A    -11.193216    54A    -11.193188  
      55A    -11.193069    56A    -11.192999    57A    -11.192991  
      58A    -11.192919    59A    -11.192823    60A    -11.192779  
      61A    -11.192760    62A    -11.192730    63A    -11.192578  
      64A    -11.192566    65A    -11.191239    66A    -11.191213  
      67A    -11.190812    68A    -11.190793    69A    -11.190744  
      70A    -11.190742    71A    -11.190725    72A    -11.190722  
      73A    -11.190687    74A    -11.190683    75A    -11.190647  
      76A    -11.190620    77A    -11.190591    78A    -11.190569  
      79A    -11.190562    80A    -11.190523    81A    -11.190499  
      82A    -11.190482    83A    -11.190220    84A    -11.190189  
      85A    -11.189804    86A    -11.189779    87A    -11.189683  
      88A    -11.189664    89A    -11.188011    90A    -11.187991  
      91A    -11.187906    92A    -11.187842    93A    -11.187406  
      94A    -11.187326    95A    -11.186263    96A    -11.185881  
      97A    -11.185743    98A    -11.184852    99A    -11.184727  
     100A    -11.184273   101A     -7.555949   102A     -1.428415  
     103A     -1.372558   104A     -1.368258   105A     -1.364271  
     106A     -1.182232   107A     -1.170830   108A     -1.170551  
     109A     -1.154025   110A     -1.154003   111A     -1.144905  
     112A     -1.136118   113A     -1.129865   114A     -1.119145  
     115A     -1.118771   116A     -1.109224   117A     -1.109174  
     118A     -1.087590   119A     -1.087539   120A     -1.083678  
     121A     -1.080557   122A     -1.080541   123A     -1.062169  
     124A     -1.048864   125A     -1.047942   126A     -1.047037  
     127A     -1.044225   128A     -1.043955   129A     -1.022297  
     130A     -1.022204   131A     -1.012979   132A     -1.012933  
     133A     -1.000519   134A     -1.000493   135A     -0.996691  
     136A     -0.981344   137A     -0.981327   138A     -0.974727  
     139A     -0.974725   140A     -0.974703   141A     -0.957623  
     142A     -0.951320   143A     -0.951125   144A     -0.942342  
     145A     -0.940380   146A     -0.937745   147A     -0.933453  
     148A     -0.933356   149A     -0.927666   150A     -0.904302  
     151A     -0.904245   152A     -0.891066   153A     -0.891004  
     154A     -0.842548   155A     -0.842518   156A     -0.837200  
     157A     -0.837194   158A     -0.834597   159A     -0.823484  
     160A     -0.823467   161A     -0.822614   162A     -0.822061  
     163A     -0.821896   164A     -0.808130   165A     -0.807239  
     166A     -0.787525   167A     -0.780748   168A     -0.780655  
     169A     -0.777556   170A     -0.776497   171A     -0.769361  
     172A     -0.769332   173A     -0.764778   174A     -0.764724  
     175A     -0.721546   176A     -0.721529   177A     -0.716366  
     178A     -0.716330   179A     -0.715379   180A     -0.715269  
     181A     -0.714648   182A     -0.701773   183A     -0.692910  
     184A     -0.683402   185A     -0.670248   186A     -0.661789  
     187A     -0.661691   188A     -0.659263   189A     -0.659248  
     190A     -0.659179   191A     -0.650273   192A     -0.646768  
     193A     -0.646726   194A     -0.635129   195A     -0.635056  
     196A     -0.621924   197A     -0.621899   198A     -0.619873  
     199A     -0.618521   200A     -0.617412   201A     -0.617367  
     202A     -0.613369   203A     -0.589214   204A     -0.586151  
     205A     -0.586137   206A     -0.585602   207A     -0.582790  
     208A     -0.582760   209A     -0.575688   210A     -0.575150  
     211A     -0.574371   212A     -0.574236   213A     -0.569965  
     214A     -0.569947   215A     -0.563832   216A     -0.551543  
     217A     -0.551510   218A     -0.548171   219A     -0.545613  
     220A     -0.544837   221A     -0.544650   222A     -0.544647  
     223A     -0.544234   224A     -0.533266   225A     -0.532367  
     226A     -0.532353   227A     -0.532214   228A     -0.531247  
     229A     -0.531209   230A     -0.530679   231A     -0.530207  
     232A     -0.530143   233A     -0.525559   234A     -0.525506  
     235A     -0.524417   236A     -0.519244   237A     -0.515573  
     238A     -0.515566   239A     -0.509402   240A     -0.509381  
     241A     -0.509116   242A     -0.502991   243A     -0.502950  
     244A     -0.499755   245A     -0.499697   246A     -0.498575  
     247A     -0.498519   248A     -0.495549   249A     -0.492517  
     250A     -0.492418   251A     -0.488470   252A     -0.486066  
     253A     -0.485845   254A     -0.478869   255A     -0.469270  
     256A     -0.469253   257A     -0.465330   258A     -0.464767  
     259A     -0.464655   260A     -0.464535   261A     -0.463662  
     262A     -0.463642   263A     -0.460030   264A     -0.451372  
     265A     -0.451325   266A     -0.451136   267A     -0.451082  
     268A     -0.445946   269A     -0.445886   270A     -0.432836  
     271A     -0.430588   272A     -0.430580   273A     -0.428097  
     274A     -0.426308   275A     -0.425461   276A     -0.425215  
     277A     -0.425189   278A     -0.417698   279A     -0.415968  
     280A     -0.413954   281A     -0.413905   282A     -0.409316  
     283A     -0.404761   284A     -0.402377   285A     -0.401786  
     286A     -0.400535   287A     -0.400510   288A     -0.399660  
     289A     -0.392531   290A     -0.377488   291A     -0.377368  
     292A     -0.373260   293A     -0.371841   294A     -0.371562  
     295A     -0.370418   296A     -0.370214   297A     -0.341227  
     298A     -0.341016   299A     -0.322708   300A     -0.322602  
     301A     -0.318629   302A     -0.318600   303A     -0.314333  
     304A     -0.288796   305A     -0.288733   306A     -0.284707  
     307A     -0.269823   308A     -0.269763   309A     -0.266917  
     310A     -0.262681   311A     -0.261836   312A     -0.239421  
     313A     -0.235769   314A     -0.233445   315A     -0.233141  
     316A     -0.221087   317A     -0.194809   318A     -0.185052  
     319A     -0.184593   320A     -0.138670   321A     -0.138504  

    Virtual:                                                              

     322A      0.053597   323A      0.053643   324A      0.093482  
     325A      0.093523   326A      0.094139   327A      0.095880  
     328A      0.095999   329A      0.100511   330A      0.101234  
     331A      0.102649   332A      0.102870   333A      0.103760  
     334A      0.109253   335A      0.109261   336A      0.120573  
     337A      0.120584   338A      0.129534   339A      0.129618  
     340A      0.131855   341A      0.135691   342A      0.136097  
     343A      0.136624   344A      0.137494   345A      0.137595  
     346A      0.137978   347A      0.138943   348A      0.139462  
     349A      0.139776   350A      0.141597   351A      0.141655  
     352A      0.147078   353A      0.147853   354A      0.147970  
     355A      0.148273   356A      0.148406   357A      0.148428  
     358A      0.155306   359A      0.160401   360A      0.160452  
     361A      0.160468   362A      0.162466   363A      0.162559  
     364A      0.163211   365A      0.168144   366A      0.169082  
     367A      0.169628   368A      0.169995   369A      0.170480  
     370A      0.170875   371A      0.171084   372A      0.171353  
     373A      0.172976   374A      0.173119   375A      0.175610  
     376A      0.178279   377A      0.178376   378A      0.179166  
     379A      0.179218   380A      0.185883   381A      0.185915  
     382A      0.188690   383A      0.192464   384A      0.193786  
     385A      0.194162   386A      0.197154   387A      0.197167  
     388A      0.200028   389A      0.201440   390A      0.201637  
     391A      0.202255   392A      0.202414   393A      0.210630  
     394A      0.213237   395A      0.214135   396A      0.214714  
     397A      0.214745   398A      0.216028   399A      0.217655  
     400A      0.218794   401A      0.219358   402A      0.219602  
     403A      0.221807   404A      0.221980   405A      0.222907  
     406A      0.223544   407A      0.223624   408A      0.224368  
     409A      0.224686   410A      0.226782   411A      0.228899  
     412A      0.232606   413A      0.233909   414A      0.237036  
     415A      0.237056   416A      0.240307   417A      0.241332  
     418A      0.241533   419A      0.241588   420A      0.241881  
     421A      0.242020   422A      0.248024   423A      0.249628  
     424A      0.249967   425A      0.251381   426A      0.252533  
     427A      0.255406   428A      0.255793   429A      0.256140  
     430A      0.257913   431A      0.258168   432A      0.258328  
     433A      0.259280   434A      0.260890   435A      0.261908  
     436A      0.265883   437A      0.266908   438A      0.269312  
     439A      0.269511   440A      0.270783   441A      0.270862  
     442A      0.271246   443A      0.271606   444A      0.272115  
     445A      0.272439   446A      0.272746   447A      0.273201  
     448A      0.274152   449A      0.274194   450A      0.275850  
     451A      0.276678   452A      0.277156   453A      0.278214  
     454A      0.282712   455A      0.283505   456A      0.286460  
     457A      0.287331   458A      0.288552   459A      0.289560  
     460A      0.290311   461A      0.290384   462A      0.291137  
     463A      0.291571   464A      0.292900   465A      0.293085  
     466A      0.294387   467A      0.295415   468A      0.296679  
     469A      0.298801   470A      0.303399   471A      0.304214  
     472A      0.304646   473A      0.306963   474A      0.308884  
     475A      0.313396   476A      0.314052   477A      0.314167  
     478A      0.314314   479A      0.316430   480A      0.316599  
     481A      0.318597   482A      0.318724   483A      0.319043  
     484A      0.319675   485A      0.321382   486A      0.322857  
     487A      0.323944   488A      0.325419   489A      0.325687  
     490A      0.327319   491A      0.328497   492A      0.328778  
     493A      0.334038   494A      0.335179   495A      0.336280  
     496A      0.336422   497A      0.337792   498A      0.337936  
     499A      0.339235   500A      0.341052   501A      0.341116  
     502A      0.341190   503A      0.342204   504A      0.344833  
     505A      0.345714   506A      0.346159   507A      0.346892  
     508A      0.348086   509A      0.349607   510A      0.351355  
     511A      0.356645   512A      0.357184   513A      0.357223  
     514A      0.358734   515A      0.359968   516A      0.363060  
     517A      0.364015   518A      0.364087   519A      0.365101  
     520A      0.365781   521A      0.366052   522A      0.367002  
     523A      0.367292   524A      0.368749   525A      0.369670  
     526A      0.370198   527A      0.370600   528A      0.372936  
     529A      0.373471   530A      0.373561   531A      0.373915  
     532A      0.375848   533A      0.377320   534A      0.377554  
     535A      0.378842   536A      0.380264   537A      0.382522  
     538A      0.383415   539A      0.384205   540A      0.384802  
     541A      0.386097   542A      0.387365   543A      0.387450  
     544A      0.388147   545A      0.388645   546A      0.389272  
     547A      0.390906   548A      0.392967   549A      0.393504  
     550A      0.394521   551A      0.394594   552A      0.396493  
     553A      0.396770   554A      0.399876   555A      0.400472  
     556A      0.400716   557A      0.401961   558A      0.403735  
     559A      0.404168   560A      0.405394   561A      0.407602  
     562A      0.408938   563A      0.413557   564A      0.413893  
     565A      0.416576   566A      0.416693   567A      0.419698  
     568A      0.421054   569A      0.421100   570A      0.421411  
     571A      0.421962   572A      0.423769   573A      0.424302  
     574A      0.426049   575A      0.427970   576A      0.428306  
     577A      0.429205   578A      0.431564   579A      0.432485  
     580A      0.433372   581A      0.435435   582A      0.436479  
     583A      0.436564   584A      0.440049   585A      0.440888  
     586A      0.441228   587A      0.442018   588A      0.442801  
     589A      0.444551   590A      0.447489   591A      0.447715  
     592A      0.449376   593A      0.451046   594A      0.451214  
     595A      0.451840   596A      0.453005   597A      0.454268  
     598A      0.454818   599A      0.455205   600A      0.456157  
     601A      0.457183   602A      0.457796   603A      0.459113  
     604A      0.460133   605A      0.461295   606A      0.462111  
     607A      0.462643   608A      0.463057   609A      0.463529  
     610A      0.464749   611A      0.466450   612A      0.467209  
     613A      0.467904   614A      0.468587   615A      0.469579  
     616A      0.469751   617A      0.470260   618A      0.470469  
     619A      0.471111   620A      0.471280   621A      0.473065  
     622A      0.474621   623A      0.474661   624A      0.475086  
     625A      0.475153   626A      0.476591   627A      0.476802  
     628A      0.479304   629A      0.480132   630A      0.480336  
     631A      0.481054   632A      0.481777   633A      0.482352  
     634A      0.483629   635A      0.485033   636A      0.486984  
     637A      0.487483   638A      0.487727   639A      0.488033  
     640A      0.491122   641A      0.492600   642A      0.493709  
     643A      0.494263   644A      0.495087   645A      0.497425  
     646A      0.497579   647A      0.497791   648A      0.498078  
     649A      0.499969   650A      0.500415   651A      0.501255  
     652A      0.501680   653A      0.502189   654A      0.503375  
     655A      0.503949   656A      0.504340   657A      0.506903  
     658A      0.507988   659A      0.508661   660A      0.510529  
     661A      0.512358   662A      0.514802   663A      0.515136  
     664A      0.515400   665A      0.515989   666A      0.516301  
     667A      0.517527   668A      0.517619   669A      0.518989  
     670A      0.519290   671A      0.521824   672A      0.522628  
     673A      0.523796   674A      0.524731   675A      0.525145  
     676A      0.527400   677A      0.528809   678A      0.528970  
     679A      0.532682   680A      0.533011   681A      0.533090  
     682A      0.534188   683A      0.534273   684A      0.536499  
     685A      0.538219   686A      0.539170   687A      0.539547  
     688A      0.540292   689A      0.541340   690A      0.541622  
     691A      0.543023   692A      0.544442   693A      0.546090  
     694A      0.546324   695A      0.547351   696A      0.547958  
     697A      0.548046   698A      0.548184   699A      0.548957  
     700A      0.554239   701A      0.555201   702A      0.556282  
     703A      0.556827   704A      0.557928   705A      0.559511  
     706A      0.560340   707A      0.560525   708A      0.561747  
     709A      0.561912   710A      0.563790   711A      0.564452  
     712A      0.564610   713A      0.565212   714A      0.565368  
     715A      0.566327   716A      0.566747   717A      0.569023  
     718A      0.570705   719A      0.573022   720A      0.573893  
     721A      0.574946   722A      0.578837   723A      0.579904  
     724A      0.580681   725A      0.581397   726A      0.583073  
     727A      0.583949   728A      0.585323   729A      0.587305  
     730A      0.589517   731A      0.589738   732A      0.590860  
     733A      0.591940   734A      0.595173   735A      0.596235  
     736A      0.597047   737A      0.597985   738A      0.599326  
     739A      0.600609   740A      0.600718   741A      0.604254  
     742A      0.605292   743A      0.608156   744A      0.611653  
     745A      0.611894   746A      0.613880   747A      0.616470  
     748A      0.618187   749A      0.619262   750A      0.622508  
     751A      0.623940   752A      0.625398   753A      0.627197  
     754A      0.627382   755A      0.628797   756A      0.629762  
     757A      0.630031   758A      0.631076   759A      0.634981  
     760A      0.636507   761A      0.639111   762A      0.640705  
     763A      0.642303   764A      0.643400   765A      0.645370  
     766A      0.647137   767A      0.649596   768A      0.650269  
     769A      0.650954   770A      0.651435   771A      0.653483  
     772A      0.654715   773A      0.655754   774A      0.657451  
     775A      0.660807   776A      0.663585   777A      0.664408  
     778A      0.664773   779A      0.668045   780A      0.668876  
     781A      0.671159   782A      0.672439   783A      0.673416  
     784A      0.673685   785A      0.676192   786A      0.679139  
     787A      0.682453   788A      0.683071   789A      0.684008  
     790A      0.685103   791A      0.685438   792A      0.686054  
     793A      0.690514   794A      0.692584   795A      0.698460  
     796A      0.699864   797A      0.700249   798A      0.706396  
     799A      0.707513   800A      0.711089   801A      0.712115  
     802A      0.712918   803A      0.714260   804A      0.717654  
     805A      0.721469   806A      0.725043   807A      0.725865  
     808A      0.726278   809A      0.728376   810A      0.731885  
     811A      0.733812   812A      0.736152   813A      0.740356  
     814A      0.741498   815A      0.742770   816A      0.744317  
     817A      0.744582   818A      0.753051   819A      0.754807  
     820A      0.755270   821A      0.757214   822A      0.758889  
     823A      0.759286   824A      0.760228   825A      0.761622  
     826A      0.762762   827A      0.767821   828A      0.768787  
     829A      0.772718   830A      0.774370   831A      0.779104  
     832A      0.782260   833A      0.783315   834A      0.784769  
     835A      0.791828   836A      0.796235   837A      0.796966  
     838A      0.797849   839A      0.799444   840A      0.804465  
     841A      0.806372   842A      0.807052   843A      0.809985  
     844A      0.813556   845A      0.816573   846A      0.818745  
     847A      0.820384   848A      0.820637   849A      0.822152  
     850A      0.836293   851A      0.836967   852A      0.845814  
     853A      0.851533   854A      0.852621   855A      0.854133  
     856A      0.855773   857A      0.859261   858A      0.860442  
     859A      0.862436   860A      0.863360   861A      0.865388  
     862A      0.865752   863A      0.868335   864A      0.869210  
     865A      0.871422   866A      0.877066   867A      0.877914  
     868A      0.878648   869A      0.879647   870A      0.880043  
     871A      0.881804   872A      0.882341   873A      0.883037  
     874A      0.890293   875A      0.891631   876A      0.892541  
     877A      0.894167   878A      0.900823   879A      0.901773  
     880A      0.904464   881A      0.905395   882A      0.907961  
     883A      0.909310   884A      0.909714   885A      0.913790  
     886A      0.917335   887A      0.918077   888A      0.918908  
     889A      0.921419   890A      0.924641   891A      0.924975  
     892A      0.926138   893A      0.926919   894A      0.929821  
     895A      0.930225   896A      0.931497   897A      0.934570  
     898A      0.935933   899A      0.938777   900A      0.939295  
     901A      0.940283   902A      0.941219   903A      0.941954  
     904A      0.944017   905A      0.947566   906A      0.948211  
     907A      0.950795   908A      0.951183   909A      0.953992  
     910A      0.956778   911A      0.958652   912A      0.959970  
     913A      0.960494   914A      0.962700   915A      0.962882  
     916A      0.966848   917A      0.968134   918A      0.969354  
     919A      0.969621   920A      0.974964   921A      0.976155  
     922A      0.977234   923A      0.978322   924A      0.978829  
     925A      0.981726   926A      0.982290   927A      0.984442  
     928A      0.985037   929A      0.985277   930A      0.986909  
     931A      0.988580   932A      0.992476   933A      0.993953  
     934A      0.994312   935A      0.996191   936A      0.996382  
     937A      0.999359   938A      1.001828   939A      1.004126  
     940A      1.004712   941A      1.005971   942A      1.007413  
     943A      1.008965   944A      1.009834   945A      1.012360  
     946A      1.013553   947A      1.013865   948A      1.014622  
     949A      1.015699   950A      1.018790   951A      1.018894  
     952A      1.019344   953A      1.020101   954A      1.021122  
     955A      1.025849   956A      1.026192   957A      1.027894  
     958A      1.031024   959A      1.036559   960A      1.037314  
     961A      1.040748   962A      1.044680   963A      1.046123  
     964A      1.048420   965A      1.053669   966A      1.055448  
     967A      1.057953   968A      1.058243   969A      1.059009  
     970A      1.060925   971A      1.061682   972A      1.067828  
     973A      1.068327   974A      1.068678   975A      1.069283  
     976A      1.069683   977A      1.074735   978A      1.076122  
     979A      1.077084   980A      1.078109   981A      1.079236  
     982A      1.080864   983A      1.083443   984A      1.084974  
     985A      1.087202   986A      1.087974   987A      1.090063  
     988A      1.091369   989A      1.094197   990A      1.097853  
     991A      1.100383   992A      1.101126   993A      1.107707  
     994A      1.109805   995A      1.110681   996A      1.111546  
     997A      1.111652   998A      1.112655   999A      1.113623  
    1000A      1.114575  1001A      1.115792  1002A      1.116748  
    1003A      1.117602  1004A      1.118251  1005A      1.120820  
    1006A      1.122435  1007A      1.123775  1008A      1.124371  
    1009A      1.125287  1010A      1.126853  1011A      1.127534  
    1012A      1.128873  1013A      1.130109  1014A      1.130540  
    1015A      1.132701  1016A      1.134398  1017A      1.135477  
    1018A      1.135863  1019A      1.136897  1020A      1.137578  
    1021A      1.138186  1022A      1.139984  1023A      1.140655  
    1024A      1.141127  1025A      1.141536  1026A      1.142801  
    1027A      1.143715  1028A      1.144379  1029A      1.145321  
    1030A      1.145426  1031A      1.146516  1032A      1.146678  
    1033A      1.146841  1034A      1.146937  1035A      1.147913  
    1036A      1.150027  1037A      1.150286  1038A      1.150998  
    1039A      1.151500  1040A      1.152747  1041A      1.154053  
    1042A      1.156053  1043A      1.157132  1044A      1.158267  
    1045A      1.159305  1046A      1.161269  1047A      1.165942  
    1048A      1.166611  1049A      1.167515  1050A      1.169422  
    1051A      1.170415  1052A      1.171021  1053A      1.172118  
    1054A      1.172986  1055A      1.174933  1056A      1.176346  
    1057A      1.178295  1058A      1.182095  1059A      1.182962  
    1060A      1.184718  1061A      1.185068  1062A      1.188045  
    1063A      1.190427  1064A      1.191241  1065A      1.194366  
    1066A      1.196381  1067A      1.197084  1068A      1.198252  
    1069A      1.199307  1070A      1.201628  1071A      1.202671  
    1072A      1.205107  1073A      1.206497  1074A      1.209726  
    1075A      1.210939  1076A      1.214041  1077A      1.215836  
    1078A      1.216434  1079A      1.217306  1080A      1.217850  
    1081A      1.219667  1082A      1.220870  1083A      1.221806  
    1084A      1.222950  1085A      1.224924  1086A      1.225398  
    1087A      1.226914  1088A      1.231647  1089A      1.236126  
    1090A      1.237207  1091A      1.237681  1092A      1.238598  
    1093A      1.240512  1094A      1.242720  1095A      1.244264  
    1096A      1.248856  1097A      1.250621  1098A      1.252097  
    1099A      1.253672  1100A      1.254220  1101A      1.259427  
    1102A      1.260553  1103A      1.261210  1104A      1.261781  
    1105A      1.265101  1106A      1.267441  1107A      1.270899  
    1108A      1.271479  1109A      1.272169  1110A      1.275353  
    1111A      1.276497  1112A      1.277231  1113A      1.279095  
    1114A      1.279870  1115A      1.282112  1116A      1.283169  
    1117A      1.283696  1118A      1.286167  1119A      1.289509  
    1120A      1.289877  1121A      1.291059  1122A      1.297515  
    1123A      1.300177  1124A      1.302762  1125A      1.311543  
    1126A      1.316756  1127A      1.316981  1128A      1.318159  
    1129A      1.319267  1130A      1.320164  1131A      1.323415  
    1132A      1.326670  1133A      1.326768  1134A      1.330597  
    1135A      1.332683  1136A      1.333729  1137A      1.336944  
    1138A      1.337575  1139A      1.345413  1140A      1.345611  
    1141A      1.351214  1142A      1.354464  1143A      1.356741  
    1144A      1.357665  1145A      1.358186  1146A      1.359172  
    1147A      1.361934  1148A      1.365533  1149A      1.367570  
    1150A      1.368546  1151A      1.371325  1152A      1.372047  
    1153A      1.376942  1154A      1.377739  1155A      1.378686  
    1156A      1.379117  1157A      1.380113  1158A      1.382818  
    1159A      1.383208  1160A      1.385518  1161A      1.385757  
    1162A      1.386701  1163A      1.389752  1164A      1.393048  
    1165A      1.393334  1166A      1.395236  1167A      1.396981  
    1168A      1.397215  1169A      1.398644  1170A      1.400670  
    1171A      1.402773  1172A      1.406336  1173A      1.406690  
    1174A      1.409133  1175A      1.421576  1176A      1.422161  
    1177A      1.423397  1178A      1.425433  1179A      1.426137  
    1180A      1.426289  1181A      1.426752  1182A      1.427597  
    1183A      1.428329  1184A      1.428983  1185A      1.437885  
    1186A      1.440323  1187A      1.440691  1188A      1.443544  
    1189A      1.447437  1190A      1.451945  1191A      1.452341  
    1192A      1.454299  1193A      1.455956  1194A      1.457001  
    1195A      1.459454  1196A      1.461027  1197A      1.469482  
    1198A      1.470752  1199A      1.473205  1200A      1.473682  
    1201A      1.474342  1202A      1.474646  1203A      1.475420  
    1204A      1.475635  1205A      1.476875  1206A      1.481502  
    1207A      1.487106  1208A      1.487328  1209A      1.488335  
    1210A      1.491730  1211A      1.494443  1212A      1.496906  
    1213A      1.497345  1214A      1.498317  1215A      1.499338  
    1216A      1.500415  1217A      1.501609  1218A      1.502412  
    1219A      1.504551  1220A      1.506654  1221A      1.508147  
    1222A      1.510362  1223A      1.513205  1224A      1.517327  
    1225A      1.522435  1226A      1.522809  1227A      1.523863  
    1228A      1.524720  1229A      1.525584  1230A      1.531125  
    1231A      1.533501  1232A      1.536479  1233A      1.539328  
    1234A      1.539599  1235A      1.541222  1236A      1.542022  
    1237A      1.545385  1238A      1.550494  1239A      1.551104  
    1240A      1.552302  1241A      1.554434  1242A      1.559133  
    1243A      1.564314  1244A      1.566101  1245A      1.567714  
    1246A      1.572794  1247A      1.574406  1248A      1.584601  
    1249A      1.585568  1250A      1.586512  1251A      1.602479  
    1252A      1.603032  1253A      1.605081  1254A      1.613874  
    1255A      1.621648  1256A      1.622056  1257A      1.642124  
    1258A      1.648871  1259A      1.649269  1260A      1.653210  
    1261A      1.662047  1262A      1.669275  1263A      1.670972  
    1264A      1.673271  1265A      1.674538  1266A      1.675708  
    1267A      1.677065  1268A      1.678406  1269A      1.679789  
    1270A      1.680588  1271A      1.682868  1272A      1.683689  
    1273A      1.684200  1274A      1.685065  1275A      1.685876  
    1276A      1.687924  1277A      1.688672  1278A      1.690047  
    1279A      1.690781  1280A      1.692827  1281A      1.694935  
    1282A      1.697429  1283A      1.697982  1284A      1.698666  
    1285A      1.701084  1286A      1.702706  1287A      1.703772  
    1288A      1.705215  1289A      1.705644  1290A      1.706635  
    1291A      1.708228  1292A      1.708317  1293A      1.709565  
    1294A      1.709885  1295A      1.710864  1296A      1.712478  
    1297A      1.713547  1298A      1.716092  1299A      1.718149  
    1300A      1.718571  1301A      1.722109  1302A      1.722191  
    1303A      1.723383  1304A      1.724384  1305A      1.732633  
    1306A      1.733791  1307A      1.736528  1308A      1.736645  
    1309A      1.736953  1310A      1.737697  1311A      1.738220  
    1312A      1.740860  1313A      1.741810  1314A      1.743123  
    1315A      1.746285  1316A      1.747052  1317A      1.753201  
    1318A      1.753516  1319A      1.756965  1320A      1.759351  
    1321A      1.763738  1322A      1.765311  1323A      1.766379  
    1324A      1.767544  1325A      1.773314  1326A      1.773490  
    1327A      1.777270  1328A      1.778747  1329A      1.780228  
    1330A      1.781153  1331A      1.781549  1332A      1.786639  
    1333A      1.789251  1334A      1.789806  1335A      1.790272  
    1336A      1.792722  1337A      1.794610  1338A      1.794866  
    1339A      1.803798  1340A      1.813425  1341A      1.813544  
    1342A      1.815348  1343A      1.815445  1344A      1.829021  
    1345A      1.831143  1346A      1.832633  1347A      1.835992  
    1348A      1.845732  1349A      1.848258  1350A      1.849423  
    1351A      1.849797  1352A      1.872800  1353A      1.873008  
    1354A      1.879731  1355A      1.884108  1356A      1.888671  
    1357A      1.890634  1358A      1.891307  1359A      1.891931  
    1360A      1.892625  1361A      1.894989  1362A      1.898177  
    1363A      1.898310  1364A      1.900365  1365A      1.904252  
    1366A      1.909105  1367A      1.912729  1368A      1.914304  
    1369A      1.915166  1370A      1.916112  1371A      1.917342  
    1372A      1.921084  1373A      1.925459  1374A      1.925871  
    1375A      1.930388  1376A      1.930421  1377A      1.932880  
    1378A      1.933620  1379A      1.935754  1380A      1.936455  
    1381A      1.937292  1382A      1.938941  1383A      1.939269  
    1384A      1.943760  1385A      1.944095  1386A      1.946617  
    1387A      1.949203  1388A      1.950109  1389A      1.950232  
    1390A      1.951906  1391A      1.955805  1392A      1.956288  
    1393A      1.958938  1394A      1.967273  1395A      1.967516  
    1396A      1.971457  1397A      1.971917  1398A      1.974335  
    1399A      1.977466  1400A      1.984304  1401A      1.985357  
    1402A      1.988648  1403A      1.989113  1404A      1.990146  
    1405A      1.990330  1406A      1.993022  1407A      1.995831  
    1408A      1.996498  1409A      1.998716  1410A      1.998738  
    1411A      2.001159  1412A      2.003363  1413A      2.003981  
    1414A      2.006565  1415A      2.008767  1416A      2.010712  
    1417A      2.011899  1418A      2.012313  1419A      2.012646  
    1420A      2.013482  1421A      2.022951  1422A      2.023441  
    1423A      2.024510  1424A      2.026283  1425A      2.027618  
    1426A      2.027912  1427A      2.029533  1428A      2.031814  
    1429A      2.035185  1430A      2.035666  1431A      2.037380  
    1432A      2.039448  1433A      2.041948  1434A      2.043732  
    1435A      2.047934  1436A      2.049722  1437A      2.053971  
    1438A      2.054651  1439A      2.055098  1440A      2.056676  
    1441A      2.058501  1442A      2.061301  1443A      2.062363  
    1444A      2.067353  1445A      2.072291  1446A      2.073517  
    1447A      2.076327  1448A      2.076929  1449A      2.078016  
    1450A      2.080312  1451A      2.081719  1452A      2.082825  
    1453A      2.086383  1454A      2.086785  1455A      2.087618  
    1456A      2.088047  1457A      2.090061  1458A      2.090819  
    1459A      2.095693  1460A      2.096936  1461A      2.097508  
    1462A      2.098487  1463A      2.101134  1464A      2.101979  
    1465A      2.102571  1466A      2.104883  1467A      2.106501  
    1468A      2.116287  1469A      2.116842  1470A      2.120186  
    1471A      2.121808  1472A      2.123942  1473A      2.124184  
    1474A      2.125589  1475A      2.127721  1476A      2.128651  
    1477A      2.132131  1478A      2.132575  1479A      2.136101  
    1480A      2.136782  1481A      2.138387  1482A      2.140590  
    1483A      2.142552  1484A      2.143855  1485A      2.144923  
    1486A      2.146752  1487A      2.148386  1488A      2.148848  
    1489A      2.149570  1490A      2.150571  1491A      2.151588  
    1492A      2.152508  1493A      2.152975  1494A      2.153442  
    1495A      2.154660  1496A      2.155123  1497A      2.156058  
    1498A      2.156287  1499A      2.157434  1500A      2.160206  
    1501A      2.160518  1502A      2.163823  1503A      2.164303  
    1504A      2.166512  1505A      2.168325  1506A      2.169458  
    1507A      2.171034  1508A      2.174214  1509A      2.174952  
    1510A      2.176987  1511A      2.178920  1512A      2.179867  
    1513A      2.180746  1514A      2.182575  1515A      2.182769  
    1516A      2.183706  1517A      2.184668  1518A      2.189741  
    1519A      2.190048  1520A      2.190400  1521A      2.191545  
    1522A      2.192354  1523A      2.192551  1524A      2.196464  
    1525A      2.197257  1526A      2.198033  1527A      2.199525  
    1528A      2.201598  1529A      2.203419  1530A      2.204924  
    1531A      2.206575  1532A      2.207689  1533A      2.209125  
    1534A      2.209252  1535A      2.211291  1536A      2.212412  
    1537A      2.213996  1538A      2.220677  1539A      2.224162  
    1540A      2.225267  1541A      2.225976  1542A      2.226562  
    1543A      2.227284  1544A      2.227725  1545A      2.232264  
    1546A      2.232901  1547A      2.236779  1548A      2.239234  
    1549A      2.239997  1550A      2.241879  1551A      2.243328  
    1552A      2.246115  1553A      2.248582  1554A      2.248794  
    1555A      2.257435  1556A      2.260801  1557A      2.261432  
    1558A      2.262521  1559A      2.264246  1560A      2.264892  
    1561A      2.266096  1562A      2.266623  1563A      2.267630  
    1564A      2.268665  1565A      2.269044  1566A      2.272195  
    1567A      2.273601  1568A      2.275382  1569A      2.276575  
    1570A      2.278310  1571A      2.283020  1572A      2.285600  
    1573A      2.286063  1574A      2.287256  1575A      2.287473  
    1576A      2.289890  1577A      2.292897  1578A      2.293387  
    1579A      2.294947  1580A      2.295622  1581A      2.297092  
    1582A      2.297947  1583A      2.303855  1584A      2.307282  
    1585A      2.309142  1586A      2.309399  1587A      2.310410  
    1588A      2.310699  1589A      2.312990  1590A      2.324124  
    1591A      2.324397  1592A      2.326468  1593A      2.330348  
    1594A      2.330820  1595A      2.333008  1596A      2.339008  
    1597A      2.346344  1598A      2.346731  1599A      2.349526  
    1600A      2.352462  1601A      2.354086  1602A      2.357232  
    1603A      2.360535  1604A      2.364687  1605A      2.368151  
    1606A      2.370878  1607A      2.372476  1608A      2.378590  
    1609A      2.390134  1610A      2.390400  1611A      2.391465  
    1612A      2.393497  1613A      2.394566  1614A      2.394783  
    1615A      2.396638  1616A      2.400836  1617A      2.401417  
    1618A      2.402209  1619A      2.405225  1620A      2.407664  
    1621A      2.408177  1622A      2.409459  1623A      2.410481  
    1624A      2.411102  1625A      2.412011  1626A      2.418162  
    1627A      2.419765  1628A      2.421041  1629A      2.429350  
    1630A      2.441690  1631A      2.445016  1632A      2.449372  
    1633A      2.453089  1634A      2.454192  1635A      2.459982  
    1636A      2.466587  1637A      2.468122  1638A      2.483291  
    1639A      2.485956  1640A      2.488416  1641A      2.491381  
    1642A      2.495646  1643A      2.502658  1644A      2.509206  
    1645A      2.510288  1646A      2.520615  1647A      2.521954  
    1648A      2.529838  1649A      2.530167  1650A      2.533223  
    1651A      2.533829  1652A      2.536327  1653A      2.536720  
    1654A      2.554867  1655A      2.555181  1656A      2.563463  
    1657A      2.565883  1658A      2.570152  1659A      2.571355  
    1660A      2.574243  1661A      2.581715  1662A      2.605217  
    1663A      2.606502  1664A      2.606662  1665A      2.607708  
    1666A      2.609397  1667A      2.610629  1668A      2.612702  
    1669A      2.613542  1670A      2.616487  1671A      2.617849  
    1672A      2.625706  1673A      2.626137  1674A      2.629832  
    1675A      2.633734  1676A      2.636315  1677A      2.642849  
    1678A      2.645962  1679A      2.646538  1680A      2.649862  
    1681A      2.650317  1682A      2.650477  1683A      2.651005  
    1684A      2.654264  1685A      2.657839  1686A      2.666309  
    1687A      2.666535  1688A      2.678286  1689A      2.678427  
    1690A      2.679052  1691A      2.679462  1692A      2.682876  
    1693A      2.683844  1694A      2.698860  1695A      2.706487  
    1696A      2.706827  1697A      2.711004  1698A      2.711252  
    1699A      2.713324  1700A      2.716133  1701A      2.716469  
    1702A      2.717141  1703A      2.719667  1704A      2.720661  
    1705A      2.730752  1706A      2.733594  1707A      2.733794  
    1708A      2.733952  1709A      2.735903  1710A      2.741418  
    1711A      2.742342  1712A      2.742925  1713A      2.752055  
    1714A      2.752875  1715A      2.754265  1716A      2.756963  
    1717A      2.757438  1718A      2.758425  1719A      2.760855  
    1720A      2.761857  1721A      2.764354  1722A      2.773677  
    1723A      2.786582  1724A      2.793530  1725A      2.793965  
    1726A      2.794805  1727A      2.796737  1728A      2.798251  
    1729A      2.820005  1730A      2.830657  1731A      2.837760  
    1732A      2.846063  1733A      2.847058  1734A      2.847684  
    1735A      2.849537  1736A      2.867552  1737A      2.867662  
    1738A      2.869700  1739A      2.870004  1740A      2.872835  
    1741A      2.881605  1742A      2.882471  1743A      2.883715  
    1744A      2.884558  1745A      2.885180  1746A      2.889168  
    1747A      2.898585  1748A      2.900307  1749A      2.907066  
    1750A      2.908749  1751A      2.909506  1752A      2.911957  
    1753A      2.913842  1754A      2.932644  1755A      2.933200  
    1756A      2.936142  1757A      2.936528  1758A      2.937987  
    1759A      2.941585  1760A      2.967387  1761A      2.968210  
    1762A      2.980330  1763A      2.980672  1764A      2.989402  
    1765A      2.992853  1766A      2.992891  1767A      2.999474  
    1768A      2.999726  1769A      3.028868  1770A      3.029162  
    1771A      3.029254  1772A      3.032356  1773A      3.041573  
    1774A      3.057145  1775A      3.057563  1776A      3.095313  
    1777A      3.096506  1778A      3.101113  1779A      3.102760  
    1780A      3.113897  1781A      3.114196  1782A      3.115292  
    1783A      3.123605  1784A      3.124275  1785A      3.124447  
    1786A      3.138686  1787A      3.166493  1788A      3.170585  
    1789A      3.176183  1790A      3.180982  1791A      3.186641  
    1792A      3.193798  1793A      3.194808  1794A      3.201338  
    1795A      3.205572  1796A      3.206154  1797A      3.208096  
    1798A      3.210717  1799A      3.213590  1800A      3.216179  
    1801A      3.218139  1802A      3.222608  1803A      3.224133  
    1804A      3.234891  1805A      3.235478  1806A      3.238581  
    1807A      3.245559  1808A      3.253298  1809A      3.257068  
    1810A      3.257740  1811A      3.282592  1812A      3.322758  
    1813A      3.324091  1814A      3.326252  1815A      3.327996  
    1816A      3.328982  1817A      3.331022  1818A      3.336497  
    1819A      3.337297  1820A      3.339772  1821A      3.340996  
    1822A      3.357620  1823A      3.364034  1824A      3.368437  
    1825A      3.371042  1826A      3.376689  1827A      3.430605  
    1828A      3.431503  1829A      3.454545  1830A      3.485515  
    1831A      3.502333  1832A      3.508746  1833A      3.523146  
    1834A      3.527100  1835A      3.530838  1836A      3.535687  
    1837A      3.536783  1838A      3.543419  1839A      3.544995  
    1840A      3.546462  1841A      3.558457  1842A      3.561523  
    1843A      3.577644  1844A      3.594414  1845A      3.619709  
    1846A      3.643047  1847A      3.648325  1848A      3.655241  
    1849A      3.656121  1850A      3.713125  1851A      3.718863  
    1852A      3.732981  1853A      3.738857  1854A      3.774647  
    1855A      3.818164  1856A      3.820590  1857A      3.827367  
    1858A      3.834574  1859A      3.843032  1860A      3.856311  
    1861A      3.908435  1862A      3.912561  1863A      3.937326  
    1864A      3.942350  1865A      3.981456  1866A      3.983797  
    1867A      4.014685  1868A      4.014785  1869A      4.017489  
    1870A      4.021583  1871A      4.030858  1872A      4.044043  
    1873A      4.050806  1874A      4.094188  1875A      4.097380  
    1876A      4.152503  1877A      4.161155  1878A      4.162184  
    1879A      4.167944  1880A      4.191368  1881A      4.192094  
    1882A      4.193719  1883A      4.194372  1884A      4.199911  
    1885A      4.237297  1886A      4.242356  1887A      4.264386  
    1888A      4.331677  1889A      4.395587  1890A      4.436301  
    1891A      4.437562  1892A      4.439302  1893A      4.491963  
    1894A      4.639393  1895A      4.649494  1896A      4.657856  
    1897A      4.738927  1898A      4.773427  1899A      4.774631  

    Final Occupation by Irrep:
              A 
    DOCC [   321 ]
    NA   [   321 ]
    NB   [   321 ]

  @DF-RHF Final Energy: -4073.11301697840872

   => Energetics <=

    Nuclear Repulsion Energy =          17656.3576520648603037
    One-Electron Energy =              -40801.1031442040257389
    Two-Electron Energy =               19071.6324751607571670
    Total Energy =                      -4073.1130169784082682

Computation Completed


Properties will be evaluated at   0.000000,   0.000000,   0.000000 [a0]

Properties computed using the SCF density matrix


 Multipole Moments:

 ------------------------------------------------------------------------------------
     Multipole            Electronic (a.u.)      Nuclear  (a.u.)        Total (a.u.)
 ------------------------------------------------------------------------------------

 L = 1.  Multiply by 2.5417464519 to convert [e a0] to [Debye]
 Dipole X            :          0.0012209           -0.0001188            0.0011021
 Dipole Y            :          0.0014442           -0.0002727            0.0011715
 Dipole Z            :         18.2488714          -23.8049543           -5.5560829
 Magnitude           :                                                    5.5560831

 ------------------------------------------------------------------------------------

*** tstop() called on n2cn0411 at Sat Jan 27 14:36:31 2024
Module time:
	user time   =   23258.52 seconds =     387.64 minutes
	system time =    1184.62 seconds =      19.74 minutes
	total time  =      11456 seconds =     190.93 minutes
Total time:
	user time   =   23258.52 seconds =     387.64 minutes
	system time =    1184.62 seconds =      19.74 minutes
	total time  =      11456 seconds =     190.93 minutes

  //>>>>>>>>>>>>>>>>>>>>>>>>>>>>>>>>>>>//
  //            Monomer A HF           //
  //<<<<<<<<<<<<<<<<<<<<<<<<<<<<<<<<<<<//

   => Libint2 <=

    Primary   basis highest AM E, G, H:  5, 4, 3
    Auxiliary basis highest AM E, G, H:  6, 5, 4
    Onebody   basis highest AM E, G, H:  6, 5, 4
    Solid Harmonics ordering:            gaussian

*** tstart() called on n2cn0411
*** at Sat Jan 27 14:36:31 2024

   => Loading Basis Set <=

    Name: JUN-CC-PVDZ
    Role: ORBITAL
    Keyword: BASIS
    atoms 1                                                   entry B          line   130 file /opt/software/pc2/EB-SW/software/PSI4/1.9-foss-2022a/share/psi4/basis/jun-cc-pvdz.gbs 
    atoms 2-5                                                 entry F          line   266 file /opt/software/pc2/EB-SW/software/PSI4/1.9-foss-2022a/share/psi4/basis/jun-cc-pvdz.gbs 
    atoms 6-23, 30-42, 45-59, 62-78, 81-93, 98-108, 111-119   entry C          line   164 file /opt/software/pc2/EB-SW/software/PSI4/1.9-foss-2022a/share/psi4/basis/jun-cc-pvdz.gbs 
    atoms 24-29, 43-44, 60-61, 79-80, 94-97, 109-110, 120-125 entry H          line    36 file /opt/software/pc2/EB-SW/software/PSI4/1.9-foss-2022a/share/psi4/basis/jun-cc-pvdz.gbs 


         ---------------------------------------------------------
                                   SCF
               by Justin Turney, Rob Parrish, Andy Simmonett
                          and Daniel G. A. Smith
                              RHF Reference
                       16 Threads,  61035 MiB Core
         ---------------------------------------------------------

  ==> Geometry <==

    Molecular point group: c1
    Full point group: C1

    Geometry (in Angstrom), charge = -1, multiplicity = 1:

       Center              X                  Y                   Z               Mass       
    ------------   -----------------  -----------------  -----------------  -----------------
         B           -0.000050191042     0.000351518223     3.724488817114    11.009305360000
         F           -1.153601191042     0.000062518223     4.540135817114    18.998403162730
         F            1.153656808958    -0.000566481777     4.540135817114    18.998403162730
         F           -0.000023191042    -1.153622481777     2.908854817114    18.998403162730
         F           -0.000023191042     1.153992518223     2.908854817114    18.998403162730
      Gh(C)          -3.668445455062     7.803766688305    -0.273605141550    12.000000000000
      Gh(C)          -4.847602910388     7.131256349563    -0.275971716483    12.000000000000
      Gh(C)          -4.894963490217     5.696344921754    -0.276544627581    12.000000000000
      Gh(C)          -3.653744869815     4.980744859182    -0.268884185852    12.000000000000
      Gh(C)          -2.409429312536     7.113995554897    -0.273410799290    12.000000000000
      Gh(C)          -2.425481535146     5.681136469126    -0.280415688160    12.000000000000
      Gh(C)          -1.194748207477     7.786158712532    -0.271938618748    12.000000000000
      Gh(C)           0.037954837895     7.099436163980    -0.274109323053    12.000000000000
      Gh(C)           0.030328396378     5.669504077927    -0.279592707969    12.000000000000
      Gh(C)          -1.200988698947     4.969284866138    -0.270622974035    12.000000000000
      Gh(C)           1.277953634773     7.772873961417    -0.272733474493    12.000000000000
      Gh(C)           2.485353893683     7.087711403460    -0.275007962397    12.000000000000
      Gh(C)           2.486124493876     5.654785328463    -0.281945711385    12.000000000000
      Gh(C)           1.254078728602     4.956092631887    -0.270317769797    12.000000000000
      Gh(C)           3.751710400364     7.763926669203    -0.274881111017    12.000000000000
      Gh(C)           4.923561865144     7.078795295213    -0.276937591725    12.000000000000
      Gh(C)           4.955603080284     5.643461981592    -0.277098004532    12.000000000000
      Gh(C)           3.706797343163     4.941224726556    -0.272006444362    12.000000000000
      Gh(H)          -3.658525328800     8.890841937358    -0.271920153300     1.007825032230
      Gh(H)          -1.189217520798     8.874135605583    -0.267966742307     1.007825032230
      Gh(H)           1.284290047845     8.860847953711    -0.268574650352     1.007825032230
      Gh(H)           3.753537895758     8.851049797195    -0.273358586701     1.007825032230
      Gh(H)           5.869954512165     7.613809352878    -0.277862958767     1.007825032230
      Gh(H)          -5.788235898544     7.676316731157    -0.277531563839     1.007825032230
      Gh(C)          -6.091978149738     4.993274531866    -0.278416868072    12.000000000000
[...]
    1504A      2.125372  1505A      2.126167  1506A      2.127897  
    1507A      2.129412  1508A      2.129695  1509A      2.129975  
    1510A      2.131166  1511A      2.133144  1512A      2.136685  
    1513A      2.138861  1514A      2.140753  1515A      2.143233  
    1516A      2.143579  1517A      2.144033  1518A      2.144891  
    1519A      2.145982  1520A      2.148540  1521A      2.153232  
    1522A      2.157576  1523A      2.158867  1524A      2.159747  
    1525A      2.160438  1526A      2.161140  1527A      2.161563  
    1528A      2.162950  1529A      2.163989  1530A      2.165537  
    1531A      2.172089  1532A      2.172997  1533A      2.177377  
    1534A      2.180699  1535A      2.183093  1536A      2.183903  
    1537A      2.190692  1538A      2.191058  1539A      2.191960  
    1540A      2.192302  1541A      2.195983  1542A      2.196219  
    1543A      2.198937  1544A      2.199578  1545A      2.201275  
    1546A      2.202079  1547A      2.202463  1548A      2.203766  
    1549A      2.205436  1550A      2.209688  1551A      2.210925  
    1552A      2.213459  1553A      2.216999  1554A      2.218092  
    1555A      2.220291  1556A      2.222784  1557A      2.222889  
    1558A      2.223779  1559A      2.226632  1560A      2.228355  
    1561A      2.229532  1562A      2.232098  1563A      2.232845  
    1564A      2.233819  1565A      2.239036  1566A      2.239537  
    1567A      2.240169  1568A      2.242415  1569A      2.245136  
    1570A      2.248201  1571A      2.251627  1572A      2.255211  
    1573A      2.259086  1574A      2.264415  1575A      2.266634  
    1576A      2.268200  1577A      2.271247  1578A      2.272391  
    1579A      2.277944  1580A      2.279218  1581A      2.284113  
    1582A      2.285858  1583A      2.292514  1584A      2.294291  
    1585A      2.297022  1586A      2.297812  1587A      2.304495  
    1588A      2.305419  1589A      2.310838  1590A      2.323092  
    1591A      2.325302  1592A      2.326771  1593A      2.327934  
    1594A      2.329455  1595A      2.330544  1596A      2.330791  
    1597A      2.333552  1598A      2.334360  1599A      2.335515  
    1600A      2.335825  1601A      2.341307  1602A      2.342374  
    1603A      2.342496  1604A      2.343584  1605A      2.345603  
    1606A      2.346126  1607A      2.346441  1608A      2.349170  
    1609A      2.349726  1610A      2.370302  1611A      2.373433  
    1612A      2.377200  1613A      2.384388  1614A      2.388473  
    1615A      2.392242  1616A      2.397549  1617A      2.398296  
    1618A      2.407628  1619A      2.418718  1620A      2.420078  
    1621A      2.424564  1622A      2.428161  1623A      2.432875  
    1624A      2.443352  1625A      2.443936  1626A      2.453219  
    1627A      2.454141  1628A      2.464907  1629A      2.465095  
    1630A      2.468358  1631A      2.468485  1632A      2.471985  
    1633A      2.472281  1634A      2.491252  1635A      2.491580  
    1636A      2.496108  1637A      2.502216  1638A      2.506787  
    1639A      2.508157  1640A      2.511922  1641A      2.516619  
    1642A      2.539886  1643A      2.540209  1644A      2.540548  
    1645A      2.542562  1646A      2.544307  1647A      2.546225  
    1648A      2.547904  1649A      2.549718  1650A      2.549872  
    1651A      2.552435  1652A      2.556704  1653A      2.556889  
    1654A      2.564354  1655A      2.571595  1656A      2.571769  
    1657A      2.580696  1658A      2.584839  1659A      2.585325  
    1660A      2.585903  1661A      2.586778  1662A      2.589032  
    1663A      2.589081  1664A      2.593280  1665A      2.593831  
    1666A      2.602158  1667A      2.602476  1668A      2.613890  
    1669A      2.614155  1670A      2.614399  1671A      2.615143  
    1672A      2.617785  1673A      2.618800  1674A      2.633043  
    1675A      2.641099  1676A      2.642025  1677A      2.645068  
    1678A      2.645868  1679A      2.648825  1680A      2.649969  
    1681A      2.650236  1682A      2.654025  1683A      2.656298  
    1684A      2.656712  1685A      2.666206  1686A      2.666898  
    1687A      2.668169  1688A      2.671147  1689A      2.671231  
    1690A      2.674069  1691A      2.678691  1692A      2.680020  
    1693A      2.685613  1694A      2.686371  1695A      2.688611  
    1696A      2.691451  1697A      2.691595  1698A      2.692286  
    1699A      2.695157  1700A      2.696400  1701A      2.698871  
    1702A      2.705769  1703A      2.722130  1704A      2.730543  
    1705A      2.730952  1706A      2.731391  1707A      2.731931  
    1708A      2.732335  1709A      2.755783  1710A      2.760769  
    1711A      2.763131  1712A      2.774294  1713A      2.777102  
    1714A      2.780860  1715A      2.782455  1716A      2.799568  
    1717A      2.800047  1718A      2.802252  1719A      2.802384  
    1720A      2.802686  1721A      2.811888  1722A      2.812310  
    1723A      2.814965  1724A      2.815863  1725A      2.817377  
    1726A      2.818569  1727A      2.827826  1728A      2.830002  
    1729A      2.840508  1730A      2.842449  1731A      2.842750  
    1732A      2.843919  1733A      2.845152  1734A      2.846448  
    1735A      2.862625  1736A      2.865342  1737A      2.867382  
    1738A      2.870921  1739A      2.871459  1740A      2.875642  
    1741A      2.878394  1742A      2.896099  1743A      2.896988  
    1744A      2.913441  1745A      2.918096  1746A      2.920579  
    1747A      2.923345  1748A      2.927827  1749A      2.930462  
    1750A      2.935459  1751A      2.936366  1752A      2.964159  
    1753A      2.966180  1754A      2.967639  1755A      2.976467  
    1756A      2.992807  1757A      2.993891  1758A      3.029896  
    1759A      3.031164  1760A      3.038316  1761A      3.039608  
    1762A      3.047226  1763A      3.049324  1764A      3.049517  
    1765A      3.057832  1766A      3.057984  1767A      3.065550  
    1768A      3.073214  1769A      3.109591  1770A      3.113275  
    1771A      3.114035  1772A      3.123629  1773A      3.128554  
    1774A      3.129589  1775A      3.135819  1776A      3.137291  
    1777A      3.143086  1778A      3.143300  1779A      3.149479  
    1780A      3.150436  1781A      3.151384  1782A      3.152878  
    1783A      3.154414  1784A      3.162197  1785A      3.168304  
    1786A      3.173295  1787A      3.176032  1788A      3.177682  
    1789A      3.193526  1790A      3.194381  1791A      3.220598  
    1792A      3.256161  1793A      3.260962  1794A      3.262089  
    1795A      3.262504  1796A      3.263295  1797A      3.265457  
    1798A      3.270923  1799A      3.272144  1800A      3.275798  
    1801A      3.275951  1802A      3.297275  1803A      3.299615  
    1804A      3.303151  1805A      3.306663  1806A      3.362448  
    1807A      3.362883  1808A      3.378527  1809A      3.417096  
    1810A      3.432656  1811A      3.438607  1812A      3.445833  
    1813A      3.454617  1814A      3.457285  1815A      3.466078  
    1816A      3.466714  1817A      3.472870  1818A      3.474074  
    1819A      3.476457  1820A      3.487959  1821A      3.489614  
    1822A      3.509484  1823A      3.520109  1824A      3.547407  
    1825A      3.575596  1826A      3.578760  1827A      3.586138  
    1828A      3.590606  1829A      3.643911  1830A      3.647549  
    1831A      3.666722  1832A      3.671202  1833A      3.706544  
    1834A      3.750723  1835A      3.752989  1836A      3.757417  
    1837A      3.764705  1838A      3.778710  1839A      3.783874  
    1840A      3.843291  1841A      3.845916  1842A      3.871871  
    1843A      3.875897  1844A      3.915640  1845A      3.918056  
    1846A      3.945355  1847A      3.947706  1848A      3.949179  
    1849A      3.950310  1850A      3.962185  1851A      3.970328  
    1852A      3.976620  1853A      4.024759  1854A      4.027619  
    1855A      4.081024  1856A      4.231283  1857A      4.271495  
    1858A      4.317712  1859A      4.412700  1860A      4.431741  
    1861A      4.453026  1862A      4.479313  1863A      5.754613  
    1864A      5.756131  1865A      5.765234  1866A      5.765728  
    1867A      5.767060  1868A      5.768600  1869A      5.773099  
    1870A      5.776316  1871A      5.806230  1872A      5.807096  
    1873A      5.824043  1874A      6.026407  1875A      6.028290  
    1876A      6.028454  1877A      6.208079  1878A      6.332730  
    1879A      6.332996  1880A      6.387313  1881A      6.388805  
    1882A      6.391973  1883A      7.214866  1884A      7.287610  
    1885A      7.289249  1886A      7.316387  1887A      7.377421  
    1888A      7.400102  1889A      7.420158  1890A      7.429044  
    1891A      7.534374  1892A      7.581222  1893A      7.712354  
    1894A      7.777683  1895A     12.717225  1896A     42.925275  
    1897A     42.952388  1898A     42.963178  1899A     42.967164  

    Final Occupation by Irrep:
              A 
    DOCC [   300 ]
    NA   [   300 ]
    NB   [   300 ]

  @DF-RHF Final Energy: -3650.33971883413324

   => Energetics <=

    Nuclear Repulsion Energy =          15611.4211649754324753
    One-Electron Energy =              -36072.1358676519448636
    Two-Electron Energy =               16810.3749838423791516
    Total Energy =                      -3650.3397188341332367

Computation Completed


Properties will be evaluated at   0.000000,   0.000000,   0.000000 [a0]

Properties computed using the SCF density matrix


 Multipole Moments:

 ------------------------------------------------------------------------------------
     Multipole            Electronic (a.u.)      Nuclear  (a.u.)        Total (a.u.)
 ------------------------------------------------------------------------------------

 L = 1.  Multiply by 2.5417464519 to convert [e a0] to [Debye]
 Dipole X            :         -0.0001910            0.0001983            0.0000074
 Dipole Y            :          0.0012172           -0.0013163           -0.0000991
 Dipole Z            :        312.3737879         -312.3742132           -0.0004253
 Magnitude           :                                                    0.0004367

 ------------------------------------------------------------------------------------

*** tstop() called on n2cn0411 at Sat Jan 27 16:59:43 2024
Module time:
	user time   =   15952.41 seconds =     265.87 minutes
	system time =     891.88 seconds =      14.86 minutes
	total time  =       5346 seconds =      89.10 minutes
Total time:
	user time   =   42853.48 seconds =     714.22 minutes
	system time =    2316.80 seconds =      38.61 minutes
	total time  =      20048 seconds =     334.13 minutes
  Constructing Basis Sets for SAPT...

   => Loading Basis Set <=

    Name: (JUN-CC-PVDZ AUX)
    Role: RIFIT
    Keyword: DF_BASIS_SAPT
    atoms 1                                                   entry B          line    56 file /opt/software/pc2/EB-SW/software/PSI4/1.9-foss-2022a/share/psi4/basis/jun-cc-pvdz-ri.gbs 
    atoms 2-5                                                 entry F          line   232 file /opt/software/pc2/EB-SW/software/PSI4/1.9-foss-2022a/share/psi4/basis/jun-cc-pvdz-ri.gbs 
    atoms 6-23, 30-42, 45-59, 62-78, 81-93, 98-108, 111-119   entry C          line   100 file /opt/software/pc2/EB-SW/software/PSI4/1.9-foss-2022a/share/psi4/basis/jun-cc-pvdz-ri.gbs 
    atoms 24-29, 43-44, 60-61, 79-80, 94-97, 109-110, 120-125 entry H          line    30 file /opt/software/pc2/EB-SW/software/PSI4/1.9-foss-2022a/share/psi4/basis/jun-cc-pvdz-ri.gbs 

   => Loading Basis Set <=

    Name: (JUN-CC-PVDZ AUX)
    Role: JKFIT
    Keyword: DF_BASIS_ELST
    atoms 1                                                   entry B          line    90 file /opt/software/pc2/EB-SW/software/PSI4/1.9-foss-2022a/share/psi4/basis/jun-cc-pvdz-jkfit.gbs 
    atoms 2-5                                                 entry F          line   314 file /opt/software/pc2/EB-SW/software/PSI4/1.9-foss-2022a/share/psi4/basis/jun-cc-pvdz-jkfit.gbs 
    atoms 6-23, 30-42, 45-59, 62-78, 81-93, 98-108, 111-119   entry C          line   146 file /opt/software/pc2/EB-SW/software/PSI4/1.9-foss-2022a/share/psi4/basis/jun-cc-pvdz-jkfit.gbs 
    atoms 24-29, 43-44, 60-61, 79-80, 94-97, 109-110, 120-125 entry H          line    70 file /opt/software/pc2/EB-SW/software/PSI4/1.9-foss-2022a/share/psi4/basis/jun-cc-pvdz-jkfit.gbs 


  //>>>>>>>>>>>>>>>>>>>>>>>>>>>>>>>>>>>//
  //               SSAPT0              //
  //<<<<<<<<<<<<<<<<<<<<<<<<<<<<<<<<<<<//


*** tstart() called on n2cn0411
*** at Sat Jan 27 16:59:44 2024

        SAPT0  
    Ed Hohenstein
     6 June 2009

      Orbital Information
  --------------------------
    NSO        =      1938
    NMO        =      1899
    NRI        =      6901
    NRI (Elst) =      8531
    NOCC A     =        21
    NOCC B     =       300
    FOCC A     =         5
    FOCC B     =        96
    NVIR A     =      1878
    NVIR B     =      1599

    Elst10,r            =     0.010439809859 [Eh]
    Exch10              =     0.004739979294 [Eh]
    Exch10 (S^2)        =     0.004737239323 [Eh]

    Iter     Energy [mEh]          dE [mEh]         Residual      Time [s]
       1      -0.41158385       0.411583848       2.924710403           547
       2      -0.50744077       0.095856926       1.006428036          1205
       3      -0.51272104       0.005280267       0.176608692          1868
       4      -0.51138331      -0.001337732       0.044908852          2473
       5      -0.51141956       0.000036249       0.015167481          3033
       6      -0.51146474       0.000045182       0.003477946          3568
       7      -0.51146712       0.000002378       0.000776115          4168
       8      -0.51146467      -0.000002450       0.000163918          4721
       9      -0.51146490       0.000000230       0.000034230          5311
      10      -0.51146494       0.000000041       0.000005191          5978
      11      -0.51146493      -0.000000011       0.000000956          6580

    CHF Iterations converged


    Iter     Energy [mEh]          dE [mEh]         Residual      Time [s]
       1     -24.18655470      24.186554699      84.587745365           724
       2     -15.59645176      -8.590102935      10.215143687          1227
       3     -15.50639930      -0.090052464       3.281301247          2005
       4     -15.76034411       0.253944814       1.151918017          2657
       5     -15.80193178       0.041587664       0.402076521          3537
       6     -15.79231006      -0.009621719       0.255359427          4407
       7     -15.78495242      -0.007357637       0.103204691          5310
       8     -15.78609312       0.001140698       0.043536203          6145
       9     -15.78748830       0.001395182       0.019294742          6842
      10     -15.78733799      -0.000150314       0.019067239          7492
      11     -15.78699267      -0.000345321       0.010698323          8069
      12     -15.78702909       0.000036421       0.005893144          8657
      13     -15.78711923       0.000090143       0.002436881          9208
      14     -15.78713349       0.000014263       0.001320846          9807
      15     -15.78712117      -0.000012323       0.000933210         10374
      16     -15.78710849      -0.000012681       0.000426181         11108
      17     -15.78711611       0.000007615       0.000162745         12156
      18     -15.78711777       0.000001665       0.000050847         13046
      19     -15.78711724      -0.000000535       0.000025634         13929
      20     -15.78711680      -0.000000433       0.000010855         14993
      21     -15.78711688       0.000000078       0.000005497         15952
      22     -15.78711696       0.000000074       0.000002508         16921
      23     -15.78711695      -0.000000007       0.000001088         17860
      24     -15.78711693      -0.000000014       0.000000566         18863

    CHF Iterations converged

    Ind20,r (A<-B)      =    -0.000511464927 [Eh]
    Ind20,r (B<-A)      =    -0.015787116935 [Eh]
    Ind20,r             =    -0.016298581862 [Eh]
    Exch-Ind20,r (A<-B) =     0.000464551215 [Eh]
    Exch-Ind20,r (B<-A) =     0.000835083551 [Eh]
    Exch-Ind20,r        =     0.001299634766 [Eh]
    Disp20              =    -0.008170578052 [Eh]
    Disp20 (SS)         =    -0.004085289026 [Eh]
    Disp20 (OS)         =    -0.004085289026 [Eh]
    Exch-Disp20         =     0.000730045330 [Eh]
    Exch-Disp20 (SS)    =     0.000436537077 [Eh]
    Exch-Disp20 (OS)    =     0.000293508253 [Eh]

    SAPT Results 
  --------------------------------------------------------------------------------------------------------
    Electrostatics                 10.43980986 [mEh]       6.55107959 [kcal/mol]      27.40971701 [kJ/mol]
      Elst10,r                     10.43980986 [mEh]       6.55107959 [kcal/mol]      27.40971701 [kJ/mol]

    Exchange                        4.73997929 [mEh]       2.97438191 [kcal/mol]      12.44481392 [kJ/mol]
      Exch10                        4.73997929 [mEh]       2.97438191 [kcal/mol]      12.44481392 [kJ/mol]
      Exch10(S^2)                   4.73723932 [mEh]       2.97266255 [kcal/mol]      12.43762013 [kJ/mol]

    Induction                     -15.36058628 [mEh]      -9.63891341 [kcal/mol]     -40.32921373 [kJ/mol]
      Ind20,r                     -16.29858186 [mEh]     -10.22751453 [kcal/mol]     -42.79192078 [kJ/mol]
      Exch-Ind20,r                  1.29963477 [mEh]       0.81553313 [kcal/mol]       3.41219061 [kJ/mol]
      delta HF,r (2)               -0.36163919 [mEh]      -0.22693202 [kcal/mol]      -0.94948355 [kJ/mol]

    Dispersion                     -7.44053272 [mEh]      -4.66900477 [kcal/mol]     -19.53511597 [kJ/mol]
      Disp20                       -8.17057805 [mEh]      -5.12711513 [kcal/mol]     -21.45184972 [kJ/mol]
      Exch-Disp20                   0.73004533 [mEh]       0.45811036 [kcal/mol]       1.91673375 [kJ/mol]
      Disp20 (SS)                  -4.08528903 [mEh]      -2.56355757 [kcal/mol]     -10.72592486 [kJ/mol]
      Disp20 (OS)                  -4.08528903 [mEh]      -2.56355757 [kcal/mol]     -10.72592486 [kJ/mol]
      Exch-Disp20 (SS)              0.43653708 [mEh]       0.27393115 [kcal/mol]       1.14612794 [kJ/mol]
      Exch-Disp20 (OS)              0.29350825 [mEh]       0.18417921 [kcal/mol]       0.77060581 [kJ/mol]

  Total HF                         -0.18079713 [mEh]      -0.11345191 [kcal/mol]      -0.47468280 [kJ/mol]
  Total SAPT0                      -7.62132985 [mEh]      -4.78245668 [kcal/mol]     -20.00979877 [kJ/mol]

  Special recipe for scaled SAPT0 (see Manual):
    Electrostatics sSAPT0          10.43980986 [mEh]       6.55107959 [kcal/mol]      27.40971701 [kJ/mol]
    Exchange sSAPT0                 4.73997929 [mEh]       2.97438191 [kcal/mol]      12.44481392 [kJ/mol]
    Induction sSAPT0              -15.35832989 [mEh]      -9.63749751 [kcal/mol]     -40.32328957 [kJ/mol]
    Dispersion sSAPT0              -7.43926524 [mEh]      -4.66820941 [kcal/mol]     -19.53178819 [kJ/mol]
  Total sSAPT0                     -7.61780598 [mEh]      -4.78024542 [kcal/mol]     -20.00054684 [kJ/mol]
  --------------------------------------------------------------------------------------------------------

*** tstop() called on n2cn0411 at Mon Jan 29 04:41:03 2024
Module time:
	user time   =   63565.28 seconds =    1059.42 minutes
	system time =    2809.71 seconds =      46.83 minutes
	total time  =     128479 seconds =    2141.32 minutes
Total time:
	user time   =  106420.08 seconds =    1773.67 minutes
	system time =    5126.52 seconds =      85.44 minutes
	total time  =     148528 seconds =    2475.47 minutes

    Psi4 stopped on: Monday, 29 January 2024 04:41AM
    Psi4 wall time for execution: 1 day, 17:15:29.26

*** Psi4 exiting successfully. Buy a developer a beer!
